Title
82262
    1SAPS     N    1   2.879   4.673  11.191 -0.2577  0.5385  0.2727
    1SAPS   HN1    2   2.945   4.652  11.268 -0.1452 -0.6228 -0.1336
    1SAPS   HN2    3   2.871   4.774  11.166 -1.0037  0.4034 -0.0516
    1SAPS   HN3    4   2.783   4.635  11.203 -0.9079  2.5853  2.0171
    1SAPS   C12    5   2.929   4.616  11.066 -1.2486 -0.0825  0.2403
    1SAPS  H12A    6   2.860   4.625  10.983 -0.1904  0.8988 -0.5525
    1SAPS   C13    7   3.062   4.669  11.012 -0.0992  0.3222 -0.0043
    1SAPS  O13A    8   3.120   4.761  11.072  0.6323  0.1591  0.1225
    1SAPS  O13B    9   3.108   4.627  10.901  0.0833  0.1431 -0.0385
    1SAPS   C11   10   2.935   4.458  11.089 -0.2820 -0.1228  0.3496
    1SAPS  H11A   11   2.994   4.446  11.182 -0.4450  0.2162  0.5004
    1SAPS  H11B   12   2.991   4.402  11.012  1.0748  1.6866 -0.0300
    1SAPS     P   13   2.772   4.253  11.104 -0.4228  0.3266 -0.4126
    1SAPS   O13   14   2.883   4.173  11.159 -0.0353  0.4610  0.3197
    1SAPS   O14   15   2.641   4.246  11.175 -0.2713 -0.1668  0.2492
    1SAPS   O12   16   2.805   4.405  11.105  0.3745 -0.3868  0.1742
    1SAPS   O11   17   2.758   4.210  10.954 -0.0428  0.0317 -0.3267
    1SAPS    C1   18   2.706   4.305  10.866 -0.0947 -0.2845  0.2046
    1SAPS    HA   19   2.604   4.344  10.884  0.3521  0.7945  0.4462
    1SAPS    HB   20   2.772   4.393  10.851 -1.8514  1.2326  1.1785
    1SAPS    C2   21   2.699   4.229  10.728  0.8281  0.4681 -0.3651
    1SAPS    HS   22   2.677   4.305  10.650  2.9975  0.7113 -0.7723
    1SAPS   O21   23   2.592   4.132  10.736 -0.2441  0.8683 -0.3419
    1SAPS   C21   24   2.473   4.169  10.676  0.0613  0.5750 -0.4516
    1SAPS   O22   25   2.457   4.276  10.627  0.1674 -0.1799  0.2131
    1SAPS   C22   26   2.381   4.048  10.694 -0.9463  0.4396 -0.3056
    1SAPS   H2R   27   2.379   4.022  10.802 -0.3024 -0.0659 -0.4170
    1SAPS   H2S   28   2.278   4.090  10.683 -1.9883 -1.7682  0.8077
    1SAPS    C3   29   2.831   4.166  10.691 -0.4885 -0.1901 -0.1393
    1SAPS    HX   30   2.882   4.126  10.781  2.0235  0.0299 -1.4155
    1SAPS    HY   31   2.891   4.250  10.650  3.1364 -2.6063 -0.0683
    1SAPS   O31   32   2.822   4.066  10.588 -0.8039 -0.2214 -0.1798
    1SAPS   C31   33   2.827   3.946  10.639  0.2400  0.0510  1.8379
    1SAPS   O32   34   2.817   3.900  10.752 -0.1608  0.2288  0.0871
    1SAPS   C32   35   2.855   3.856  10.521  0.3087 -0.4749 -0.1259
    1SAPS   H2X   36   2.796   3.765  10.542 -1.4292 -0.1406 -3.2883
    1SAPS   H2Y   37   2.962   3.827  10.530  0.4326 -0.0636 -0.2315
    1SAPS   C23   38   2.413   3.929  10.606 -0.3987  0.2328  0.1240
    1SAPS   H3R   39   2.355   3.843  10.645  0.6685  0.3203  1.9936
    1SAPS   H3S   40   2.520   3.903  10.623 -0.3186  0.4196 -0.0869
    1SAPS   C24   41   2.381   3.957  10.455  0.2224  0.2618 -0.5305
    1SAPS   H4R   42   2.434   4.053  10.439  2.1995 -0.8890 -1.0267
    1SAPS   H4S   43   2.275   3.984  10.437 -0.1673  0.3488  1.7643
    1SAPS   C25   44   2.427   3.854  10.363 -0.4890 -0.2337 -0.3363
    1SAPS   H5R   45   2.438   3.751  10.399 -0.4726  0.3805  1.4693
    1SAPS   C26   46   2.460   3.887  10.241  0.3501  0.8320 -0.5445
    1SAPS   H6R   47   2.505   3.808  10.178 -1.7239  0.2536 -1.3855
    1SAPS   C27   48   2.462   4.023  10.170 -0.1318 -0.3068 -0.5007
    1SAPS   H7R   49   2.563   4.031  10.124 -0.2278 -1.1021 -0.8546
    1SAPS   H7S   50   2.458   4.110  10.240 -0.6860 -0.3299 -0.5049
    1SAPS   C28   51   2.351   4.044  10.072  0.2439 -0.2943 -0.2973
    1SAPS   H8R   52   2.254   4.073  10.116  0.4077 -1.1644  0.6578
    1SAPS   C29   53   2.353   4.067   9.940 -0.3496 -0.6626 -0.0875
    1SAPS   H9R   54   2.264   4.088   9.878  1.6139  3.5312 -1.6825
    1SAPS  C210   55   2.482   4.055   9.854 -0.6059  0.0730  0.0473
    1SAPS  H10R   56   2.582   4.062   9.903 -0.6365  0.0488  0.1149
    1SAPS  H10S   57   2.485   4.129   9.771 -0.4406  0.1362  0.1104
    1SAPS  C211   58   2.481   3.923   9.791  0.2865 -0.5867 -0.3788
    1SAPS  H11R   59   2.493   3.841   9.864  2.2110 -0.0655 -0.0674
    1SAPS  C212   60   2.462   3.896   9.666 -0.4407  0.1342  0.2533
    1SAPS  H12R   61   2.478   3.794   9.628  1.0198  1.1662 -2.0063
    1SAPS  C213   62   2.440   4.001   9.555 -0.3177 -0.5627  0.2733
    1SAPS  H13R   63   2.529   4.066   9.553 -0.9716  0.3221 -0.7068
    1SAPS  H13S   64   2.353   4.065   9.581  0.6601 -0.0004  2.2697
    1SAPS  C214   65   2.422   3.943   9.413  0.1626 -0.6207 -0.1293
    1SAPS  H14R   66   2.314   3.944   9.394 -0.0423 -1.3526  0.9273
    1SAPS  C215   67   2.505   3.894   9.331 -0.2312 -0.0287  0.0692
    1SAPS  H15R   68   2.462   3.860   9.236 -1.5512 -0.0781  0.6778
    1SAPS  C216   69   2.654   3.880   9.339 -0.1561 -0.2779  0.4712
    1SAPS  H16R   70   2.689   3.774   9.337  1.2817  0.1963 -1.0268
    1SAPS  H16S   71   2.699   3.915   9.434 -1.8536 -2.4878  2.1517
    1SAPS  C217   72   2.715   3.960   9.213  0.4087 -0.5248  0.2333
    1SAPS  H17R   73   2.821   3.976   9.245  0.6676 -0.8191 -0.4762
    1SAPS  H17S   74   2.666   4.059   9.204 -1.2238 -1.2906  0.6461
    1SAPS  C218   75   2.707   3.883   9.081  0.2167  0.5433 -0.0874
    1SAPS  H18R   76   2.604   3.848   9.061 -0.4445  1.5795  1.3699
    1SAPS  H18S   77   2.762   3.786   9.086  0.8802  1.0312  3.2330
    1SAPS  C219   78   2.763   3.980   8.975 -0.3216 -0.0906  0.3917
    1SAPS  H19R   79   2.866   4.013   8.997 -0.3672 -1.1623  2.2535
    1SAPS  H19S   80   2.695   4.068   8.978 -0.8373 -0.4333 -0.8679
    1SAPS  C220   81   2.762   3.910   8.840  0.1535 -0.0150 -0.5385
    1SAPS  H20R   82   2.657   3.903   8.804 -0.0434 -0.2205  0.0618
    1SAPS  H20S   83   2.813   3.811   8.843  0.2660  0.0402 -0.6467
    1SAPS  H20T   84   2.820   3.973   8.770  0.2907  0.6667  0.1722
    1SAPS   C33   85   2.845   3.914  10.376  1.5760  0.2238  0.5532
    1SAPS   H3X   86   2.908   4.006  10.367 -0.9371  2.0167  0.8933
    1SAPS   H3Y   87   2.738   3.932  10.356  1.2391 -0.6507  1.5365
    1SAPS   C34   88   2.885   3.801  10.276  0.6221 -0.0758  0.7937
    1SAPS   H4X   89   2.828   3.709  10.299 -0.1140  0.5498  1.5007
    1SAPS   H4Y   90   2.993   3.777  10.276  0.1851 -2.0881  1.7473
    1SAPS   C35   91   2.842   3.831  10.130  0.2441 -0.1275  0.2640
    1SAPS   H5X   92   2.880   3.930  10.097 -0.3169  0.5134  1.5083
    1SAPS   H5Y   93   2.733   3.851  10.126 -0.3144 -3.1369 -1.1970
    1SAPS   C36   94   2.877   3.720  10.038  0.0138 -0.4687 -0.1553
    1SAPS   H6X   95   2.815   3.630  10.059 -2.3575  1.1887  0.2828
    1SAPS   H6Y   96   2.983   3.689  10.049  0.4141  0.6814 -0.7137
    1SAPS   C37   97   2.853   3.756   9.890 -0.1570 -0.4107 -0.0736
    1SAPS   H7X   98   2.930   3.829   9.856  0.7169 -0.5640  1.4885
    1SAPS   H7Y   99   2.749   3.793   9.881 -0.9358 -2.4605  0.3666
    1SAPS   C38  100   2.852   3.622   9.811  0.0483  0.4736 -0.3426
    1SAPS   H8X  101   2.768   3.564   9.853 -1.1112  1.0045 -1.8915
    1SAPS   H8Y  102   2.942   3.561   9.835 -0.2741 -0.1480 -0.7112
    1SAPS   C39  103   2.849   3.637   9.658 -0.3098 -0.1733  0.0844
    1SAPS   H9X  104   2.950   3.666   9.624 -0.8424  1.4951 -0.1009
    1SAPS   H9Y  105   2.772   3.712   9.630  0.0399  0.0403 -0.3083
    1SAPS  C310  106   2.821   3.497   9.603  0.3820  0.0850 -0.4049
    1SAPS  H10X  107   2.729   3.473   9.661  0.3661  1.2066  0.0415
    1SAPS  H10Y  108   2.905   3.430   9.630  0.2608 -0.8184 -2.1426
    1SAPS  C311  109   2.783   3.495   9.460  0.0450 -0.5378  0.8683
    1SAPS  H11X  110   2.694   3.558   9.438 -0.2590 -0.9125  1.0159
    1SAPS  H11Y  111   2.764   3.389   9.433  1.1699 -0.5105 -0.0415
    1SAPS  C312  112   2.887   3.552   9.359 -0.1769  0.0527  0.0542
    1SAPS  H12X  113   2.981   3.492   9.356 -0.5706 -0.4990 -2.1400
    1SAPS  H12Y  114   2.918   3.657   9.381 -0.8212  0.4469 -0.8463
    1SAPS  C313  115   2.839   3.545   9.214 -0.0333 -0.0933  0.5220
    1SAPS  H13X  116   2.745   3.601   9.193 -0.9334 -2.2181 -1.3547
    1SAPS  H13Y  117   2.800   3.442   9.198  0.8872 -0.5978  1.4856
    1SAPS  C314  118   2.948   3.563   9.104 -0.1933 -0.1044 -0.5312
    1SAPS  H14X  119   3.034   3.493   9.108 -0.5926 -0.5922 -0.4822
    1SAPS  H14Y  120   2.985   3.668   9.109 -1.4199  0.3715 -1.1958
    1SAPS  C315  121   2.893   3.549   8.961 -0.2098  0.5399  0.6167
    1SAPS  H15X  122   2.938   3.619   8.887  0.7903 -1.0361 -0.3071
    1SAPS  H15Y  123   2.786   3.578   8.971 -1.5988 -3.6397 -0.7532
    1SAPS  C316  124   2.902   3.407   8.905 -0.3140  0.4104  0.4181
    1SAPS  H16X  125   2.863   3.330   8.975  0.2508  2.1557  2.7313
    1SAPS  H16Y  126   3.010   3.388   8.886 -0.2665 -0.8959  1.9032
    1SAPS  C317  127   2.826   3.391   8.774  0.4057  0.5809 -0.1933
    1SAPS  H17X  128   2.828   3.476   8.703 -2.3668 -1.0117 -2.3010
    1SAPS  H17Y  129   2.716   3.384   8.790  0.1701  1.5291 -1.3683
    1SAPS  C318  130   2.878   3.266   8.699  0.2267  0.2084 -0.3373
    1SAPS  H18X  131   2.798   3.232   8.630 -0.3752  2.0531 -0.5648
    1SAPS  H18Y  132   2.899   3.180   8.767  0.2791 -0.1832 -0.8463
    1SAPS  H18Z  133   2.969   3.297   8.643  2.2781 -1.8228  1.7727
    2SAPS     N  134   0.609   3.858  10.847  0.0111 -0.2392 -0.2297
    2SAPS   HN1  135   0.683   3.894  10.909 -0.3245  0.0174  0.0209
    2SAPS   HN2  136   0.524   3.911  10.877  0.8450  0.7528  0.3875
    2SAPS   HN3  137   0.608   3.755  10.860  2.5087 -0.4108 -1.1951
    2SAPS   C12  138   0.641   3.881  10.702  0.1078  0.5409 -0.0806
    2SAPS  H12A  139   0.743   3.852  10.684 -0.0160  0.1364 -0.1462
    2SAPS   C13  140   0.545   3.818  10.606 -0.5200  0.4846  0.7049
    2SAPS  O13A  141   0.426   3.789  10.635  0.1887  0.2521  0.1144
    2SAPS  O13B  142   0.573   3.837  10.478  0.5847  0.0753 -0.0522
    2SAPS   C11  143   0.663   4.035  10.679  0.4700  0.8646  0.5928
    2SAPS  H11A  144   0.567   4.089  10.665 -0.6778 -0.7896  1.8776
    2SAPS  H11B  145   0.722   4.054  10.587  2.7517  2.6553  2.3418
    2SAPS     P  146   0.759   4.256  10.787  0.1289 -0.4170  0.0355
    2SAPS   O13  147   0.642   4.323  10.718 -0.2993  0.0174  0.1307
    2SAPS   O14  148   0.779   4.294  10.929  0.4990 -0.4182  0.2278
    2SAPS   O12  149   0.738   4.096  10.789  0.1491 -0.3374 -0.3807
    2SAPS   O11  150   0.890   4.286  10.701 -0.3406  0.4579  0.4428
    2SAPS    C1  151   0.984   4.179  10.678  0.3966 -0.3127  0.5010
    2SAPS    HA  152   1.025   4.149  10.777 -0.9015 -0.7983  0.9078
    2SAPS    HB  153   0.928   4.093  10.637  1.2434 -0.0953 -1.1355
    2SAPS    C2  154   1.097   4.217  10.574  0.2609  0.7423 -1.0734
    2SAPS    HS  155   1.175   4.274  10.629 -0.6909 -0.0431  1.1542
    2SAPS   O21  156   1.045   4.309  10.477 -0.0504 -0.5168 -0.1359
    2SAPS   C21  157   1.139   4.379  10.413 -0.3951 -0.0057  0.8444
    2SAPS   O22  158   1.258   4.370  10.434 -0.4366  0.2404 -0.0446
    2SAPS   C22  159   1.079   4.476  10.325  0.5357 -0.3082  0.3127
    2SAPS   H2R  160   0.996   4.426  10.271  1.0060 -0.5745 -0.1648
    2SAPS   H2S  161   1.031   4.555  10.387  1.1494  2.4580 -2.6008
    2SAPS    C3  162   1.161   4.085  10.518 -0.6990 -0.4863 -0.0772
    2SAPS    HX  163   1.203   4.017  10.595  2.9293  0.6740 -0.9478
    2SAPS    HY  164   1.249   4.102  10.453 -2.2841 -0.2685 -2.2334
    2SAPS   O31  165   1.049   4.016  10.451 -0.1166  0.2093 -0.0964
    2SAPS   C31  166   1.031   4.053  10.330  0.3626 -0.1603  0.5235
    2SAPS   O32  167   1.088   4.140  10.262  0.1687  0.3913  0.0888
    2SAPS   C32  168   0.914   3.963  10.276  0.2051 -0.2266 -0.2746
    2SAPS   H2X  169   0.825   3.979  10.341 -0.1780 -1.6109 -0.4350
    2SAPS   H2Y  170   0.962   3.863  10.284  2.2304  0.8993  2.1472
    2SAPS   C23  171   1.173   4.539  10.209  0.6982 -0.1051  0.3619
    2SAPS   H3R  172   1.252   4.606  10.250 -0.4591  2.9854 -2.3148
    2SAPS   H3S  173   1.112   4.616  10.158  0.8600  0.5004  1.0745
    2SAPS   C24  174   1.216   4.437  10.099  0.1971 -0.2226  0.1594
    2SAPS   H4R  175   1.280   4.358  10.144 -0.5109  0.0091  1.5960
    2SAPS   H4S  176   1.285   4.498  10.035 -1.6997  1.6163 -0.1875
    2SAPS   C25  177   1.113   4.365  10.015  0.8031  0.4262 -0.6614
    2SAPS   H5R  178   1.043   4.304  10.075 -0.5093  2.8994  0.4216
    2SAPS   C26  179   1.104   4.363   9.884  1.0301 -0.6202 -0.0056
    2SAPS   H6R  180   1.019   4.306   9.844 -0.1875  0.7032  0.6130
    2SAPS   C27  181   1.202   4.447   9.807  0.9970  0.3456  0.2478
    2SAPS   H7R  182   1.307   4.413   9.816  0.7987 -0.2739  0.2602
    2SAPS   H7S  183   1.203   4.549   9.849  5.3060  1.2876 -1.8294
    2SAPS   C28  184   1.148   4.465   9.667 -0.8991 -0.5465  0.6498
    2SAPS   H8R  185   1.056   4.525   9.670  0.4523  1.9596 -3.2272
    2SAPS   C29  186   1.210   4.436   9.548  0.0525 -0.9494 -0.4199
    2SAPS   H9R  187   1.166   4.463   9.451 -0.7029 -0.6448  0.0072
    2SAPS  C210  188   1.341   4.373   9.525 -0.1830  1.0480  0.5938
    2SAPS  H10R  189   1.324   4.267   9.494 -1.2260  1.1213  0.8946
    2SAPS  H10S  190   1.396   4.348   9.619 -0.6829  0.0008  0.6158
    2SAPS  C211  191   1.439   4.438   9.436 -0.3713 -0.2877  0.4574
    2SAPS  H11R  192   1.515   4.501   9.484 -2.2692  1.3667  1.3927
    2SAPS  C212  193   1.450   4.434   9.306 -0.3963 -0.2741 -0.0551
    2SAPS  H12R  194   1.537   4.487   9.263  0.3226 -1.3977  0.0201
    2SAPS  C213  195   1.363   4.351   9.209  0.6309 -0.2394  0.4771
    2SAPS  H13R  196   1.266   4.323   9.254  1.1393 -1.2209  0.9711
    2SAPS  H13S  197   1.405   4.251   9.186  0.8636  0.0412 -0.3361
    2SAPS  C214  198   1.344   4.442   9.082  0.4267  0.1767 -0.4322
    2SAPS  H14R  199   1.297   4.540   9.100 -0.3727 -0.0863 -1.0748
    2SAPS  C215  200   1.392   4.410   8.957 -0.0812 -0.2414 -0.2004
    2SAPS  H15R  201   1.396   4.488   8.879  1.2470  0.4498  0.5422
    2SAPS  C216  202   1.463   4.285   8.907  0.2742  0.1502  0.3456
    2SAPS  H16R  203   1.387   4.219   8.862  0.8862  0.8255 -1.7339
    2SAPS  H16S  204   1.486   4.229   9.000  0.6648  0.3419  0.3650
    2SAPS  C217  205   1.588   4.312   8.815  0.4400 -0.7088 -0.3918
    2SAPS  H17R  206   1.632   4.211   8.797 -0.0699 -1.3218  1.6431
    2SAPS  H17S  207   1.664   4.380   8.859  0.3569 -0.7091 -0.2487
    2SAPS  C218  208   1.540   4.351   8.676 -0.9539 -0.1324  0.3564
    2SAPS  H18R  209   1.484   4.447   8.668  0.5175  0.5746 -2.0355
    2SAPS  H18S  210   1.461   4.281   8.643 -1.1540  0.8625 -1.3633
    2SAPS  C219  211   1.666   4.366   8.590 -0.7837 -0.7762 -0.9371
    2SAPS  H19R  212   1.717   4.268   8.585  3.3187  1.2608 -1.0934
    2SAPS  H19S  213   1.735   4.436   8.641 -2.0577 -1.2157  1.4763
    2SAPS  C220  214   1.622   4.405   8.447 -0.0496 -0.5168 -0.0852
    2SAPS  H20R  215   1.560   4.320   8.409 -0.7547 -0.6170  1.2547
    2SAPS  H20S  216   1.712   4.408   8.383  0.6364 -1.4861  0.8142
    2SAPS  H20T  217   1.563   4.499   8.448 -1.0294 -1.1325  1.3534
    2SAPS   C33  218   0.881   3.997  10.126 -0.0606 -0.4885  0.8544
    2SAPS   H3X  219   0.886   4.108  10.116 -2.2760 -0.3763  0.7302
    2SAPS   H3Y  220   0.780   3.966  10.092 -1.7645  1.2620  4.0972
    2SAPS   C34  221   0.982   3.919  10.027  1.2949 -0.2619 -0.2067
    2SAPS   H4X  222   0.956   3.812  10.044  2.0263 -0.5888 -1.0949
    2SAPS   H4Y  223   1.086   3.930  10.064  2.1501  2.1044 -3.1869
    2SAPS   C35  224   0.959   3.966   9.889 -0.3785  0.0557  0.3970
    2SAPS   H5X  225   0.928   4.073   9.894 -1.9031 -0.3284 -0.7606
    2SAPS   H5Y  226   0.871   3.912   9.848 -1.6177  1.3139  1.3633
    2SAPS   C36  227   1.085   3.944   9.800 -0.7494 -0.2283  0.2071
    2SAPS   H6X  228   1.125   3.843   9.820  0.7415 -0.0234 -1.6079
    2SAPS   H6Y  229   1.170   4.011   9.827 -1.5163  0.5655  0.6724
    2SAPS   C37  230   1.061   3.955   9.647 -0.3119  0.2135  0.2752
    2SAPS   H7X  231   1.035   4.061   9.627  1.6914  0.6148 -0.2975
    2SAPS   H7Y  232   0.968   3.895   9.630 -1.4233  1.9994 -0.0807
    2SAPS   C38  233   1.187   3.910   9.554 -0.5126 -0.1420 -0.4738
    2SAPS   H8X  234   1.211   3.803   9.569 -0.4004 -0.0022  0.3570
    2SAPS   H8Y  235   1.272   3.978   9.579 -0.8661  0.0754  0.1520
    2SAPS   C39  236   1.150   3.938   9.401 -0.3096  0.0399  0.1965
    2SAPS   H9X  237   1.104   4.039   9.393 -0.5654  0.2714  3.7703
    2SAPS   H9Y  238   1.066   3.874   9.368  0.6717 -1.6369  0.8932
    2SAPS  C310  239   1.270   3.927   9.306 -0.0542 -0.1003 -0.6168
    2SAPS  H10X  240   1.323   3.833   9.334 -1.3170 -0.8406 -0.6681
    2SAPS  H10Y  241   1.343   4.010   9.315 -0.8369  0.4624  0.7186
    2SAPS  C311  242   1.227   3.926   9.155 -0.8524  0.5607  0.4011
    2SAPS  H11X  243   1.165   4.016   9.136  0.0784  1.1714  0.2000
    2SAPS  H11Y  244   1.167   3.836   9.131  0.7309 -0.2805 -0.5113
    2SAPS  C312  245   1.359   3.932   9.074  0.2769 -0.4716  0.7971
    2SAPS  H12X  246   1.423   3.844   9.094  1.5643  0.1978 -0.2730
    2SAPS  H12Y  247   1.408   4.028   9.100 -0.8464  0.1323  0.7410
    2SAPS  C313  248   1.339   3.935   8.924  0.2640 -0.0648  0.1714
    2SAPS  H13X  249   1.272   4.023   8.909  0.0118 -0.2648  0.1234
    2SAPS  H13Y  250   1.272   3.850   8.902 -2.3515  1.9630  0.1004
    2SAPS  C314  251   1.456   3.942   8.825  0.2025 -0.1835 -1.3477
    2SAPS  H14X  252   1.531   3.865   8.850  0.0608  0.7574  2.3230
    2SAPS  H14Y  253   1.515   4.033   8.851  0.4486 -0.2060 -1.8358
    2SAPS  C315  254   1.406   3.934   8.677 -0.4181  0.1299 -0.1367
    2SAPS  H15X  255   1.316   3.995   8.655 -0.1498  0.9991  1.1069
    2SAPS  H15Y  256   1.386   3.825   8.666 -0.6345  0.1232  0.3328
    2SAPS  C316  257   1.517   3.976   8.571  0.5498  0.4093  0.0947
    2SAPS  H16X  258   1.586   4.039   8.631  1.7130  0.1855 -1.0036
    2SAPS  H16Y  259   1.472   4.036   8.489  1.5621  0.7401 -0.2219
    2SAPS  C317  260   1.594   3.858   8.521 -0.0969 -0.0541 -0.1385
    2SAPS  H17X  261   1.520   3.782   8.489  0.5613 -0.7847  0.0521
    2SAPS  H17Y  262   1.655   3.816   8.605 -1.1154 -0.2372  0.5137
    2SAPS  C318  263   1.685   3.880   8.406  0.4721  0.2799 -0.2535
    2SAPS  H18X  264   1.634   3.914   8.313 -0.1560 -1.8841 -0.7136
    2SAPS  H18Y  265   1.738   3.785   8.383  0.5667  0.4253 -0.6445
    2SAPS  H18Z  266   1.770   3.946   8.432  1.3395 -0.3022 -1.5766
    3SAPS     N  267   2.307   5.889  10.602 -0.5201 -0.5840  0.1803
    3SAPS   HN1  268   2.307   5.830  10.517 -0.4852  2.2779 -1.8812
    3SAPS   HN2  269   2.271   5.986  10.588  0.6898 -0.1373  0.0908
    3SAPS   HN3  270   2.407   5.899  10.628 -1.0419  0.9723  1.6858
    3SAPS   C12  271   2.224   5.835  10.715 -0.0034 -0.6591 -0.0184
    3SAPS  H12A  272   2.122   5.813  10.684 -0.6323  2.3838 -0.2022
    3SAPS   C13  273   2.271   5.701  10.775 -0.9414  0.6192  0.4808
    3SAPS  O13A  274   2.382   5.652  10.751 -0.2247 -0.9863  0.1183
    3SAPS  O13B  275   2.183   5.644  10.847  0.0653  0.8684  0.0404
    3SAPS   C11  276   2.223   5.946  10.829 -0.4331 -0.1501  0.4546
    3SAPS  H11A  277   2.331   5.958  10.854 -0.8413  0.8456  1.8013
    3SAPS  H11B  278   2.201   5.909  10.932  0.2347  1.8219  1.3321
    3SAPS     P  279   2.052   6.138  10.885 -0.2420 -0.2867  0.4343
    3SAPS   O13  280   2.084   6.133  11.033 -0.0516  0.3946  0.4559
    3SAPS   O14  281   2.016   6.275  10.832 -0.0166  0.6511  0.1887
    3SAPS   O12  282   2.175   6.075  10.805  0.3382 -0.2589 -0.3856
    3SAPS   O11  283   1.936   6.036  10.844  0.0342 -0.0350 -0.7896
    3SAPS    C1  284   1.814   6.103  10.829 -0.0040  0.0300 -0.2610
    3SAPS    HA  285   1.786   6.187  10.897 -0.1221  0.2704 -0.6030
    3SAPS    HB  286   1.807   6.148  10.727  0.0835  2.1983  0.6515
    3SAPS    C2  287   1.713   5.991  10.837 -0.5477  0.1589  0.5789
    3SAPS    HS  288   1.746   5.922  10.917 -3.4888  1.1631  2.7515
    3SAPS   O21  289   1.702   5.923  10.713  0.5086 -0.4287 -0.0849
    3SAPS   C21  290   1.780   5.819  10.687  0.1778 -0.8148  0.1872
    3SAPS   O22  291   1.853   5.760  10.766 -0.3929 -0.4775 -0.2370
    3SAPS   C22  292   1.761   5.774  10.543 -0.3916  0.0035 -0.6984
    3SAPS   H2R  293   1.722   5.672  10.560  0.1253  0.2755  2.4346
    3SAPS   H2S  294   1.680   5.834  10.496 -0.9679  0.0797  0.3804
    3SAPS    C3  295   1.575   6.047  10.875  0.3764  0.8315 -0.0252
    3SAPS    HX  296   1.571   6.148  10.829  1.7429  1.6909  1.6687
    3SAPS    HY  297   1.573   6.065  10.985  0.4562  0.9701 -0.0473
    3SAPS   O31  298   1.453   5.970  10.836  0.1253 -0.1250 -0.2338
    3SAPS   C31  299   1.428   5.865  10.917 -0.3768  0.1702  0.9445
    3SAPS   O32  300   1.488   5.838  11.018  0.2163  0.0700 -0.3417
    3SAPS   C32  301   1.305   5.781  10.873  0.2792 -0.0474 -0.0648
    3SAPS   H2X  302   1.228   5.852  10.835  0.8628 -0.1234 -1.4395
    3SAPS   H2Y  303   1.266   5.738  10.967 -1.2539  0.0479 -0.6481
    3SAPS   C23  304   1.900   5.766  10.467  0.6636 -0.6424  0.4333
    3SAPS   H3R  305   1.880   5.734  10.362 -0.6797 -0.4558  0.6227
    3SAPS   H3S  306   1.966   5.692  10.517  2.0878 -1.5012 -2.5948
    3SAPS   C24  307   1.968   5.900  10.453  0.9220 -0.2516  0.3550
    3SAPS   H4R  308   2.061   5.884  10.394 -1.0468 -0.8189 -2.7028
    3SAPS   H4S  309   2.003   5.931  10.554  3.5027 -0.2483 -0.4779
    3SAPS   C25  310   1.869   5.986  10.385 -0.9960 -0.4613  0.2013
    3SAPS   H5R  311   1.791   6.026  10.452 -1.2957 -0.7283  0.0143
    3SAPS   C26  312   1.864   6.017  10.251  0.9882 -0.6965  0.3125
    3SAPS   H6R  313   1.778   6.077  10.219  0.1390 -0.2937  3.2559
    3SAPS   C27  314   1.954   5.983  10.135  0.6298 -0.0542  0.2291
    3SAPS   H7R  315   1.903   5.894  10.092  0.7824 -0.0783  0.1002
    3SAPS   H7S  316   2.057   5.963  10.170  1.2483  2.4200 -0.0391
    3SAPS   C28  317   1.952   6.088  10.025  0.2374 -0.7309  0.1745
    3SAPS   H8R  318   1.957   6.192  10.061 -3.3083 -0.3240 -0.2920
    3SAPS   C29  319   1.927   6.058   9.900  0.7645  0.0469  0.3561
    3SAPS   H9R  320   1.909   6.137   9.825 -0.6729 -0.9195 -0.3415
    3SAPS  C210  321   1.919   5.921   9.834  0.7656  0.4766 -0.0498
    3SAPS  H10R  322   1.907   5.839   9.908 -2.0605 -0.0783 -1.0494
    3SAPS  H10S  323   2.010   5.899   9.774  0.9147 -0.5664  0.5417
    3SAPS  C211  324   1.808   5.920   9.735  0.3508  0.1786 -0.0099
    3SAPS  H11R  325   1.709   5.916   9.782 -0.4383 -0.5429 -1.6992
    3SAPS  C212  326   1.822   5.924   9.602 -0.4252  0.2308  0.6667
    3SAPS  H12R  327   1.733   5.910   9.539  1.1341  0.1324 -1.6195
    3SAPS  C213  328   1.954   5.924   9.516  0.3027 -0.2878  0.2008
    3SAPS  H13R  329   2.034   5.965   9.581 -0.0918  0.5475  0.1692
    3SAPS  H13S  330   1.943   6.001   9.436 -1.1627 -2.1626 -1.4701
    3SAPS  C214  331   2.005   5.790   9.458  1.0167 -0.2332 -0.5561
    3SAPS  H14R  332   2.067   5.732   9.527  1.5409  1.1985  0.2039
    3SAPS  C215  333   1.963   5.739   9.341 -0.2032  0.4750 -0.0098
    3SAPS  H15R  334   1.999   5.639   9.312  2.0932  0.8913  1.2743
    3SAPS  C216  335   1.883   5.814   9.241  0.2959  0.4873  0.5151
    3SAPS  H16R  336   1.830   5.904   9.277 -0.5085  0.0904  0.3373
    3SAPS  H16S  337   1.803   5.743   9.208 -0.7588  1.7800  0.2494
    3SAPS  C217  338   1.955   5.854   9.113  0.5522 -0.1085 -0.2566
    3SAPS  H17R  339   2.039   5.926   9.126  0.4860 -0.3360  1.7081
    3SAPS  H17S  340   1.880   5.908   9.051  0.2400 -0.0359  0.1814
    3SAPS  C218  341   2.012   5.742   9.028 -0.2449 -0.0526 -0.3956
    3SAPS  H18R  342   1.940   5.665   8.992  0.1219  0.3303 -2.0245
    3SAPS  H18S  343   2.099   5.696   9.080 -0.0783  0.6587 -0.0398
    3SAPS  C219  344   2.063   5.806   8.893 -0.8868 -0.0208 -0.0665
    3SAPS  H19R  345   2.140   5.884   8.908  0.0346 -1.1442  1.1714
    3SAPS  H19S  346   1.982   5.864   8.844  1.2192  3.7382  0.6977
    3SAPS  C220  347   2.124   5.706   8.798 -0.2562 -0.6059 -0.3606
    3SAPS  H20R  348   2.214   5.652   8.836  0.7054  1.0972 -0.1764
    3SAPS  H20S  349   2.142   5.756   8.700  0.5718 -2.1220 -1.0064
    3SAPS  H20T  350   2.061   5.616   8.783 -0.5361 -0.6316  0.8992
    3SAPS   C33  351   1.335   5.674  10.763  0.2387 -0.3784  0.0623
    3SAPS   H3X  352   1.244   5.614  10.743  0.0657 -0.6072  1.4474
    3SAPS   H3Y  353   1.416   5.608  10.800  0.9435 -0.2424 -1.2206
    3SAPS   C34  354   1.365   5.746  10.628  0.7394 -0.4977  0.2333
    3SAPS   H4X  355   1.468   5.789  10.631  1.0108 -1.2586  3.3276
    3SAPS   H4Y  356   1.293   5.827  10.603 -1.1066 -1.1693  3.1443
    3SAPS   C35  357   1.364   5.648  10.512  0.7327 -0.3899 -0.3544
    3SAPS   H5X  358   1.258   5.615  10.508  0.8511 -0.7297 -0.7636
    3SAPS   H5Y  359   1.429   5.558  10.516 -1.6643 -2.1251  1.0279
    3SAPS   C36  360   1.391   5.724  10.375  0.0796  0.3846 -0.4733
    3SAPS   H6X  361   1.490   5.776  10.382 -0.4238  1.5124 -1.5147
    3SAPS   H6Y  362   1.313   5.801  10.358 -1.1899 -0.7584  0.1266
    3SAPS   C37  363   1.394   5.632  10.256 -0.4622 -0.0981 -0.0921
    3SAPS   H7X  364   1.288   5.596  10.263 -1.4484  3.0098  1.7994
    3SAPS   H7Y  365   1.455   5.540  10.267 -0.9444 -0.1382  2.5255
    3SAPS   C38  366   1.425   5.699  10.122  0.0965 -0.6110 -0.1076
    3SAPS   H8X  367   1.521   5.755  10.114  0.9183 -1.7239  1.6600
    3SAPS   H8Y  368   1.351   5.782  10.115  0.0256 -0.5461  1.3752
    3SAPS   C39  369   1.419   5.602  10.004  0.1050  0.0615  0.8002
    3SAPS   H9X  370   1.313   5.578   9.977 -0.2591  0.0611  2.1898
    3SAPS   H9Y  371   1.469   5.506  10.031  3.9142  1.4619 -0.9400
    3SAPS  C310  372   1.502   5.663   9.889  0.8428  0.4012 -1.3104
    3SAPS  H10X  373   1.611   5.651   9.909  0.3423 -2.5101  0.0290
    3SAPS  H10Y  374   1.477   5.771   9.892  0.4156  0.2936 -0.9559
    3SAPS  C311  375   1.461   5.593   9.756  0.2234  0.7298  0.3642
    3SAPS  H11X  376   1.351   5.580   9.762  0.1505  1.5933  1.0532
    3SAPS  H11Y  377   1.502   5.490   9.758  0.8441  0.8918 -2.6542
    3SAPS  C312  378   1.500   5.675   9.631 -0.0808  0.6512 -0.2545
    3SAPS  H12X  379   1.604   5.716   9.629 -0.2477  1.1048  0.2430
    3SAPS  H12Y  380   1.427   5.758   9.626  0.1118  0.9252  1.2351
    3SAPS  C313  381   1.469   5.583   9.507 -0.2779 -0.0034  0.2329
    3SAPS  H13X  382   1.367   5.541   9.508 -0.7159  1.0285  2.7075
    3SAPS  H13Y  383   1.550   5.506   9.506 -0.3040 -0.0183 -0.6165
    3SAPS  C314  384   1.495   5.656   9.374 -0.0509 -0.6492  0.2620
    3SAPS  H14X  385   1.606   5.664   9.375 -0.0051 -0.7818 -1.6185
    3SAPS  H14Y  386   1.439   5.752   9.376 -2.8479 -2.2218 -0.0350
    3SAPS  C315  387   1.460   5.579   9.249 -0.0286  0.5406  0.3411
    3SAPS  H15X  388   1.350   5.568   9.251 -0.2407  0.0942 -5.0981
    3SAPS  H15Y  389   1.517   5.483   9.243 -1.4508 -0.2898 -0.2581
    3SAPS  C316  390   1.506   5.651   9.117  1.0034 -0.3244 -0.5759
    3SAPS  H16X  391   1.573   5.737   9.140  2.1818 -1.0675 -1.1176
    3SAPS  H16Y  392   1.413   5.700   9.083  0.3802 -0.8309  0.4069
    3SAPS  C317  393   1.569   5.561   9.015 -0.0123  0.4499  0.0020
    3SAPS  H17X  394   1.507   5.475   8.980  1.3417 -0.4900 -0.1104
    3SAPS  H17Y  395   1.657   5.526   9.072 -0.3281 -1.0931 -0.4174
    3SAPS  C318  396   1.628   5.639   8.897  1.0809 -0.6414 -0.5093
    3SAPS  H18X  397   1.548   5.674   8.829  0.6235 -0.7212 -0.0215
    3SAPS  H18Y  398   1.705   5.575   8.849  2.7971 -0.0705  1.4014
    3SAPS  H18Z  399   1.684   5.724   8.941 -0.1502  0.1596 -0.4711
    4SAPS     N  400   3.632   6.381  10.886  0.3377  0.2660 -0.1830
    4SAPS   HN1  401   3.680   6.297  10.848  0.1333  0.1766 -0.2406
    4SAPS   HN2  402   3.551   6.340  10.937  2.2191 -1.6400  1.3456
    4SAPS   HN3  403   3.604   6.442  10.807  1.4550  1.4761  0.3412
    4SAPS   C12  404   3.714   6.459  10.986 -0.2124 -0.0081  0.3963
    4SAPS  H12A  405   3.654   6.537  11.033  1.0696  0.4582  1.2933
    4SAPS   C13  406   3.753   6.374  11.105 -0.1697 -0.0258 -0.6021
    4SAPS  O13A  407   3.729   6.251  11.103  0.1173 -0.3482  0.4629
    4SAPS  O13B  408   3.803   6.426  11.207 -0.7143  0.0470  0.8047
    4SAPS   C11  409   3.836   6.527  10.920 -0.1787 -0.3133  0.8993
    4SAPS  H11A  410   3.901   6.443  10.886 -1.5470 -1.2834  0.6655
    4SAPS  H11B  411   3.882   6.580  11.006  1.0904  0.0023  0.0501
    4SAPS     P  412   3.774   6.760  10.821  0.3225  0.0634 -0.0779
    4SAPS   O13  413   3.632   6.753  10.867 -0.3411  0.1253 -0.1077
    4SAPS   O14  414   3.868   6.820  10.919 -0.3752 -0.4268  0.5854
    4SAPS   O12  415   3.822   6.611  10.805  0.4967  0.3223  0.0829
    4SAPS   O11  416   3.795   6.821  10.679 -0.4685 -0.0271  0.0046
    4SAPS    C1  417   3.919   6.818  10.607  0.5245  0.6544  0.7625
    4SAPS    HA  418   3.928   6.913  10.551 -0.0987 -0.2825 -0.9664
    4SAPS    HB  419   3.998   6.814  10.684  2.3947  3.4760 -0.9381
    4SAPS    C2  420   3.918   6.696  10.512 -0.8183 -0.8384  0.0971
    4SAPS    HS  421   3.920   6.607  10.578  2.6577 -1.3315 -0.5625
    4SAPS   O21  422   4.036   6.696  10.427  0.8906  0.0247 -0.3532
    4SAPS   C21  423   4.069   6.586  10.357 -0.2145 -0.1490 -0.0410
    4SAPS   O22  424   4.005   6.481  10.361  0.1603  0.5288  0.3453
    4SAPS   C22  425   4.201   6.609  10.284 -0.0623  0.0836  0.4795
    4SAPS   H2R  426   4.269   6.660  10.356 -1.1455 -0.3754  1.8368
    4SAPS   H2S  427   4.250   6.514  10.256  0.2204  0.7526 -1.4292
    4SAPS    C3  428   3.792   6.692  10.426 -0.2770 -0.3511 -0.2859
    4SAPS    HX  429   3.712   6.660  10.495 -0.7199 -0.2031 -0.7227
    4SAPS    HY  430   3.792   6.619  10.342  0.6848  1.6590 -2.1129
    4SAPS   O31  431   3.766   6.832  10.380 -0.4390  0.5321  0.2737
    4SAPS   C31  432   3.816   6.860  10.264  0.6577 -0.5879 -0.5588
    4SAPS   O32  433   3.872   6.785  10.193 -0.2390  0.4034  0.6033
    4SAPS   C32  434   3.778   6.999  10.230  0.3905 -0.3472 -0.3749
    4SAPS   H2X  435   3.852   7.060  10.286 -1.3712  1.6873 -0.2333
    4SAPS   H2Y  436   3.678   7.018  10.273 -0.4865 -2.3575 -1.4245
    4SAPS   C23  437   4.193   6.695  10.157  0.1367  0.7678  0.1553
    4SAPS   H3R  438   4.158   6.796  10.187  0.9444  0.7371  1.2359
    4SAPS   H3S  439   4.125   6.644  10.085  2.5475 -0.1850 -1.4832
    4SAPS   C24  440   4.331   6.703  10.085  0.4951  0.0351  0.0911
    4SAPS   H4R  441   4.375   6.603  10.066  2.1313 -0.0894  4.1717
    4SAPS   H4S  442   4.399   6.756  10.155 -0.4147  0.1507  0.8952
    4SAPS   C25  443   4.315   6.780   9.957 -0.6772 -0.4622 -0.8269
    4SAPS   H5R  444   4.267   6.877   9.976 -2.0966 -0.9032 -2.0509
    4SAPS   C26  445   4.347   6.736   9.834  0.3865 -0.1264  0.1751
    4SAPS   H6R  446   4.341   6.807   9.751  1.1778  0.4860  0.6321
    4SAPS   C27  447   4.406   6.603   9.797 -0.2521  0.2606  0.4320
    4SAPS   H7R  448   4.486   6.571   9.868 -0.2311  0.5774  0.5505
    4SAPS   H7S  449   4.463   6.613   9.702 -1.0909 -2.0943 -0.3649
    4SAPS   C28  450   4.302   6.491   9.775  0.1105  0.6099 -0.6637
    4SAPS   H8R  451   4.242   6.456   9.860  0.6705 -0.7590 -0.8195
    4SAPS   C29  452   4.271   6.425   9.661 -0.2264 -0.1283 -0.3014
    4SAPS   H9R  453   4.206   6.337   9.657 -0.0145 -0.4157  2.0673
    4SAPS  C210  454   4.322   6.444   9.522 -0.3699  0.2884 -0.2247
    4SAPS  H10R  455   4.375   6.541   9.511  0.0017  0.0623 -0.4216
    4SAPS  H10S  456   4.238   6.471   9.454  1.0361  1.6024 -1.4523
    4SAPS  C211  457   4.407   6.332   9.475 -1.2180 -0.2035 -0.8881
    4SAPS  H11R  458   4.448   6.269   9.556  0.4347  1.1491 -0.6572
    4SAPS  C212  459   4.432   6.301   9.351 -0.7455  0.2550 -0.0106
    4SAPS  H12R  460   4.496   6.212   9.350  0.0744  0.8553 -0.9983
    4SAPS  C213  461   4.383   6.351   9.216  0.8752 -0.2105  0.3249
    4SAPS  H13R  462   4.273   6.369   9.212  1.2100  1.3478 -3.1706
    4SAPS  H13S  463   4.392   6.264   9.148 -1.2068 -0.8214  0.7864
    4SAPS  C214  464   4.445   6.470   9.141 -0.7073  0.1103  0.7857
    4SAPS  H14R  465   4.462   6.549   9.216  0.4200  2.6503 -2.0724
    4SAPS  C215  466   4.488   6.476   9.017 -0.3730 -0.4697  0.2641
    4SAPS  H15R  467   4.542   6.563   8.978  0.8343 -0.6833  1.4178
    4SAPS  C216  468   4.465   6.366   8.921 -0.0905  0.4545  0.4031
    4SAPS  H16R  469   4.362   6.327   8.927 -0.0019  0.3666  1.3211
    4SAPS  H16S  470   4.531   6.277   8.932  0.9693  1.0346 -1.0311
    4SAPS  C217  471   4.477   6.406   8.777  0.5078  0.3624  0.0510
    4SAPS  H17R  472   4.570   6.465   8.762  0.4742  0.2069 -0.8248
    4SAPS  H17S  473   4.404   6.484   8.746 -0.2612 -0.4749 -0.2782
    4SAPS  C218  474   4.493   6.286   8.685 -0.4531  1.1768  0.8240
    4SAPS  H18R  475   4.413   6.211   8.703 -0.7000  1.2991  0.2571
    4SAPS  H18S  476   4.594   6.243   8.703 -0.0607  2.3686  1.5505
    4SAPS  C219  477   4.490   6.323   8.536 -0.0075  0.3329  0.5205
    4SAPS  H19R  478   4.577   6.388   8.509 -0.7605  0.3642 -1.9240
    4SAPS  H19S  479   4.396   6.381   8.524 -0.4483 -0.1150  1.7727
    4SAPS  C220  480   4.479   6.200   8.443  0.1269  0.3178  0.2700
    4SAPS  H20R  481   4.477   6.225   8.335 -3.1179  1.2838  0.5154
    4SAPS  H20S  482   4.385   6.148   8.471  0.6907 -0.8066  0.1121
    4SAPS  H20T  483   4.564   6.128   8.452 -0.6469 -0.8106 -1.2613
    4SAPS   C33  484   3.788   7.030  10.079  0.1694 -0.6551  0.3309
    4SAPS   H3X  485   3.735   6.950  10.022 -1.0897  0.8030 -0.5893
    4SAPS   H3Y  486   3.893   7.058  10.058 -0.3177  3.2815  2.5866
    4SAPS   C34  487   3.713   7.160  10.044 -0.4477 -0.5640  0.5348
    4SAPS   H4X  488   3.744   7.254  10.093 -0.6195  0.4325 -1.2258
    4SAPS   H4Y  489   3.606   7.146  10.071 -0.7010  2.1611  1.0652
    4SAPS   C35  490   3.708   7.194   9.900 -0.8986  0.3325 -0.2213
    4SAPS   H5X  491   3.696   7.106   9.833 -0.9408  1.3946 -1.6179
    4SAPS   H5Y  492   3.804   7.246   9.879 -1.3160  0.7216 -1.1895
    4SAPS   C36  493   3.606   7.294   9.862  0.5287  0.4029  0.3508
    4SAPS   H6X  494   3.639   7.387   9.913  2.3628 -0.3046  0.4687
    4SAPS   H6Y  495   3.511   7.258   9.909  0.0020  0.6219 -0.5363
    4SAPS   C37  496   3.616   7.321   9.713 -0.4358 -0.4521  0.7166
    4SAPS   H7X  497   3.583   7.232   9.656 -0.3166 -0.3442  0.4770
    4SAPS   H7Y  498   3.722   7.338   9.686 -1.4477  0.6012 -2.8480
    4SAPS   C38  499   3.535   7.442   9.672 -0.3792 -0.0833  0.1824
    4SAPS   H8X  500   3.533   7.525   9.746  2.1774 -0.6697  0.9849
    4SAPS   H8Y  501   3.430   7.406   9.675 -0.0132 -1.4103 -1.7363
    4SAPS   C39  502   3.564   7.488   9.526 -0.0237  0.3737 -0.7070
    4SAPS   H9X  503   3.663   7.537   9.513  0.6056 -0.5534  0.5022
    4SAPS   H9Y  504   3.498   7.572   9.498  1.8060  1.6490 -1.3484
    4SAPS  C310  505   3.563   7.379   9.417  0.4799 -0.0769  0.7237
    4SAPS  H10X  506   3.476   7.313   9.436  1.2193 -1.0129  0.8913
    4SAPS  H10Y  507   3.648   7.311   9.441  1.3384 -0.0403 -1.9656
    4SAPS  C311  508   3.558   7.435   9.272 -0.5411 -0.7010 -0.2559
    4SAPS  H11X  509   3.620   7.527   9.261 -1.6291 -0.0967 -1.4437
    4SAPS  H11Y  510   3.455   7.470   9.250  0.1677  1.2963 -0.4769
    4SAPS  C312  511   3.585   7.337   9.162  0.4366 -0.2368 -0.2303
    4SAPS  H12X  512   3.492   7.277   9.151 -1.1741  1.7854  1.9759
    4SAPS  H12Y  513   3.670   7.268   9.182 -1.9853 -4.2104 -2.9660
    4SAPS  C313  514   3.609   7.406   9.021 -0.3854  0.2801 -0.1406
    4SAPS  H13X  515   3.641   7.325   8.952  1.6075  1.6718 -0.8792
    4SAPS  H13Y  516   3.693   7.476   9.033 -1.6749  2.1679 -1.8416
    4SAPS  C314  517   3.502   7.495   8.973  0.0216  0.3783  0.0898
    4SAPS  H14X  518   3.499   7.573   9.052  0.5942 -0.7048  1.2094
    4SAPS  H14Y  519   3.409   7.434   8.983  0.0884  0.5211  1.7609
    4SAPS  C315  520   3.515   7.552   8.831 -0.1776 -0.0745 -0.3095
    4SAPS  H15X  521   3.600   7.624   8.837  1.9206 -2.4844 -0.3762
    4SAPS  H15Y  522   3.425   7.618   8.824 -0.8036 -0.7859  0.8611
    4SAPS  C316  523   3.536   7.448   8.723 -0.7097 -1.3620  1.2971
    4SAPS  H16X  524   3.623   7.384   8.748  2.4767  2.1022 -0.3775
    4SAPS  H16Y  525   3.571   7.509   8.637  0.6392 -0.9389  2.1361
    4SAPS  C317  526   3.421   7.360   8.693  0.0335  0.7711  0.8016
    4SAPS  H17X  527   3.354   7.425   8.634  0.5130  1.8801  1.4737
    4SAPS  H17Y  528   3.362   7.328   8.782  0.3058  0.0648  0.7347
    4SAPS  C318  529   3.444   7.222   8.632  0.5896  0.4309 -0.7983
    4SAPS  H18X  530   3.366   7.149   8.663  0.1930  1.4158  0.5755
    4SAPS  H18Y  531   3.530   7.175   8.683  0.2830  0.6784 -0.0339
    4SAPS  H18Z  532   3.457   7.228   8.522 -2.7145 -1.5447 -1.3776
    5SAPS     N  533   0.434   5.991  11.128  0.1387  0.3799 -0.4718
    5SAPS   HN1  534   0.357   5.973  11.196  0.3849 -1.7275 -0.6914
    5SAPS   HN2  535   0.494   6.063  11.171 -3.0070  1.8162  1.6799
    5SAPS   HN3  536   0.388   6.024  11.041  0.2439 -3.3739 -2.0748
    5SAPS   C12  537   0.522   5.875  11.098 -0.2223 -0.6962  0.3892
    5SAPS  H12A  538   0.584   5.853  11.183 -0.7894  1.1374  1.2876
    5SAPS   C13  539   0.432   5.745  11.070  0.2668 -0.3799 -0.1465
    5SAPS  O13A  540   0.305   5.749  11.062 -0.5304  0.2314 -0.3661
    5SAPS  O13B  541   0.499   5.640  11.047  0.1672  0.0424  0.0021
    5SAPS   C11  542   0.612   5.903  10.971 -0.1947 -0.0653  0.3262
    5SAPS  H11A  543   0.539   5.928  10.891  0.0128 -1.8633 -0.4638
    5SAPS  H11B  544   0.652   5.808  10.928 -1.3987  0.1216 -1.2842
    5SAPS     P  545   0.861   5.981  10.984  0.5429 -0.1193  0.3835
    5SAPS   O13  546   0.935   6.109  10.985 -0.0598  0.3299  0.4158
    5SAPS   O14  547   0.900   5.890  11.091 -0.1017 -0.1264  0.3242
    5SAPS   O12  548   0.698   6.016  10.984 -0.4877  0.1975 -0.0843
    5SAPS   O11  549   0.887   5.912  10.843 -0.4749 -0.8186 -0.3392
    5SAPS    C1  550   0.829   5.965  10.721 -1.0947 -1.2779  1.1171
    5SAPS    HA  551   0.790   5.881  10.660 -2.1969  0.3524 -0.4567
    5SAPS    HB  552   0.737   6.024  10.740 -1.4918 -1.4132 -0.3425
    5SAPS    C2  553   0.920   6.059  10.639  0.0404  0.6778 -0.7665
    5SAPS    HS  554   0.925   6.151  10.700  0.3464 -1.9545  3.4250
    5SAPS   O21  555   0.856   6.068  10.513 -0.7089 -0.3625 -0.5293
    5SAPS   C21  556   0.894   6.190  10.448  0.4816  0.1969  0.4149
    5SAPS   O22  557   0.972   6.263  10.501  0.7849  0.0591 -0.0945
    5SAPS   C22  558   0.821   6.211  10.319  0.9473 -0.5175 -0.0422
    5SAPS   H2R  559   0.729   6.148  10.320  0.1051  0.6668 -1.2331
    5SAPS   H2S  560   0.786   6.314  10.303 -1.5568 -1.2829  0.3108
    5SAPS    C3  561   1.064   5.989  10.629 -0.2375 -0.2191 -0.2033
    5SAPS    HX  562   1.066   5.888  10.583  0.4440 -0.7001  0.8631
    5SAPS    HY  563   1.084   5.971  10.737 -2.5233  2.2475  0.6750
    5SAPS   O31  564   1.168   6.066  10.562  0.6884  0.1728 -0.4543
    5SAPS   C31  565   1.244   6.158  10.627 -0.0805 -0.2834  0.5891
    5SAPS   O32  566   1.227   6.189  10.743  0.3549  0.3734  0.4581
    5SAPS   C32  567   1.354   6.222  10.539  0.5149  0.4175  0.7646
    5SAPS   H2X  568   1.398   6.306  10.596 -0.1278  0.4254  1.2595
    5SAPS   H2Y  569   1.303   6.283  10.461 -1.8956  1.8152  3.3278
    5SAPS   C23  570   0.888   6.156  10.192 -0.2093  0.2282 -0.3045
    5SAPS   H3R  571   0.929   6.056  10.217  0.8784  0.9575  0.9141
    5SAPS   H3S  572   0.978   6.219  10.172  2.0740 -1.6970  3.5191
    5SAPS   C24  573   0.798   6.137  10.075 -0.3677  0.2124 -0.6030
    5SAPS   H4R  574   0.715   6.069  10.102 -0.1972  0.6736  1.0793
    5SAPS   H4S  575   0.854   6.082   9.996 -0.0764 -0.0400 -0.2240
    5SAPS   C25  576   0.738   6.264  10.030 -0.9063  0.0738 -0.2198
    5SAPS   H5R  577   0.649   6.300  10.084  1.0877  1.3225  2.3556
    5SAPS   C26  578   0.763   6.339   9.918  0.1236 -0.4164  0.3493
    5SAPS   H6R  579   0.730   6.444   9.916  0.6202 -0.2801 -2.0310
    5SAPS   C27  580   0.864   6.300   9.812 -0.0691  0.4532  0.4346
    5SAPS   H7R  581   0.924   6.213   9.847 -2.2923 -0.7075  1.4914
    5SAPS   H7S  582   0.944   6.374   9.794 -0.3685  1.2650  2.2548
    5SAPS   C28  583   0.810   6.243   9.688  0.5227  0.1163  0.4192
    5SAPS   H8R  584   0.726   6.173   9.700  0.3174  0.3112  0.1037
    5SAPS   C29  585   0.852   6.263   9.562  0.5657  0.7452  0.4835
    5SAPS   H9R  586   0.789   6.215   9.486  3.6444 -2.2031 -0.2767
    5SAPS  C210  587   0.962   6.348   9.511  0.4455  0.7318 -0.2557
    5SAPS  H10R  588   1.032   6.275   9.466 -0.2330 -1.5797  2.3365
    5SAPS  H10S  589   1.010   6.393   9.601  1.0409  1.3544 -0.8797
    5SAPS  C211  590   0.942   6.441   9.397  0.4542  0.2786  0.1960
    5SAPS  H11R  591   0.946   6.545   9.431  0.2649  0.1026  0.7626
    5SAPS  C212  592   0.924   6.407   9.259 -0.3580  0.3045 -0.1849
    5SAPS  H12R  593   0.915   6.492   9.190  0.1124  0.8192  0.3777
    5SAPS  C213  594   0.923   6.269   9.202  0.0388  0.2460 -0.1566
    5SAPS  H13R  595   0.927   6.197   9.286 -0.9476 -0.1512 -0.4422
    5SAPS  H13S  596   1.018   6.264   9.144 -0.6496 -0.2253 -1.2523
    5SAPS  C214  597   0.801   6.242   9.116 -0.4640 -0.1641  0.2001
    5SAPS  H14R  598   0.717   6.180   9.151  0.3263 -1.6349 -0.4863
    5SAPS  C215  599   0.789   6.275   8.984  0.3758 -0.7710 -0.7721
    5SAPS  H15R  600   0.701   6.235   8.932  0.7245 -4.3343  1.2163
    5SAPS  C216  601   0.895   6.355   8.904 -0.0337 -0.4169 -0.5876
    5SAPS  H16R  602   0.941   6.432   8.970  1.3720  0.8073 -2.9511
    5SAPS  H16S  603   0.834   6.412   8.831 -1.8618 -1.8607 -0.2300
    5SAPS  C217  604   0.994   6.255   8.846  0.6162  0.3159 -0.0946
    5SAPS  H17R  605   0.945   6.165   8.804 -1.2286  0.2065  2.1918
    5SAPS  H17S  606   1.054   6.223   8.934  1.7656  2.1005 -0.1843
    5SAPS  C218  607   1.070   6.325   8.731 -0.3524  0.1576  0.2743
    5SAPS  H18R  608   1.002   6.361   8.650 -0.7543 -0.5971  0.2752
    5SAPS  H18S  609   1.135   6.411   8.758  2.1342 -1.9586  1.2018
    5SAPS  C219  610   1.153   6.221   8.657  0.1898 -0.6778  0.2255
    5SAPS  H19R  611   1.194   6.144   8.726  1.1153 -1.5835 -1.3124
    5SAPS  H19S  612   1.241   6.283   8.629 -1.0945  1.1006  0.0614
    5SAPS  C220  613   1.094   6.179   8.521  0.3652  0.4430 -0.0430
    5SAPS  H20R  614   0.994   6.130   8.520  0.8675 -0.6133  0.6492
    5SAPS  H20S  615   1.157   6.097   8.479 -1.2403 -1.2196  0.7308
    5SAPS  H20T  616   1.090   6.269   8.455 -1.0337  1.0731  0.8768
    5SAPS   C33  617   1.464   6.121  10.501  0.1129  0.0136 -0.0134
    5SAPS   H3X  618   1.442   6.013  10.512 -0.4000  0.1521  0.3464
    5SAPS   H3Y  619   1.538   6.148  10.580 -0.8211  0.5155  0.7009
    5SAPS   C34  620   1.521   6.135  10.355 -0.9021 -0.0859  0.0449
    5SAPS   H4X  621   1.598   6.055  10.353  0.5844  1.3538 -1.7554
    5SAPS   H4Y  622   1.585   6.224  10.339  0.0221 -0.9502 -1.1167
    5SAPS   C35  623   1.418   6.109  10.242 -1.5799  0.0603 -0.6561
    5SAPS   H5X  624   1.347   6.194  10.238 -2.8366 -0.7995  2.1930
    5SAPS   H5Y  625   1.366   6.019  10.279 -0.9804 -0.3568 -0.8188
    5SAPS   C36  626   1.474   6.093  10.099  0.9444 -0.1580 -0.2704
    5SAPS   H6X  627   1.393   6.059  10.032  0.9965  1.3446 -1.1378
    5SAPS   H6Y  628   1.548   6.011  10.104  1.5054  0.1599 -2.7931
    5SAPS   C37  629   1.534   6.221  10.035 -0.3257 -0.1374  0.1248
    5SAPS   H7X  630   1.623   6.260  10.089  0.0847 -3.6214  2.1041
    5SAPS   H7Y  631   1.458   6.301  10.039  0.0843  0.1966  1.9297
    5SAPS   C38  632   1.566   6.208   9.886  0.3472  1.1608 -0.5402
    5SAPS   H8X  633   1.661   6.154   9.869 -0.7430 -1.0088  0.0393
    5SAPS   H8Y  634   1.575   6.313   9.850 -0.8719  1.1894 -0.7727
    5SAPS   C39  635   1.452   6.136   9.810 -1.1492  0.1221  0.9172
    5SAPS   H9X  636   1.361   6.192   9.841 -1.9486  0.3229 -1.6494
    5SAPS   H9Y  637   1.449   6.029   9.838 -1.3079  0.3041  1.6219
    5SAPS  C310  638   1.472   6.173   9.659  0.3036 -0.1425  0.2325
    5SAPS  H10X  639   1.559   6.115   9.623  0.8492  0.5290  0.4786
    5SAPS  H10Y  640   1.488   6.282   9.652 -2.9677  0.3190 -1.1087
    5SAPS  C311  641   1.358   6.113   9.579 -0.3261  0.4343 -0.6884
    5SAPS  H11X  642   1.271   6.181   9.593  0.4967  0.9118  2.5250
    5SAPS  H11Y  643   1.344   6.012   9.622 -1.8673  1.2718  0.8528
    5SAPS  C312  644   1.384   6.103   9.430 -0.2313 -0.5732 -0.0089
    5SAPS  H12X  645   1.294   6.059   9.382  0.1640 -1.6267  0.1966
    5SAPS  H12Y  646   1.473   6.036   9.420  0.2468  0.0990 -0.2885
    5SAPS  C313  647   1.410   6.234   9.359 -0.5902 -0.6933  0.2616
    5SAPS  H13X  648   1.496   6.284   9.408 -1.8202 -0.3239  2.0982
    5SAPS  H13Y  649   1.323   6.298   9.386 -0.3083 -0.1707 -0.0673
    5SAPS  C314  650   1.427   6.223   9.206  0.2443 -0.3570 -0.4781
    5SAPS  H14X  651   1.391   6.323   9.172  0.7068  0.2387  0.7568
    5SAPS  H14Y  652   1.354   6.146   9.173  3.1113 -3.8960  1.1578
    5SAPS  C315  653   1.569   6.193   9.173  0.2148  0.3850  0.3350
    5SAPS  H15X  654   1.602   6.107   9.235  2.5212 -1.2731 -3.0152
    5SAPS  H15Y  655   1.623   6.281   9.214  1.1504  0.0466 -0.1645
    5SAPS  C316  656   1.607   6.170   9.023  0.0467 -0.1433 -0.6064
    5SAPS  H16X  657   1.713   6.196   9.002  0.2425  0.0333  0.5634
    5SAPS  H16Y  658   1.552   6.251   8.971 -1.5891 -0.6401  0.3061
    5SAPS  C317  659   1.570   6.039   8.956  0.5323 -0.1719  0.4529
    5SAPS  H17X  660   1.626   5.961   9.011  0.8339  0.6247  1.2789
    5SAPS  H17Y  661   1.612   6.048   8.853 -2.7442  1.1025 -0.8347
    5SAPS  C318  662   1.419   6.010   8.951 -0.7242  0.2771 -0.3767
    5SAPS  H18X  663   1.382   5.997   9.055 -0.2205 -2.2964 -0.4960
    5SAPS  H18Y  664   1.386   5.930   8.882 -1.3548  2.2576 -2.4456
    5SAPS  H18Z  665   1.375   6.107   8.918  0.3942  1.2321  0.8675
    6SAPS     N  666   0.091   5.619  11.168 -0.2379  0.3132  0.1727
    6SAPS   HN1  667   0.173   5.671  11.132  0.3537  0.4623  1.6808
    6SAPS   HN2  668   0.055   5.655  11.259 -1.3319 -2.1516  0.7707
    6SAPS   HN3  669   0.114   5.517  11.171  1.7757  0.7267 -0.4099
    6SAPS   C12  670  -0.017   5.629  11.068  0.4907  0.3833 -0.3446
    6SAPS  H12A  671  -0.100   5.576  11.114  1.3404 -1.9974 -1.5033
    6SAPS   C13  672  -0.078   5.770  11.042 -0.4437 -0.4257 -0.0431
    6SAPS  O13A  673  -0.063   5.853  11.136 -0.4589  0.4283 -0.5488
    6SAPS  O13B  674  -0.177   5.773  10.961  0.3560 -0.2333 -0.1491
    6SAPS   C11  675   0.033   5.570  10.932  0.5390 -1.0347 -0.4819
    6SAPS  H11A  676   0.113   5.640  10.898  1.4307 -0.8485  1.9085
    6SAPS  H11B  677  -0.054   5.572  10.863 -0.4741  1.0205  0.7951
    6SAPS     P  678   0.111   5.352  10.817  0.0403  0.1777 -0.5048
    6SAPS   O13  679   0.251   5.315  10.837  0.0312 -0.2596 -0.0047
    6SAPS   O14  680   0.016   5.244  10.807 -0.1622 -0.3096  0.7931
    6SAPS   O12  681   0.081   5.440  10.942  0.7415  0.1573  0.2593
    6SAPS   O11  682   0.094   5.455  10.696 -0.0461 -0.1244  0.3264
    6SAPS    C1  683  -0.017   5.447  10.606 -0.2191  0.1800  0.3609
    6SAPS    HA  684  -0.100   5.386  10.649 -0.0016 -1.3938 -1.3672
    6SAPS    HB  685  -0.048   5.551  10.585 -0.1406 -0.3286 -2.3934
    6SAPS    C2  686   0.018   5.378  10.472 -0.2565  0.1387  0.2876
    6SAPS    HS  687   0.060   5.280  10.503  1.6765  1.4470  1.9481
    6SAPS   O21  688   0.116   5.452  10.397 -0.5150 -0.2915  1.1427
    6SAPS   C21  689   0.202   5.382  10.324  0.2535 -0.0377 -0.1333
    6SAPS   O22  690   0.211   5.260  10.326 -0.0990 -0.2796  0.1010
    6SAPS   C22  691   0.270   5.475  10.216  0.0747  0.1114  0.0238
    6SAPS   H2R  692   0.273   5.575  10.263  0.5490 -0.5604  1.4345
    6SAPS   H2S  693   0.373   5.435  10.207  1.1283  2.3301  1.9468
    6SAPS    C3  694  -0.108   5.366  10.395 -0.0499 -0.2069  0.0851
    6SAPS    HX  695  -0.130   5.470  10.362  0.1422 -0.5593 -1.1971
    6SAPS    HY  696  -0.193   5.333  10.458 -2.7100  1.8257 -2.2773
    6SAPS   O31  697  -0.097   5.284  10.279 -0.3569 -0.4997 -0.0661
    6SAPS   C31  698  -0.107   5.157  10.287 -0.1917 -0.2936 -0.8043
    6SAPS   O32  699  -0.137   5.091  10.385 -0.0156 -0.6389  0.2301
    6SAPS   C32  700  -0.058   5.096  10.153 -0.5005  0.1276  0.0443
    6SAPS   H2X  701   0.041   5.053  10.180  0.7895  2.6180 -0.6009
    6SAPS   H2Y  702  -0.027   5.171  10.078  1.1537 -0.6267 -0.0505
    6SAPS   C23  703   0.187   5.478  10.081 -0.2918 -0.1476 -0.1155
    6SAPS   H3R  704   0.080   5.480  10.110  0.2860 -0.4294  2.0991
    6SAPS   H3S  705   0.188   5.379  10.031 -1.1550  0.6198 -1.7017
    6SAPS   C24  706   0.222   5.586   9.983 -0.0676  0.8770 -0.1831
    6SAPS   H4R  707   0.236   5.683  10.036  1.6242  0.3314  0.3831
    6SAPS   H4S  708   0.136   5.588   9.912  0.3265 -1.0165 -0.7518
    6SAPS   C25  709   0.348   5.542   9.919 -0.3268 -0.5383  0.0060
    6SAPS   H5R  710   0.430   5.525   9.990  0.0250  1.0365 -0.0114
    6SAPS   C26  711   0.371   5.532   9.790 -0.3661  0.2121  0.6911
    6SAPS   H6R  712   0.463   5.491   9.748 -0.8201 -0.6377  0.5210
    6SAPS   C27  713   0.271   5.573   9.679 -0.3489  0.7390  0.0572
    6SAPS   H7R  714   0.206   5.660   9.703 -1.6014 -0.2548  0.3352
    6SAPS   H7S  715   0.199   5.488   9.677 -0.9480  1.2795 -2.9566
    6SAPS   C28  716   0.342   5.582   9.548  0.1814  0.1665 -0.0839
    6SAPS   H8R  717   0.445   5.545   9.544  1.5236  3.5181  1.4292
    6SAPS   C29  718   0.285   5.632   9.440  0.3285  0.3093 -0.3904
    6SAPS   H9R  719   0.339   5.626   9.345 -1.8676 -1.1515 -1.5828
    6SAPS  C210  720   0.144   5.693   9.420 -0.1455  0.4727  1.3226
    6SAPS  H10R  721   0.072   5.646   9.490  0.5389 -0.9895  1.0502
    6SAPS  H10S  722   0.098   5.656   9.326 -0.1415  2.3900  0.5479
    6SAPS  C211  723   0.137   5.840   9.410 -0.3116 -0.3961  0.4488
    6SAPS  H11R  724   0.190   5.881   9.497 -1.9779 -0.7608  1.6776
    6SAPS  C212  725   0.099   5.919   9.312  0.3420  0.2198 -0.7294
    6SAPS  H12R  726   0.095   6.027   9.334  0.9507 -0.1136  1.1079
    6SAPS  C213  727   0.037   5.873   9.184  0.3397  0.2513 -0.6601
    6SAPS  H13R  728  -0.041   5.798   9.207 -2.9625  3.5490 -0.6653
    6SAPS  H13S  729   0.122   5.839   9.121  0.9594  1.0629 -0.2908
    6SAPS  C214  730  -0.042   5.986   9.114  0.3525 -0.8145  0.1230
    6SAPS  H14R  731  -0.123   6.030   9.173 -1.4254 -1.4928 -1.7535
    6SAPS  C215  732  -0.037   6.016   8.981 -0.9721  0.3839  0.5941
    6SAPS  H15R  733  -0.086   6.104   8.937 -1.0640  0.1237  0.1649
    6SAPS  C216  734   0.048   5.939   8.884  0.1343 -0.0816 -0.1351
    6SAPS  H16R  735   0.102   5.853   8.928 -0.2742 -1.3465 -2.0695
    6SAPS  H16S  736   0.128   6.008   8.849  1.3957 -1.1377  0.6224
    6SAPS  C217  737  -0.022   5.876   8.761 -0.3693 -0.2713 -0.4323
    6SAPS  H17R  738   0.059   5.843   8.693 -0.3690  0.2022 -0.6618
    6SAPS  H17S  739  -0.064   5.970   8.718  1.8921  0.2432 -1.5946
    6SAPS  C218  740  -0.112   5.757   8.787  0.3111  0.0698 -0.3199
    6SAPS  H18R  741  -0.206   5.789   8.837  0.9779  2.8536 -0.7721
    6SAPS  H18S  742  -0.064   5.673   8.841  0.3696  0.2545 -0.0826
    6SAPS  C219  743  -0.163   5.696   8.656  0.0585  0.3167 -0.2432
    6SAPS  H19R  744  -0.077   5.661   8.595 -1.5983 -1.9754 -1.3637
    6SAPS  H19S  745  -0.208   5.781   8.600  2.1022  0.2411 -2.0761
    6SAPS  C220  746  -0.272   5.594   8.697 -0.0612 -0.0369  0.4488
    6SAPS  H20R  747  -0.303   5.535   8.609 -1.5722  0.1970  0.8078
    6SAPS  H20S  748  -0.358   5.631   8.758 -0.1037 -0.4710  0.6534
    6SAPS  H20T  749  -0.233   5.523   8.773  0.1295  0.4526  0.8127
    6SAPS   C33  750  -0.153   4.991  10.097 -0.1896 -0.2351 -0.2456
    6SAPS   H3X  751  -0.240   5.055  10.070  0.2411 -0.2969 -1.8159
    6SAPS   H3Y  752  -0.174   4.915  10.175 -1.1270  0.7302  0.4655
    6SAPS   C34  753  -0.084   4.920   9.978  0.6210 -0.5598 -0.8350
    6SAPS   H4X  754  -0.136   4.822   9.968 -1.0127  0.1559  0.4998
    6SAPS   H4Y  755   0.022   4.904  10.005  1.1241  4.0298  0.1974
    6SAPS   C35  756  -0.090   4.995   9.844 -0.3730  0.6364  1.1671
    6SAPS   H5X  757  -0.047   5.096   9.853  2.0228 -0.1067 -1.4820
    6SAPS   H5Y  758  -0.197   4.989   9.813 -0.2809 -1.8636  1.1894
    6SAPS   C36  759  -0.006   4.924   9.730 -0.0295 -0.4527 -0.3585
    6SAPS   H6X  760  -0.023   4.814   9.736 -1.0773 -0.1915  2.9735
    6SAPS   H6Y  761   0.104   4.935   9.738  0.2177 -2.8051 -0.0394
    6SAPS   C37  762  -0.035   4.962   9.580 -0.5423  0.3579 -0.0978
    6SAPS   H7X  763  -0.004   5.068   9.570 -3.6883  1.2434 -1.0472
    6SAPS   H7Y  764  -0.145   4.950   9.569 -0.3179  0.3519 -2.7840
    6SAPS   C38  765   0.031   4.879   9.477  0.4184  0.0028 -0.8767
    6SAPS   H8X  766  -0.012   4.777   9.483 -0.3644  0.3403 -0.6885
    6SAPS   H8Y  767   0.142   4.880   9.475  0.4098 -1.0868 -3.2738
    6SAPS   C39  768  -0.013   4.923   9.334 -0.5255 -0.0654 -0.4240
    6SAPS   H9X  769   0.038   5.017   9.305  2.1328 -1.8854 -1.8960
    6SAPS   H9Y  770  -0.121   4.951   9.340 -1.0007 -1.7574 -0.8469
    6SAPS  C310  771   0.011   4.820   9.226  0.3208 -0.3708  0.3161
    6SAPS  H10X  772  -0.064   4.740   9.241 -1.6813  1.5189  0.4825
    6SAPS  H10Y  773   0.117   4.787   9.233  0.0981 -1.0865  0.3736
    6SAPS  C311  774  -0.013   4.886   9.082  0.4926 -0.5650  0.7174
    6SAPS  H11X  775   0.043   4.982   9.074 -1.2842  0.4032 -0.2535
    6SAPS  H11Y  776  -0.120   4.915   9.072  0.1616 -1.7464  0.8031
    6SAPS  C312  777   0.020   4.778   8.978  0.1219  0.0101 -0.2163
    6SAPS  H12X  778   0.125   4.747   8.999  0.0466 -0.1917 -0.1344
    6SAPS  H12Y  779   0.030   4.828   8.879  0.6231  0.0414 -0.1476
    6SAPS  C313  780  -0.076   4.661   8.962  0.3020  0.3609  0.0464
    6SAPS  H13X  781  -0.179   4.704   8.966  0.5802  0.8446  2.3849
    6SAPS  H13Y  782  -0.067   4.602   9.055  1.3116 -1.3059 -1.0725
    6SAPS  C314  783  -0.060   4.579   8.834  0.6062  0.2742  1.9346
    6SAPS  H14X  784   0.046   4.547   8.831  0.1480 -1.1311 -0.1630
    6SAPS  H14Y  785  -0.078   4.642   8.745 -0.1066 -2.8222 -0.1779
    6SAPS  C315  786  -0.154   4.463   8.829 -0.4282  0.1688  0.6151
    6SAPS  H15X  787  -0.258   4.504   8.835  0.0779  1.5881 -0.1091
    6SAPS  H15Y  788  -0.144   4.397   8.918  1.2206  0.1203  0.3943
    6SAPS  C316  789  -0.127   4.380   8.697 -0.6164 -0.1082  0.7766
    6SAPS  H16X  790  -0.029   4.329   8.703  0.0603  1.2303  1.3712
    6SAPS  H16Y  791  -0.128   4.452   8.612  1.5172 -0.8975  0.0654
    6SAPS  C317  792  -0.232   4.269   8.673 -0.2474  0.1000  0.2995
    6SAPS  H17X  793  -0.338   4.302   8.684 -0.1732 -0.2651  2.2386
    6SAPS  H17Y  794  -0.217   4.194   8.754 -0.7411  1.3180  1.5550
    6SAPS  C318  795  -0.202   4.193   8.544  0.4055  0.7192 -0.6719
    6SAPS  H18X  796  -0.200   4.268   8.462 -0.0327  1.9347  0.4085
    6SAPS  H18Y  797  -0.286   4.127   8.515  0.1822  0.0528  1.4274
    6SAPS  H18Z  798  -0.108   4.136   8.558  0.1425 -0.2393 -2.6136
    7SAPS     N  799   2.399   6.373  10.972  0.5413 -0.3841  0.2073
    7SAPS   HN1  800   2.434   6.416  11.060  0.7899 -1.1781  0.5036
    7SAPS   HN2  801   2.295   6.381  10.969  0.5523 -0.7427 -1.3933
    7SAPS   HN3  802   2.426   6.273  10.962 -1.1477 -0.9380  0.9109
    7SAPS   C12  803   2.467   6.442  10.854  0.4611  0.5395 -0.1117
    7SAPS  H12A  804   2.452   6.549  10.859  0.0713  0.4059  1.9690
    7SAPS   C13  805   2.620   6.412  10.853 -0.3857  0.2342 -0.8500
    7SAPS  O13A  806   2.665   6.325  10.935 -0.1172  0.5924  0.0035
    7SAPS  O13B  807   2.695   6.462  10.768 -0.3521  0.0567  0.0540
    7SAPS   C11  808   2.404   6.390  10.721 -0.0210 -0.0060  0.0480
    7SAPS  H11A  809   2.420   6.280  10.732 -2.1377 -0.4325 -0.8652
    7SAPS  H11B  810   2.450   6.417  10.623  0.1980  1.0447  0.4386
    7SAPS     P  811   2.200   6.554  10.666  0.5468  0.1524  0.0912
    7SAPS   O13  812   2.099   6.597  10.766 -0.0609  0.2930 -0.5886
    7SAPS   O14  813   2.305   6.654  10.626 -0.0811 -0.2546  0.5777
    7SAPS   O12  814   2.268   6.427  10.732  0.5898 -0.5271  0.2393
    7SAPS   O11  815   2.129   6.501  10.532 -0.1207 -0.5388  0.4210
    7SAPS    C1  816   2.207   6.467  10.419  0.0308  0.1747  0.2496
    7SAPS    HA  817   2.269   6.545  10.372 -1.1836 -0.0046 -1.7221
    7SAPS    HB  818   2.266   6.375  10.440  0.3350  0.8726  2.5387
    7SAPS    C2  819   2.107   6.445  10.300 -0.2135 -0.1389  0.2060
    7SAPS    HS  820   2.041   6.359  10.327  0.2901 -0.1988  1.2832
    7SAPS   O21  821   2.177   6.425  10.182  0.4922 -0.3702 -0.0873
    7SAPS   C21  822   2.238   6.310  10.172  0.2656 -0.4831 -0.0799
    7SAPS   O22  823   2.208   6.211  10.241  0.2705 -0.5006 -0.2459
    7SAPS   C22  824   2.335   6.310  10.052 -0.6325  0.6278  0.5161
    7SAPS   H2R  825   2.276   6.316   9.959  0.0751  2.1899  0.1650
    7SAPS   H2S  826   2.410   6.392  10.053  1.8993 -1.5699 -1.8768
    7SAPS    C3  827   2.021   6.566  10.268  0.6065 -0.7958 -0.7324
    7SAPS    HX  828   2.091   6.652  10.257 -0.0231  0.4146  3.8314
    7SAPS    HY  829   1.953   6.589  10.352  2.5938  2.5230  0.0920
    7SAPS   O31  830   1.948   6.569  10.142 -0.3122  0.0392 -0.3807
    7SAPS   C31  831   1.851   6.476  10.128  0.0492 -1.0062 -0.4071
    7SAPS   O32  832   1.816   6.388  10.205 -0.5766 -0.0234  0.8378
    7SAPS   C32  833   1.806   6.479   9.980 -0.0358  0.4431  0.5433
    7SAPS   H2X  834   1.776   6.582   9.951  0.2677  0.6957  1.1108
    7SAPS   H2Y  835   1.733   6.396   9.971  2.8990 -2.1362 -0.4581
    7SAPS   C23  836   2.417   6.174  10.049 -0.3437 -0.2203 -0.0327
    7SAPS   H3R  837   2.353   6.087  10.078 -1.3904  0.1396 -1.2286
    7SAPS   H3S  838   2.502   6.188  10.119  0.9957  0.4848 -1.7685
    7SAPS   C24  839   2.485   6.142   9.920 -0.3026 -0.0184 -1.0312
    7SAPS   H4R  840   2.541   6.046   9.921 -2.2058 -1.1555 -0.5931
    7SAPS   H4S  841   2.568   6.212   9.900 -0.2991  0.7976  1.6794
    7SAPS   C25  842   2.386   6.152   9.804  0.1753 -1.1573  0.1860
    7SAPS   H5R  843   2.316   6.067   9.810  0.4278 -1.3022  1.0830
    7SAPS   C26  844   2.365   6.247   9.711 -0.3392 -0.4095  0.1296
    7SAPS   H6R  845   2.285   6.230   9.638 -0.8508 -0.0214  0.5928
    7SAPS   C27  846   2.437   6.378   9.700  0.1500 -0.1499 -0.1940
    7SAPS   H7R  847   2.501   6.376   9.608  0.4113 -5.2353 -0.0120
    7SAPS   H7S  848   2.509   6.390   9.784 -0.6388  1.6428  0.2560
    7SAPS   C28  849   2.332   6.490   9.694 -0.7280  0.0637 -0.3452
    7SAPS   H8R  850   2.263   6.489   9.779 -0.4667  1.8918 -0.0824
    7SAPS   C29  851   2.341   6.595   9.603  0.4113  0.2503 -0.0335
    7SAPS   H9R  852   2.260   6.666   9.583 -1.7944 -2.4486 -1.0333
    7SAPS  C210  853   2.437   6.618   9.489  0.3055 -0.5699 -0.7727
    7SAPS  H10R  854   2.535   6.572   9.515  0.9072  0.3802 -1.3284
    7SAPS  H10S  855   2.451   6.727   9.471 -1.4082 -0.2487 -0.1931
    7SAPS  C211  856   2.378   6.552   9.368  0.3157 -0.2905  0.3875
    7SAPS  H11R  857   2.356   6.445   9.380 -0.7252  0.0658  1.7454
    7SAPS  C212  858   2.334   6.613   9.254  0.4366 -0.9034 -0.1267
    7SAPS  H12R  859   2.294   6.544   9.178  0.4668  0.0469 -1.0243
    7SAPS  C213  860   2.330   6.761   9.225  0.4128  0.1208 -0.0945
    7SAPS  H13R  861   2.385   6.775   9.129  2.6125 -0.8165  0.9984
    7SAPS  H13S  862   2.399   6.811   9.296  0.5932  2.4798 -1.8570
    7SAPS  C214  863   2.195   6.835   9.228 -0.5022  0.1496  0.1663
    7SAPS  H14R  864   2.127   6.832   9.315  0.8020  0.1614  1.1900
    7SAPS  C215  865   2.143   6.881   9.115  0.2784 -0.4461  0.9807
    7SAPS  H15R  866   2.054   6.946   9.121  0.0651 -0.6789  0.3493
    7SAPS  C216  867   2.203   6.874   8.974 -0.4746  0.0875 -0.0483
    7SAPS  H16R  868   2.304   6.917   8.960 -0.7901  2.3043  3.7490
    7SAPS  H16S  869   2.134   6.930   8.909 -0.6618  1.0862  0.9990
    7SAPS  C217  870   2.208   6.732   8.913 -0.0328  0.3671  0.6525
    7SAPS  H17R  871   2.108   6.690   8.938  0.1112 -0.0871  0.4771
    7SAPS  H17S  872   2.283   6.667   8.964  0.9743  2.0734  1.4037
    7SAPS  C218  873   2.207   6.721   8.759  0.0994 -0.0600  0.0643
    7SAPS  H18R  874   2.286   6.795   8.733 -1.2161  1.1873 -0.4302
    7SAPS  H18S  875   2.112   6.756   8.714  0.0427 -0.6541 -0.2784
    7SAPS  C219  876   2.239   6.582   8.709 -0.0152 -0.0254  0.1021
    7SAPS  H19R  877   2.170   6.510   8.759  0.0987 -1.0385 -1.1683
    7SAPS  H19S  878   2.335   6.542   8.747  0.0120  1.2429  1.4116
    7SAPS  C220  879   2.226   6.550   8.554  0.2213  0.5103  0.2094
    7SAPS  H20R  880   2.312   6.602   8.507  3.2674 -1.6000  3.1720
    7SAPS  H20S  881   2.133   6.582   8.504  0.7466  0.7459 -0.6243
    7SAPS  H20T  882   2.231   6.443   8.522 -1.6823 -0.3192  2.5091
    7SAPS   C33  883   1.921   6.440   9.889  0.4778 -0.8711  0.4171
    7SAPS   H3X  884   1.967   6.341   9.912  0.6969 -0.5979  1.1833
    7SAPS   H3Y  885   2.009   6.507   9.886 -1.1824  1.3980  1.3561
    7SAPS   C34  886   1.876   6.399   9.746 -0.0949  0.2939 -0.0463
    7SAPS   H4X  887   1.837   6.493   9.700 -0.4938  1.0021  1.7107
    7SAPS   H4Y  888   1.791   6.328   9.751 -0.4691  0.6625 -1.0032
    7SAPS   C35  889   1.989   6.362   9.656  0.5809 -0.3345 -0.6726
    7SAPS   H5X  890   2.038   6.269   9.693  1.6461  0.4146 -0.1885
    7SAPS   H5Y  891   2.076   6.429   9.644  1.2812 -0.9380  0.9418
    7SAPS   C36  892   1.938   6.336   9.514  0.1974  0.0090 -0.9349
    7SAPS   H6X  893   1.884   6.429   9.488  0.0156  0.8791  2.3939
    7SAPS   H6Y  894   1.863   6.254   9.515 -0.2688  0.4508 -0.4512
    7SAPS   C37  895   2.053   6.293   9.413 -0.7415  0.7244 -0.0609
    7SAPS   H7X  896   2.114   6.214   9.462 -0.6990  0.2377 -0.8851
    7SAPS   H7Y  897   2.115   6.385   9.404 -0.0949  0.1911 -1.1964
    7SAPS   C38  898   2.001   6.255   9.274 -0.2033  0.0408 -0.5250
    7SAPS   H8X  899   1.936   6.340   9.247  0.9721  1.0114 -0.3508
    7SAPS   H8Y  900   1.933   6.167   9.269  0.1516 -0.2045 -1.0092
    7SAPS   C39  901   2.119   6.254   9.173  0.4240 -1.0726 -0.3365
    7SAPS   H9X  902   2.186   6.168   9.196  0.9436 -0.3103  1.0610
    7SAPS   H9Y  903   2.182   6.345   9.185 -0.2623 -0.5125 -0.9402
    7SAPS  C310  904   2.065   6.240   9.028  0.0146 -0.1467  0.0224
    7SAPS  H10X  905   2.006   6.328   8.994  0.0698 -0.6854 -1.4983
    7SAPS  H10Y  906   1.990   6.158   9.021  0.7023 -0.8481  0.7356
    7SAPS  C311  907   2.172   6.188   8.927  0.2764 -0.6896 -0.0886
    7SAPS  H11X  908   2.225   6.099   8.965  0.7137 -0.0735  0.7482
    7SAPS  H11Y  909   2.245   6.271   8.911  0.5421 -1.4061 -3.0010
    7SAPS  C312  910   2.114   6.153   8.794 -0.7279  0.2350 -0.1449
    7SAPS  H12X  911   2.075   6.245   8.746 -0.4631 -0.2205 -1.2491
    7SAPS  H12Y  912   2.030   6.081   8.802 -0.1646 -0.4997 -0.7624
    7SAPS  C313  913   2.228   6.101   8.704 -0.7960 -0.4752  1.0687
    7SAPS  H13X  914   2.263   6.007   8.753 -0.9979 -0.2191  1.7150
    7SAPS  H13Y  915   2.308   6.178   8.700 -2.0351  0.7553 -1.1338
    7SAPS  C314  916   2.174   6.067   8.558 -0.6515 -0.0112  0.0391
    7SAPS  H14X  917   2.113   6.149   8.514 -0.7197 -0.3843 -0.5801
    7SAPS  H14Y  918   2.106   5.980   8.573  0.0191 -0.9275 -2.0647
    7SAPS  C315  919   2.295   6.033   8.475 -0.2143  0.3056  0.6409
    7SAPS  H15X  920   2.345   5.945   8.521 -1.0405 -0.0638  0.8531
    7SAPS  H15Y  921   2.368   6.116   8.481  1.9687 -1.2481 -2.9161
    7SAPS  C316  922   2.269   6.001   8.328  0.8838 -0.2224  0.5629
    7SAPS  H16X  923   2.210   6.076   8.270  1.7032 -0.8032 -1.0696
    7SAPS  H16Y  924   2.196   5.918   8.317  0.5741  0.1757 -0.5243
    7SAPS  C317  925   2.394   5.975   8.246  0.3513 -0.2697  0.2442
    7SAPS  H17X  926   2.438   5.885   8.294 -0.2422 -0.8336 -0.2672
    7SAPS  H17Y  927   2.469   6.057   8.254  0.6474 -0.6653  1.6956
    7SAPS  C318  928   2.366   5.943   8.094 -0.7770 -0.0401  0.8375
    7SAPS  H18X  929   2.310   5.849   8.075 -0.4908  0.0608 -0.5798
    7SAPS  H18Y  930   2.459   5.936   8.033 -2.0706  0.1495 -1.1844
    7SAPS  H18Z  931   2.290   6.017   8.063 -0.0246  0.5855  0.4807
    8SAPS     N  932   0.098   0.592  11.201  0.1532  0.1472  0.0013
    8SAPS   HN1  933   0.090   0.556  11.104 -1.6481  1.5983 -0.4046
    8SAPS   HN2  934   0.064   0.690  11.209  0.1210  0.0562  0.9711
    8SAPS   HN3  935   0.199   0.610  11.221  1.1737 -2.5753 -2.2969
    8SAPS   C12  936   0.031   0.503  11.307  0.5945 -0.2304  1.0555
    8SAPS  H12A  937   0.054   0.398  11.293  1.1307  0.1731 -1.1134
    8SAPS   C13  938   0.053   0.551  11.455  0.2288 -0.0501 -0.0324
    8SAPS  O13A  939   0.141   0.627  11.485  0.5307 -0.9844  0.0603
    8SAPS  O13B  940  -0.007   0.483  11.547 -0.5429 -0.3276  0.1998
    8SAPS   C11  941  -0.125   0.512  11.275 -0.0088  0.4513 -0.0606
    8SAPS  H11A  942  -0.180   0.603  11.306  0.7312  0.1644  2.2057
    8SAPS  H11B  943  -0.172   0.425  11.327 -0.3535  0.3238 -0.5801
    8SAPS     P  944  -0.264   0.411  11.077  0.5285  0.0795  0.2015
    8SAPS   O13  945  -0.270   0.273  11.139 -0.2827 -0.0462  0.8874
    8SAPS   O14  946  -0.389   0.494  11.105  0.2817  0.3944  0.1429
    8SAPS   O12  947  -0.145   0.492  11.132 -0.0777 -0.2305  0.2247
    8SAPS   O11  948  -0.234   0.380  10.923  0.0645 -0.5984 -0.5303
    8SAPS    C1  949  -0.129   0.448  10.856  0.0086 -0.1612  0.1626
    8SAPS    HA  950  -0.066   0.504  10.929  2.2548 -1.3569 -0.7984
    8SAPS    HB  951  -0.060   0.372  10.815  1.2102 -0.0123  1.8636
    8SAPS    C2  952  -0.171   0.549  10.747 -0.2572 -0.7937 -0.0148
    8SAPS    HS  953  -0.238   0.623  10.796  0.1068  0.4945 -1.4024
    8SAPS   O21  954  -0.241   0.478  10.643 -0.1244 -0.5336 -0.2149
    8SAPS   C21  955  -0.330   0.554  10.562 -0.1527  0.3083 -0.3241
    8SAPS   O22  956  -0.376   0.661  10.598 -0.2716  0.0373 -0.2136
    8SAPS   C22  957  -0.358   0.486  10.430  0.1136 -0.5730  0.3371
    8SAPS   H2R  958  -0.333   0.378  10.438 -0.3803 -0.7264 -0.2245
    8SAPS   H2S  959  -0.463   0.500  10.398 -0.0689 -1.9964  0.2851
    8SAPS    C3  960  -0.048   0.624  10.682  0.1737  0.1207  0.3721
    8SAPS    HX  961  -0.005   0.554  10.607  2.0213 -0.5302  1.9943
    8SAPS    HY  962   0.022   0.644  10.766 -0.3505 -2.5033  1.4626
    8SAPS   O31  963  -0.084   0.752  10.615  0.0482  0.3654  0.4143
    8SAPS   C31  964   0.010   0.808  10.535  0.5342  0.2751 -0.0642
    8SAPS   O32  965   0.112   0.756  10.495  0.2637  0.6173 -0.1339
    8SAPS   C32  966  -0.045   0.946  10.496  0.3119 -0.2407 -0.1073
    8SAPS   H2X  967  -0.085   0.996  10.587  2.2863 -0.4755  0.9115
    8SAPS   H2Y  968  -0.132   0.943  10.427  0.9250 -1.7455 -0.8558
    8SAPS   C23  969  -0.269   0.557  10.317 -0.0027  0.4123  0.0854
    8SAPS   H3R  970  -0.270   0.668  10.319 -1.7271  0.3746  1.5797
    8SAPS   H3S  971  -0.319   0.523  10.224  0.4138  1.2615 -0.4628
    8SAPS   C24  972  -0.128   0.491  10.312  0.2757  0.2176 -0.4156
    8SAPS   H4R  973  -0.136   0.384  10.285 -2.0242 -0.1655  1.5943
    8SAPS   H4S  974  -0.083   0.495  10.413 -2.5092  0.6649  0.8576
    8SAPS   C25  975  -0.045   0.577  10.221  0.3552 -0.4563  0.4651
    8SAPS   H5R  976  -0.001   0.668  10.264 -0.7293  0.7619 -0.9403
    8SAPS   C26  977  -0.023   0.549  10.093 -0.1209  0.2594  0.4090
    8SAPS   H6R  978   0.032   0.621  10.031 -1.0559  1.1203  0.5813
    8SAPS   C27  979  -0.088   0.428  10.021  0.1429 -1.3643  0.1902
    8SAPS   H7R  980  -0.196   0.451  10.015  0.5061  0.5181  0.4316
    8SAPS   H7S  981  -0.088   0.331  10.075 -1.0226 -1.6402 -0.2978
    8SAPS   C28  982  -0.043   0.402   9.881 -0.0649 -0.6032 -0.1348
    8SAPS   H8R  983   0.051   0.346   9.868  0.8146  1.1957 -1.8000
    8SAPS   C29  984  -0.099   0.449   9.769  0.3657  0.1955  0.4346
    8SAPS   H9R  985  -0.078   0.415   9.667 -2.5315  2.1271 -0.8641
    8SAPS  C210  986  -0.225   0.536   9.761 -0.2180 -0.2389 -0.3668
    8SAPS  H10R  987  -0.254   0.570   9.862  2.3190  0.5394  0.1343
    8SAPS  H10S  988  -0.321   0.486   9.735 -0.0386 -0.8296  0.0874
    8SAPS  C211  989  -0.198   0.656   9.680 -0.2397  0.5513  0.2772
    8SAPS  H11R  990  -0.142   0.733   9.735  0.4742 -0.3709  0.8783
    8SAPS  C212  991  -0.253   0.699   9.565  0.0502 -0.1823 -0.0269
    8SAPS  H12R  992  -0.213   0.793   9.524 -1.7602  0.9623  0.7634
    8SAPS  C213  993  -0.360   0.621   9.497 -0.1985 -0.1695 -0.2211
    8SAPS  H13R  994  -0.453   0.617   9.558 -0.4753  0.5350 -0.5860
    8SAPS  H13S  995  -0.332   0.514   9.491  0.4966 -0.1325  1.9376
    8SAPS  C214  996  -0.387   0.665   9.359 -0.0770  0.1907 -0.7070
    8SAPS  H14R  997  -0.327   0.605   9.288 -0.3973 -1.1308  0.1100
    8SAPS  C215  998  -0.486   0.750   9.301 -0.0008  0.1619  0.5473
    8SAPS  H15R  999  -0.493   0.745   9.192 -2.0233  0.9763  0.6273
    8SAPS  C216 1000  -0.593   0.828   9.378  0.0924  1.0538  0.0551
    8SAPS  H16R 1001  -0.587   0.938   9.364 -1.3107  0.7497 -3.3587
    8SAPS  H16S 1002  -0.563   0.829   9.485  0.1638 -1.9369  0.0920
    8SAPS  C217 1003  -0.738   0.784   9.352 -1.1508 -0.7775 -0.0409
    8SAPS  H17R 1004  -0.798   0.782   9.446  2.3993 -1.7738  2.2846
    8SAPS  H17S 1005  -0.740   0.681   9.309 -0.5734 -0.2661 -1.3092
    8SAPS  C218 1006  -0.814   0.883   9.269 -0.4727 -0.5273  0.2479
    8SAPS  H18R 1007  -0.751   0.914   9.183  0.6983  1.2183  1.7297
    8SAPS  H18S 1008  -0.833   0.975   9.327  1.3862  1.6365 -2.4346
    8SAPS  C219 1009  -0.949   0.836   9.208  0.1217 -0.1034  0.0071
    8SAPS  H19R 1010  -0.945   0.761   9.127 -2.4949 -0.6691  0.3397
    8SAPS  H19S 1011  -0.997   0.929   9.168 -0.5550  0.4242  1.9559
    8SAPS  C220 1012  -1.040   0.783   9.317 -0.2276  0.1565  0.1328
    8SAPS  H20R 1013  -1.004   0.695   9.374  0.5263 -0.8095 -1.8095
    8SAPS  H20S 1014  -1.136   0.740   9.282 -0.8929 -0.3730  2.5429
    8SAPS  H20T 1015  -1.057   0.860   9.396 -0.5501 -0.6566  0.8612
    8SAPS   C33 1016   0.060   1.049  10.452  0.1055  0.8735 -0.1625
    8SAPS   H3X 1017   0.128   1.071  10.537 -1.8894  0.5246  1.5643
    8SAPS   H3Y 1018   0.007   1.141  10.419  0.4694  0.9730 -0.4680
    8SAPS   C34 1019   0.142   1.007  10.331 -0.0556 -0.0564 -0.4355
    8SAPS   H4X 1020   0.198   0.913  10.349 -0.0071  0.5063  2.5011
    8SAPS   H4Y 1021   0.202   1.099  10.316  1.0407 -1.0094 -2.0542
    8SAPS   C35 1022   0.051   0.998  10.204  0.3825  0.0039 -0.5360
    8SAPS   H5X 1023   0.002   1.094  10.176  0.3100  0.1557  0.1076
    8SAPS   H5Y 1024  -0.027   0.921  10.220 -0.3362  0.7105 -0.5733
    8SAPS   C36 1025   0.122   0.955  10.069  0.3753  0.1548 -0.1493
    8SAPS   H6X 1026   0.180   0.860  10.072  0.3733  0.0868 -1.6348
    8SAPS   H6Y 1027   0.202   1.032  10.060  0.8508 -0.1940  1.0292
    8SAPS   C37 1028   0.025   0.963   9.951 -0.0396  0.4316  0.3751
    8SAPS   H7X 1029  -0.014   1.067   9.950  1.3596  0.9557 -0.1885
    8SAPS   H7Y 1030  -0.061   0.892   9.959 -0.6346  0.7727 -2.2237
    8SAPS   C38 1031   0.088   0.943   9.810 -0.1632 -1.1026  0.6013
    8SAPS   H8X 1032   0.128   0.839   9.808 -0.3601 -1.1735 -1.8728
    8SAPS   H8Y 1033   0.167   1.020   9.810 -1.1681  0.1005 -3.7637
    8SAPS   C39 1034  -0.001   0.984   9.687 -0.5376  0.8086 -0.2948
    8SAPS   H9X 1035  -0.033   1.086   9.717 -1.2041  0.0886  1.5830
    8SAPS   H9Y 1036  -0.096   0.927   9.682  1.3107 -2.4390  0.3539
    8SAPS  C310 1037   0.069   0.975   9.561  0.1899  0.0431  0.0295
    8SAPS  H10X 1038  -0.002   1.004   9.481  1.9372 -1.6582 -2.2280
    8SAPS  H10Y 1039   0.095   0.868   9.547  0.5438 -0.1357  1.9482
    8SAPS  C311 1040   0.191   1.065   9.544 -0.0891  0.4354  0.3357
    8SAPS  H11X 1041   0.275   1.026   9.605 -1.5571 -0.9313  1.5222
    8SAPS  H11Y 1042   0.178   1.169   9.582  1.3205  0.5135  0.6519
    8SAPS  C312 1043   0.226   1.082   9.400  0.4046  0.3956 -0.2184
    8SAPS  H12X 1044   0.131   1.105   9.347 -0.2675  2.1539  1.6794
    8SAPS  H12Y 1045   0.265   0.988   9.355 -0.1374 -0.2177  0.5767
    8SAPS  C313 1046   0.315   1.207   9.379 -0.0690  0.5583 -0.0667
    8SAPS  H13X 1047   0.396   1.209   9.455  0.2480  0.1154 -0.3926
    8SAPS  H13Y 1048   0.248   1.289   9.413  0.9742  1.6160 -0.5580
    8SAPS  C314 1049   0.370   1.218   9.237  0.4545  0.4066 -0.3482
    8SAPS  H14X 1050   0.292   1.211   9.158 -0.6517 -1.5221  0.8757
    8SAPS  H14Y 1051   0.431   1.125   9.226 -1.0249 -0.5910 -0.3307
    8SAPS  C315 1052   0.461   1.344   9.220 -0.0045 -0.3075  0.6588
    8SAPS  H15X 1053   0.538   1.334   9.141  0.2574 -0.6139  0.9529
    8SAPS  H15Y 1054   0.515   1.355   9.316 -0.6126  0.6767  0.9054
    8SAPS  C316 1055   0.381   1.473   9.200  0.1744 -0.1059  0.2399
    8SAPS  H16X 1056   0.340   1.484   9.303 -1.3935  0.0416 -0.3958
    8SAPS  H16Y 1057   0.298   1.447   9.131 -0.0819  1.2865  0.0153
    8SAPS  C317 1058   0.470   1.580   9.138 -0.2887  0.1948  0.4393
    8SAPS  H17X 1059   0.575   1.571   9.174  0.0361 -1.2760 -0.8059
    8SAPS  H17Y 1060   0.419   1.675   9.163  1.6665  1.3457  0.1475
    8SAPS  C318 1061   0.473   1.570   8.981  0.1046 -0.2311 -0.4542
    8SAPS  H18X 1062   0.532   1.656   8.944 -0.1827  1.2498  2.3657
    8SAPS  H18Y 1063   0.372   1.591   8.939  0.6219  0.7234 -1.2210
    8SAPS  H18Z 1064   0.497   1.468   8.942  0.9307 -0.8812  1.6842
    9SAPS     N 1065   2.989   4.098   6.162 -0.1402  0.1497  0.3515
    9SAPS   HN1 1066   3.055   4.019   6.175 -0.4276 -0.1589 -0.0853
    9SAPS   HN2 1067   3.017   4.145   6.074  0.3304  0.9505  0.9219
    9SAPS   HN3 1068   2.997   4.166   6.241 -0.3108 -1.1265  1.4801
    9SAPS   C12 1069   2.845   4.052   6.166  0.0233  0.0848  0.4643
    9SAPS  H12A 1070   2.773   4.132   6.162 -0.4598 -0.3562  0.2331
    9SAPS   C13 1071   2.797   3.961   6.050 -0.4288  0.3366  0.1550
    9SAPS  O13A 1072   2.874   3.946   5.951  0.0302 -0.2675  0.0936
    9SAPS  O13B 1073   2.679   3.921   6.048  0.0786 -0.2431  0.7133
    9SAPS   C11 1074   2.813   3.978   6.296  0.5746 -0.5745 -0.7202
    9SAPS  H11A 1075   2.707   3.945   6.289 -1.9209  6.8275 -2.3996
    9SAPS  H11B 1076   2.825   4.041   6.386 -0.2062 -4.2564  2.0565
    9SAPS     P 1077   2.872   3.770   6.441  0.2234  0.0101 -0.4518
    9SAPS   O13 1078   2.727   3.748   6.451  0.0371 -0.6463  0.0730
    9SAPS   O14 1079   2.950   3.644   6.423 -0.4839 -0.0355 -0.2112
    9SAPS   O12 1080   2.896   3.861   6.316  0.0324 -0.8278 -0.6685
    9SAPS   O11 1081   2.921   3.850   6.568 -0.9071  0.1364  0.7657
    9SAPS    C1 1082   3.047   3.914   6.556 -0.2081  0.1046 -0.1620
    9SAPS    HA 1083   3.129   3.842   6.534  0.3846  0.9017 -0.6112
    9SAPS    HB 1084   3.039   3.999   6.484 -1.6232 -1.6467 -2.1434
    9SAPS    C2 1085   3.078   3.986   6.694  0.4467 -0.4241 -0.2817
    9SAPS    HS 1086   3.156   4.065   6.685 -1.0487  1.2329  0.9245
    9SAPS   O21 1087   3.120   3.885   6.791  0.8347  0.0952  0.0240
    9SAPS   C21 1088   3.249   3.857   6.781  0.1433  0.0769  0.9238
    9SAPS   O22 1089   3.328   3.918   6.715 -0.0601  0.3387  0.4040
    9SAPS   C22 1090   3.294   3.740   6.880  0.2691  0.5498 -0.5995
    9SAPS   H2R 1091   3.209   3.739   6.951 -0.7486  4.1253 -1.6459
    9SAPS   H2S 1092   3.302   3.644   6.824  1.8260 -0.6269  1.5982
    9SAPS    C3 1093   2.948   4.050   6.746  0.0114  0.5552 -0.2887
    9SAPS    HX 1094   2.880   3.968   6.776  0.8208  0.0466  0.1726
    9SAPS    HY 1095   2.904   4.105   6.660 -0.1222  1.1843  0.1703
    9SAPS   O31 1096   2.974   4.135   6.859 -0.6433 -0.5125  0.3049
    9SAPS   C31 1097   3.011   4.256   6.837 -0.1212  0.0187  0.1355
    9SAPS   O32 1098   3.035   4.304   6.722 -0.4357  0.6766  1.0569
    9SAPS   C32 1099   3.031   4.320   6.970 -0.1467 -0.1547 -0.1003
    9SAPS   H2X 1100   3.018   4.241   7.047  2.0092  0.1853  0.6363
    9SAPS   H2Y 1101   2.955   4.400   6.986  0.7661  0.8069 -0.5743
    9SAPS   C23 1102   3.433   3.774   6.933  0.6471 -0.1777  0.5471
    9SAPS   H3R 1103   3.456   3.883   6.941  0.9453 -0.3569  2.2204
    9SAPS   H3S 1104   3.508   3.745   6.856  0.9996  2.3404 -0.1066
    9SAPS   C24 1105   3.472   3.708   7.067  0.1502 -0.1719 -0.3888
    9SAPS   H4R 1106   3.475   3.600   7.042  1.7201 -0.1701 -0.2819
    9SAPS   H4S 1107   3.386   3.733   7.132 -0.7356 -2.0757 -0.8086
    9SAPS   C25 1108   3.609   3.741   7.124 -0.1354 -0.4884  0.7399
    9SAPS   H5R 1109   3.688   3.759   7.049 -1.3623  0.4918 -0.3307
    9SAPS   C26 1110   3.632   3.761   7.255 -0.4849 -0.1750 -0.3387
    9SAPS   H6R 1111   3.730   3.797   7.291  0.1674 -1.1144 -1.1252
    9SAPS   C27 1112   3.548   3.729   7.371  0.4469 -0.7762  0.2214
    9SAPS   H7R 1113   3.451   3.684   7.340  0.7542 -0.4808 -1.2100
    9SAPS   H7S 1114   3.516   3.829   7.407  0.7149 -1.1371  1.4534
    9SAPS   C28 1115   3.623   3.639   7.469 -0.5893  0.4993 -0.0802
    9SAPS   H8R 1116   3.616   3.533   7.442 -0.8592  0.9883 -2.0001
    9SAPS   C29 1117   3.673   3.677   7.587 -0.3926 -0.3698  1.1831
    9SAPS   H9R 1118   3.740   3.607   7.640 -0.2862 -1.8077 -0.8134
    9SAPS  C210 1119   3.660   3.816   7.632  0.3313  0.2672 -0.3897
    9SAPS  H10R 1120   3.552   3.841   7.645  0.3361 -0.5175  1.2279
    9SAPS  H10S 1121   3.695   3.891   7.558  1.4510  1.9796  1.8412
    9SAPS  C211 1122   3.726   3.858   7.761  0.1163  0.1485  0.7646
    9SAPS  H11R 1123   3.756   3.769   7.819 -2.8747 -0.6974  1.1000
    9SAPS  C212 1124   3.779   3.975   7.788 -0.9430 -0.6195  0.7216
    9SAPS  H12R 1125   3.824   3.990   7.887  0.1018 -2.6181  0.5709
    9SAPS  C213 1126   3.777   4.097   7.693  0.5653  0.5480 -0.0060
    9SAPS  H13R 1127   3.725   4.079   7.596  0.8177  2.8712 -0.6125
    9SAPS  H13S 1128   3.878   4.138   7.670  0.6661  0.6021  0.5200
    9SAPS  C214 1129   3.718   4.219   7.762  0.2804  0.4848 -0.0146
    9SAPS  H14R 1130   3.615   4.247   7.739 -0.0002 -0.0993  0.5054
    9SAPS  C215 1131   3.786   4.291   7.852  0.4951  0.2709 -0.5165
    9SAPS  H15R 1132   3.722   4.370   7.895 -1.5731 -1.0863 -1.0378
    9SAPS  C216 1133   3.931   4.278   7.893  0.3627 -0.4111 -0.5506
    9SAPS  H16R 1134   3.986   4.374   7.894  2.5516 -1.6408  1.5825
    9SAPS  H16S 1135   3.988   4.204   7.833  0.0405 -2.2049  1.3192
    9SAPS  C217 1136   3.949   4.223   8.037  0.5032 -0.2817  0.3599
    9SAPS  H17R 1137   3.864   4.157   8.065  0.0662  0.3604  0.5428
    9SAPS  H17S 1138   3.925   4.306   8.106  1.8136  1.1355 -0.8419
    9SAPS  C218 1139   4.085   4.150   8.071  0.0921  0.2678 -0.2626
    9SAPS  H18R 1140   4.169   4.193   8.013  0.1509 -0.9401 -1.0989
    9SAPS  H18S 1141   4.073   4.047   8.030 -3.5566  0.5178 -0.0094
    9SAPS  C219 1142   4.119   4.141   8.220 -0.3347  0.2661  0.5365
    9SAPS  H19R 1143   4.083   4.232   8.272 -0.1137 -0.3363  1.7674
    9SAPS  H19S 1144   4.229   4.157   8.225 -0.1531 -0.5073 -0.8992
    9SAPS  C220 1145   4.070   4.010   8.294 -0.5649 -0.4861  0.4483
    9SAPS  H20R 1146   4.114   4.002   8.396  0.2159  0.9161  0.2358
    9SAPS  H20S 1147   4.104   3.918   8.241  0.7834 -0.5011  1.3052
    9SAPS  H20T 1148   3.960   4.003   8.295 -0.5130 -1.5543 -0.2972
    9SAPS   C33 1149   3.169   4.377   6.980 -0.1780  0.4349  0.1782
    9SAPS   H3X 1150   3.175   4.421   7.082 -0.5877  0.1365  0.3300
    9SAPS   H3Y 1151   3.184   4.461   6.909  1.2345 -0.3055 -0.4056
    9SAPS   C34 1152   3.268   4.261   6.960 -0.9299  0.1465 -0.4372
    9SAPS   H4X 1153   3.369   4.306   6.972 -0.1551 -2.0247  1.4621
    9SAPS   H4Y 1154   3.248   4.219   6.859 -1.6378 -0.2876 -0.1171
    9SAPS   C35 1155   3.260   4.141   7.056 -0.1070  0.1222 -0.3087
    9SAPS   H5X 1156   3.356   4.089   7.034 -1.1681 -1.4489 -1.3150
    9SAPS   H5Y 1157   3.188   4.060   7.031  0.4037 -0.6349  0.6299
    9SAPS   C36 1158   3.249   4.170   7.209 -0.1930 -0.0426  0.1459
    9SAPS   H6X 1159   3.146   4.203   7.236 -0.0874  1.5537 -1.2878
    9SAPS   H6Y 1160   3.318   4.254   7.232 -0.8297 -0.8150  5.6406
    9SAPS   C37 1161   3.308   4.063   7.306  0.6827  0.0910  0.6047
    9SAPS   H7X 1162   3.418   4.050   7.294  0.7960  1.3456  0.2537
    9SAPS   H7Y 1163   3.268   3.960   7.291  1.2558 -0.2524  1.3978
    9SAPS   C38 1164   3.275   4.103   7.449 -0.2585  0.2169 -0.1425
    9SAPS   H8X 1165   3.270   4.010   7.508  0.8251  0.0660 -0.2668
    9SAPS   H8Y 1166   3.186   4.169   7.438  0.7277  1.9824  2.0232
    9SAPS   C39 1167   3.389   4.175   7.530  0.5797 -0.4677  0.0258
    9SAPS   H9X 1168   3.415   4.259   7.462 -0.2279 -1.8380 -2.0131
    9SAPS   H9Y 1169   3.480   4.112   7.527  0.8262 -0.1084 -0.0967
    9SAPS  C310 1170   3.337   4.214   7.669  0.3912  0.1428  0.3513
    9SAPS  H10X 1171   3.236   4.259   7.658 -0.0822 -0.9008  0.3382
    9SAPS  H10Y 1172   3.397   4.297   7.712 -2.7107  2.4212  0.4242
    9SAPS  C311 1173   3.324   4.091   7.757 -0.4859 -0.3733  0.0617
    9SAPS  H11X 1174   3.427   4.055   7.778  0.5547  2.2012 -0.4040
    9SAPS  H11Y 1175   3.260   4.010   7.715 -0.6983 -0.7459  1.1037
    9SAPS  C312 1176   3.250   4.128   7.887  0.2165 -0.2592  0.6865
    9SAPS  H12X 1177   3.146   4.164   7.868  0.7181  0.4043 -0.8169
    9SAPS  H12Y 1178   3.322   4.187   7.947  1.6969 -2.2204  0.9025
    9SAPS  C313 1179   3.230   4.005   7.977  0.0854 -0.2096 -0.0077
    9SAPS  H13X 1180   3.330   3.961   7.994  0.3791  0.2852 -0.4736
    9SAPS  H13Y 1181   3.171   3.923   7.930  0.6590 -1.6784  1.7574
    9SAPS  C314 1182   3.148   4.030   8.104 -0.7832  0.1048  0.1283
    9SAPS  H14X 1183   3.043   4.042   8.070 -1.0409 -0.0380  0.8651
    9SAPS  H14Y 1184   3.167   4.131   8.147 -3.6621  0.7080  0.1162
    9SAPS  C315 1185   3.166   3.919   8.212 -0.0466 -0.0246 -0.7614
    9SAPS  H15X 1186   3.271   3.918   8.248  0.2138  1.4809 -1.4314
    9SAPS  H15Y 1187   3.145   3.821   8.164  0.6013  0.4002 -1.9316
    9SAPS  C316 1188   3.079   3.954   8.340  0.5252 -0.1408 -0.1268
    9SAPS  H16X 1189   3.067   4.064   8.348  0.2014 -0.1399 -0.5962
    9SAPS  H16Y 1190   3.134   3.920   8.431 -2.1957  0.3722  1.7762
    9SAPS  C317 1191   2.934   3.909   8.356  0.1880 -0.1295  0.4513
    9SAPS  H17X 1192   2.935   3.798   8.350  2.9900 -0.3535  3.7622
    9SAPS  H17Y 1193   2.875   3.950   8.271 -2.0293  0.2747  2.1238
    9SAPS  C318 1194   2.870   3.960   8.483 -0.5216 -0.5326 -0.6803
    9SAPS  H18X 1195   2.777   3.901   8.502 -2.2243  1.7894 -1.5211
    9SAPS  H18Y 1196   2.847   4.068   8.467 -0.6409 -0.3767  0.5123
    9SAPS  H18Z 1197   2.942   3.940   8.564  0.7021 -0.2922 -1.6891
   10SAPS     N 1198   3.025   3.413   6.272  0.0564 -0.3713  0.3236
   10SAPS   HN1 1199   3.118   3.448   6.241 -0.3184  1.9469  1.6963
   10SAPS   HN2 1200   2.971   3.473   6.337 -3.2590 -1.1117 -1.6313
   10SAPS   HN3 1201   3.046   3.319   6.311  1.6486  0.0636  0.5385
   10SAPS   C12 1202   2.943   3.389   6.147  0.2485  0.9512 -0.5620
   10SAPS  H12A 1203   2.904   3.487   6.125  0.1046  1.5976  2.3900
   10SAPS   C13 1204   3.029   3.329   6.035  0.3585 -0.7343 -0.1470
   10SAPS  O13A 1205   3.151   3.299   6.065 -0.4237 -0.2133 -0.1083
   10SAPS  O13B 1206   2.991   3.307   5.917  0.1229 -0.1945 -0.0325
   10SAPS   C11 1207   2.829   3.291   6.190  0.0410 -0.4622 -0.0738
   10SAPS  H11A 1208   2.869   3.188   6.196 -0.5989 -0.8544 -2.1438
   10SAPS  H11B 1209   2.763   3.302   6.101  1.3282  0.0041 -0.9891
   10SAPS     P 1210   2.620   3.278   6.358 -0.2306 -0.1737 -0.4754
   10SAPS   O13 1211   2.544   3.403   6.392  0.1117 -0.0274 -0.1282
   10SAPS   O14 1212   2.559   3.192   6.253 -0.2853  0.9608 -0.0071
   10SAPS   O12 1213   2.762   3.335   6.313 -0.0214  0.0812  0.2027
   10SAPS   O11 1214   2.652   3.208   6.492  0.5389  0.2581  0.6847
   10SAPS    C1 1215   2.778   3.152   6.528 -0.1686 -0.2084 -0.3597
   10SAPS    HA 1216   2.762   3.044   6.548  2.6454 -0.5247  0.3592
   10SAPS    HB 1217   2.851   3.153   6.444  1.4748 -0.0157  1.0467
   10SAPS    C2 1218   2.839   3.232   6.652 -0.5163  0.8229 -0.4557
   10SAPS    HS 1219   2.942   3.194   6.670 -1.2953 -0.8876  0.5789
   10SAPS   O21 1220   2.768   3.203   6.777 -0.0591  0.5876 -0.2382
   10SAPS   C21 1221   2.785   3.083   6.831 -0.4151 -1.1764  0.3377
   10SAPS   O22 1222   2.861   2.995   6.799 -0.1450  0.2112  0.0595
   10SAPS   C22 1223   2.675   3.078   6.940  0.2480 -0.5380  0.0593
   10SAPS   H2R 1224   2.718   3.145   7.018  0.8085 -1.1271  0.2640
   10SAPS   H2S 1225   2.580   3.125   6.909 -0.3201 -1.6386  0.1102
   10SAPS    C3 1226   2.843   3.385   6.625 -0.5549  0.2579  0.3473
   10SAPS    HX 1227   2.739   3.415   6.599 -1.2332 -1.9379  0.4491
   10SAPS    HY 1228   2.898   3.398   6.529 -1.4193 -0.0505 -0.2010
   10SAPS   O31 1229   2.916   3.465   6.724  0.4083 -0.3012  0.4369
   10SAPS   C31 1230   2.828   3.548   6.785 -0.6546  0.5729 -0.3278
   10SAPS   O32 1231   2.713   3.566   6.753  0.0129 -0.2925  0.5404
   10SAPS   C32 1232   2.896   3.613   6.901 -0.0973 -0.1641  0.3346
   10SAPS   H2X 1233   2.988   3.660   6.862 -0.6630  1.5307  0.9757
   10SAPS   H2Y 1234   2.926   3.543   6.982  0.1328 -0.3934  0.0471
   10SAPS   C23 1235   2.642   2.937   6.986  0.1150  0.0260  0.4310
   10SAPS   H3R 1236   2.735   2.896   7.033 -0.4091 -0.0454  1.4131
   10SAPS   H3S 1237   2.619   2.884   6.892  1.9782 -1.1520  0.6109
   10SAPS   C24 1238   2.512   2.935   7.073 -0.5924  0.2476 -0.2856
   10SAPS   H4R 1239   2.522   2.995   7.166 -2.0015  0.1685 -0.0622
   10SAPS   H4S 1240   2.496   2.829   7.104  0.5553 -0.3338 -1.6352
   10SAPS   C25 1241   2.386   2.963   7.000  0.4024 -0.0210  0.0250
   10SAPS   H5R 1242   2.377   2.916   6.901  1.6611 -3.6213  1.5329
   10SAPS   C26 1243   2.278   3.040   7.032 -0.0364  0.3256 -0.1821
   10SAPS   H6R 1244   2.192   3.032   6.963 -0.1012 -0.7201  0.0195
   10SAPS   C27 1245   2.253   3.116   7.162  0.3351  0.3076  0.7495
   10SAPS   H7R 1246   2.197   3.207   7.131 -2.3456 -1.4299  0.3335
   10SAPS   H7S 1247   2.348   3.142   7.213  0.5713 -1.6787  1.3401
   10SAPS   C28 1248   2.149   3.060   7.250 -0.3207  0.7686 -0.1905
   10SAPS   H8R 1249   2.107   2.966   7.212 -0.7004  0.6392  0.5550
   10SAPS   C29 1250   2.101   3.116   7.359  0.2586 -0.2539  0.2593
   10SAPS   H9R 1251   2.019   3.070   7.415  1.3794 -1.6286  0.8085
   10SAPS  C210 1252   2.148   3.248   7.421  0.2353  0.0977  0.7237
   10SAPS  H10R 1253   2.259   3.244   7.428  0.2032 -0.3898  0.9990
   10SAPS  H10S 1254   2.099   3.266   7.519 -2.0116 -2.2327  0.0726
   10SAPS  C211 1255   2.130   3.376   7.342  0.1852 -0.5387 -0.1717
   10SAPS  H11R 1256   2.078   3.370   7.246  2.9184 -0.6137 -1.7095
   10SAPS  C212 1257   2.151   3.498   7.388  0.3425 -0.3631  0.4011
   10SAPS  H12R 1258   2.137   3.582   7.318  2.3804 -0.8815 -0.6418
   10SAPS  C213 1259   2.211   3.537   7.526  0.1186 -0.1527  0.3872
   10SAPS  H13R 1260   2.190   3.447   7.587 -2.1028 -0.1629 -0.3410
   10SAPS  H13S 1261   2.144   3.607   7.581 -1.7880 -1.4126 -0.2460
   10SAPS  C214 1262   2.352   3.572   7.547 -0.1260  0.3337 -0.2512
   10SAPS  H14R 1263   2.382   3.653   7.479  0.9927 -1.2190 -1.6681
   10SAPS  C215 1264   2.448   3.511   7.627  0.0591 -0.0735  0.5494
   10SAPS  H15R 1265   2.553   3.545   7.629 -0.1881  0.7441  4.1178
   10SAPS  C216 1266   2.412   3.404   7.730  0.5154  0.1709 -0.6537
   10SAPS  H16R 1267   2.489   3.325   7.744  0.1278  0.0894  1.1197
   10SAPS  H16S 1268   2.324   3.341   7.706 -2.0344  2.3583  2.4407
   10SAPS  C217 1269   2.391   3.478   7.864 -0.0250  0.0283  0.0091
   10SAPS  H17R 1270   2.314   3.553   7.838  1.7557  1.9587  0.1437
   10SAPS  H17S 1271   2.480   3.534   7.900 -0.6425  0.6649  0.5675
   10SAPS  C218 1272   2.333   3.378   7.964  0.0118  0.5463  0.6091
   10SAPS  H18R 1273   2.406   3.293   7.963  0.3502  0.8091 -3.2828
   10SAPS  H18S 1274   2.239   3.331   7.928  0.3956 -1.1213  1.6738
   10SAPS  C219 1275   2.326   3.434   8.106 -0.2263 -0.6364 -0.4438
   10SAPS  H19R 1276   2.258   3.521   8.101  0.2954 -0.3305 -4.2021
   10SAPS  H19S 1277   2.427   3.471   8.130 -0.5550 -0.3603  0.5173
   10SAPS  C220 1278   2.272   3.327   8.205 -0.3745  0.3175  0.8299
   10SAPS  H20R 1279   2.322   3.228   8.194 -0.6273  0.1764  0.9379
   10SAPS  H20S 1280   2.165   3.310   8.183 -0.4862  1.7541  0.2652
   10SAPS  H20T 1281   2.284   3.356   8.312  0.4936  0.1322  0.7899
   10SAPS   C33 1282   2.806   3.728   6.950 -0.5871  0.4227 -0.0158
   10SAPS   H3X 1283   2.705   3.702   6.987 -0.0763  0.0169  1.0906
   10SAPS   H3Y 1284   2.799   3.805   6.870 -1.8071 -0.2320 -0.5443
   10SAPS   C34 1285   2.881   3.801   7.068  0.6168 -0.5096  0.4694
   10SAPS   H4X 1286   2.806   3.862   7.123  1.4101  0.3726  0.5752
   10SAPS   H4Y 1287   2.953   3.879   7.035 -0.4521 -0.4773 -1.8508
   10SAPS   C35 1288   2.962   3.707   7.161  0.1583  0.5945  0.3961
   10SAPS   H5X 1289   3.050   3.683   7.097  0.7270  3.2455  0.0911
   10SAPS   H5Y 1290   2.896   3.621   7.181  0.4737 -0.1445 -1.6276
   10SAPS   C36 1291   3.011   3.775   7.287 -0.2922 -0.3786 -0.0193
   10SAPS   H6X 1292   2.925   3.808   7.348  0.0888  0.7741 -0.0928
   10SAPS   H6Y 1293   3.060   3.870   7.256 -0.0455 -0.4765  0.0654
   10SAPS   C37 1294   3.118   3.697   7.361  0.1302 -0.0213 -0.4860
   10SAPS   H7X 1295   3.215   3.712   7.309 -0.4146 -0.5917 -1.6890
   10SAPS   H7Y 1296   3.083   3.591   7.361 -0.4800  0.1753  0.2117
   10SAPS   C38 1297   3.121   3.746   7.506 -0.2732 -0.2971  0.7448
   10SAPS   H8X 1298   3.016   3.744   7.544  0.1010  1.5008  1.9665
   10SAPS   H8Y 1299   3.153   3.852   7.518  1.4750 -0.6872 -0.3668
   10SAPS   C39 1300   3.221   3.655   7.581 -0.5729  0.3614  0.1787
   10SAPS   H9X 1301   3.316   3.650   7.523 -1.1854  1.8587 -0.9939
   10SAPS   H9Y 1302   3.176   3.554   7.584  0.6974 -0.2559 -1.2347
   10SAPS  C310 1303   3.246   3.694   7.724  0.8339 -0.9463 -0.1350
   10SAPS  H10X 1304   3.151   3.688   7.781  0.3233 -0.5119 -0.9407
   10SAPS  H10Y 1305   3.279   3.800   7.723 -0.3138 -0.5864 -1.0747
   10SAPS  C311 1306   3.345   3.606   7.800  0.1685 -0.4536  0.8099
   10SAPS  H11X 1307   3.444   3.628   7.754 -0.3317 -0.8013 -0.4489
   10SAPS  H11Y 1308   3.308   3.505   7.773 -0.7913  0.4242 -1.3017
   10SAPS  C312 1309   3.332   3.612   7.954 -0.3887  0.0909 -0.3888
   10SAPS  H12X 1310   3.234   3.575   7.991 -0.4517  1.0437  0.4274
   10SAPS  H12Y 1311   3.341   3.720   7.978 -0.2764  0.2489 -1.1117
   10SAPS  C313 1312   3.447   3.546   8.027  0.3074 -0.0317 -0.0882
   10SAPS  H13X 1313   3.466   3.449   7.975 -1.2472 -0.7717  0.6706
   10SAPS  H13Y 1314   3.412   3.524   8.130  0.1313 -0.6046 -0.2666
   10SAPS  C314 1315   3.581   3.613   8.015  0.0867  0.1994 -0.2586
   10SAPS  H14X 1316   3.572   3.711   8.066 -2.1444  1.9111 -3.7797
   10SAPS  H14Y 1317   3.597   3.639   7.909 -0.7923 -1.4531 -0.8181
   10SAPS  C315 1318   3.692   3.531   8.075 -0.0888  0.4878  0.3088
   10SAPS  H15X 1319   3.691   3.430   8.030  0.3429  0.5347  0.1942
   10SAPS  H15Y 1320   3.673   3.526   8.185 -3.5212 -1.5427 -0.2930
   10SAPS  C316 1321   3.830   3.603   8.051 -0.4123  0.2845 -0.2151
   10SAPS  H16X 1322   3.844   3.709   8.084  0.9297 -0.0933  0.4729
   10SAPS  H16Y 1323   3.845   3.600   7.941 -0.2141 -0.4044 -0.1728
   10SAPS  C317 1324   3.950   3.515   8.094  0.4199  0.1904 -0.1827
   10SAPS  H17X 1325   3.935   3.416   8.046 -0.6956  0.8757 -1.2877
   10SAPS  H17Y 1326   3.947   3.507   8.205  2.2985 -3.2648 -0.3197
   10SAPS  C318 1327   4.083   3.571   8.045  0.2846  0.0658  0.2686
   10SAPS  H18X 1328   4.083   3.678   8.075 -1.3928 -0.0703  0.7852
   10SAPS  H18Y 1329   4.085   3.566   7.934 -1.6336  0.5185  0.2045
   10SAPS  H18Z 1330   4.171   3.517   8.087  1.0848  0.2272 -1.1640
   11SAPS     N 1331   4.388   6.767   5.625  0.3618  0.6410  0.0329
   11SAPS   HN1 1332   4.442   6.807   5.546 -0.1604 -3.2482 -2.4650
   11SAPS   HN2 1333   4.284   6.761   5.621  0.4849 -2.4627  0.3219
   11SAPS   HN3 1334   4.409   6.822   5.710 -0.8188  0.4986  0.4277
   11SAPS   C12 1335   4.441   6.623   5.636  0.6231  0.4838  0.3866
   11SAPS  H12A 1336   4.411   6.566   5.549  0.4819 -0.5595  1.1085
   11SAPS   C13 1337   4.597   6.621   5.658  0.4345  0.2052 -0.3509
   11SAPS  O13A 1338   4.651   6.732   5.688 -0.2389  0.2276 -0.2559
   11SAPS  O13B 1339   4.658   6.509   5.674  0.4815  0.1774  0.2958
   11SAPS   C11 1340   4.365   6.551   5.758  0.4423  0.2075  0.2675
   11SAPS  H11A 1341   4.389   6.587   5.860 -1.5874  1.3863  0.3484
   11SAPS  H11B 1342   4.400   6.446   5.749 -1.6422 -0.6071  1.2684
   11SAPS     P 1343   4.109   6.629   5.803  0.0102  0.0148 -0.1410
   11SAPS   O13 1344   4.135   6.768   5.768 -0.3990 -0.1950 -0.1562
   11SAPS   O14 1345   3.975   6.581   5.777  0.3949 -0.4026 -0.6915
   11SAPS   O12 1346   4.226   6.542   5.728  0.2304  0.5073 -0.7546
   11SAPS   O11 1347   4.140   6.613   5.956  0.0762 -0.0133  0.1830
   11SAPS    C1 1348   4.098   6.493   6.020 -1.0500  0.1891  0.0478
   11SAPS    HA 1349   3.999   6.506   6.068 -0.2048 -0.9251  2.1668
   11SAPS    HB 1350   4.096   6.400   5.959  4.6779 -0.4805  0.5760
   11SAPS    C2 1351   4.192   6.452   6.141  1.2195  0.0753  0.1800
   11SAPS    HS 1352   4.148   6.363   6.192  0.2939 -0.0133 -0.7573
   11SAPS   O21 1353   4.211   6.563   6.233 -0.0219  0.2723 -0.0352
   11SAPS   C21 1354   4.117   6.589   6.318  0.3603  0.5787 -0.1961
   11SAPS   O22 1355   4.013   6.523   6.329 -0.2461 -0.0254 -0.6396
   11SAPS   C22 1356   4.156   6.705   6.402 -0.4401 -0.0788  0.0671
   11SAPS   H2R 1357   4.250   6.753   6.369  0.7636 -2.2123  0.2609
   11SAPS   H2S 1358   4.070   6.773   6.387  0.2400  0.7689 -0.0661
   11SAPS    C3 1359   4.337   6.398   6.092 -0.5740 -0.3450 -0.3301
   11SAPS    HX 1360   4.384   6.480   6.034 -0.2488  1.0449  1.8212
   11SAPS    HY 1361   4.328   6.326   6.008  0.2643  0.9255 -1.5447
   11SAPS   O31 1362   4.411   6.359   6.215 -0.1219  0.6835  0.8500
   11SAPS   C31 1363   4.474   6.245   6.207  0.0599 -0.0320 -0.4108
   11SAPS   O32 1364   4.474   6.170   6.111  0.5203  0.2222  0.5433
   11SAPS   C32 1365   4.554   6.207   6.339 -0.7004  0.8475 -0.4753
   11SAPS   H2X 1366   4.491   6.197   6.430 -0.4933 -0.6000 -0.4768
   11SAPS   H2Y 1367   4.633   6.281   6.361  1.6908 -1.5146 -0.8075
   11SAPS   C23 1368   4.157   6.663   6.552 -1.1636 -0.1745 -0.1910
   11SAPS   H3R 1369   4.223   6.575   6.568  0.6505  1.0226 -0.8525
   11SAPS   H3S 1370   4.052   6.630   6.569 -0.9919 -0.0408  1.1159
   11SAPS   C24 1371   4.196   6.780   6.649  0.2086 -1.1042 -0.8082
   11SAPS   H4R 1372   4.300   6.818   6.640  0.7014 -1.7150  1.7545
   11SAPS   H4S 1373   4.177   6.730   6.747  0.1647  0.4514 -0.0158
   11SAPS   C25 1374   4.121   6.908   6.651  0.1442  0.2803  1.0760
   11SAPS   H5R 1375   4.076   6.942   6.557  0.9062 -1.6087  0.0162
   11SAPS   C26 1376   4.084   6.980   6.760  0.4230  0.3593  0.1657
   11SAPS   H6R 1377   4.025   7.067   6.730 -0.0161 -0.2454 -0.7641
   11SAPS   C27 1378   4.112   6.951   6.909 -0.2663 -0.0796 -0.4298
   11SAPS   H7R 1379   4.188   7.024   6.945 -1.9342  2.3023 -1.6459
   11SAPS   H7S 1380   4.164   6.854   6.924 -0.8628 -0.5717 -1.4808
   11SAPS   C28 1381   3.992   6.960   7.002  0.9691 -0.3063  0.1968
   11SAPS   H8R 1382   3.893   6.961   6.953  0.0567  1.9382  1.9422
   11SAPS   C29 1383   3.981   6.967   7.139  0.3556 -0.1379  0.0346
   11SAPS   H9R 1384   3.880   6.952   7.180  1.5357 -3.3224  2.0276
   11SAPS  C210 1385   4.098   6.960   7.240 -0.2932  0.0932  0.6997
   11SAPS  H10R 1386   4.194   6.956   7.184  0.3052  0.5862  1.6577
   11SAPS  H10S 1387   4.078   6.863   7.289  0.2753  0.4975  1.7603
   11SAPS  C211 1388   4.117   7.080   7.335 -0.0200 -0.0379  0.7025
   11SAPS  H11R 1389   4.148   7.174   7.288  0.2933  0.3812  1.7206
   11SAPS  C212 1390   4.088   7.096   7.472  0.4554  0.3256  0.0519
   11SAPS  H12R 1391   4.093   7.193   7.523  1.1068  0.1455  0.3227
   11SAPS  C213 1392   4.038   6.981   7.556  0.6037  0.2310 -0.5671
   11SAPS  H13R 1393   4.039   6.884   7.502  2.7540 -0.3103  0.3930
   11SAPS  H13S 1394   3.930   7.001   7.575  0.4137 -1.3053  0.0402
   11SAPS  C214 1395   4.118   6.957   7.683 -0.2050 -0.4061  0.6370
   11SAPS  H14R 1396   4.219   6.922   7.658 -0.4190 -1.1589  0.8314
   11SAPS  C215 1397   4.082   6.982   7.808 -0.9461  0.6625  0.1535
   11SAPS  H15R 1398   4.151   6.963   7.892 -1.2715  1.9711  0.7292
   11SAPS  C216 1399   3.951   7.039   7.856  0.0033 -0.5516  0.1085
   11SAPS  H16R 1400   3.896   7.083   7.770 -1.7989 -2.0893  0.4276
   11SAPS  H16S 1401   3.965   7.124   7.925  1.1591 -0.9630  0.4016
   11SAPS  C217 1402   3.866   6.929   7.915  0.4252 -0.1705 -0.3172
   11SAPS  H17R 1403   3.850   6.840   7.850 -0.6558 -0.8640  0.8750
   11SAPS  H17S 1404   3.764   6.973   7.919  1.5213  2.4807 -0.6266
   11SAPS  C218 1405   3.911   6.883   8.051  0.0263  0.5446 -0.1263
   11SAPS  H18R 1406   4.016   6.845   8.049 -0.8024 -2.0325  2.0352
   11SAPS  H18S 1407   3.854   6.790   8.070  1.1157 -0.0958  0.0863
   11SAPS  C219 1408   3.889   6.983   8.165 -0.2528  0.1863 -0.3094
   11SAPS  H19R 1409   3.800   7.048   8.151 -1.1106 -1.0611 -0.6984
   11SAPS  H19S 1410   3.986   7.035   8.183  0.3152 -1.1630  0.6057
   11SAPS  C220 1411   3.853   6.901   8.290 -0.2460 -0.5167 -0.0269
   11SAPS  H20R 1412   3.879   6.955   8.384 -2.7377 -3.7816  2.6558
   11SAPS  H20S 1413   3.916   6.810   8.300 -2.0734 -1.6843  1.1667
   11SAPS  H20T 1414   3.748   6.866   8.291  0.1319 -1.6607 -0.1172
   11SAPS   C33 1415   4.631   6.075   6.326 -0.2442 -0.0337  0.8673
   11SAPS   H3X 1416   4.715   6.081   6.254  0.9914 -2.5620  2.0216
   11SAPS   H3Y 1417   4.556   6.003   6.286 -0.2977 -0.2823  1.4131
   11SAPS   C34 1418   4.681   6.030   6.463  0.3000  0.4900 -0.3624
   11SAPS   H4X 1419   4.590   6.019   6.524  0.9335  1.5561  0.7992
   11SAPS   H4Y 1420   4.742   6.113   6.504 -1.4110  1.4924  0.1849
   11SAPS   C35 1421   4.779   5.911   6.466 -0.2597 -0.5559  0.1862
   11SAPS   H5X 1422   4.833   5.911   6.369 -1.2577  2.0888 -0.4072
   11SAPS   H5Y 1423   4.716   5.819   6.470 -0.7826 -0.2038  0.1439
   11SAPS   C36 1424   4.890   5.914   6.583 -0.3160  0.0018 -0.2661
   11SAPS   H6X 1425   4.957   6.001   6.571  0.5972 -0.4784  1.1455
   11SAPS   H6Y 1426   4.947   5.819   6.571 -0.5404 -0.1087 -0.4636
   11SAPS   C37 1427   4.824   5.913   6.722  0.0893 -0.5920 -0.0267
   11SAPS   H7X 1428   4.793   5.809   6.744 -0.1330 -0.5312 -0.0589
   11SAPS   H7Y 1429   4.734   5.978   6.728  0.4760  0.2269 -2.5084
   11SAPS   C38 1430   4.933   5.958   6.826  1.3330 -0.5404  0.9589
   11SAPS   H8X 1431   4.948   6.068   6.819 -1.9938 -0.1013 -0.0833
   11SAPS   H8Y 1432   5.031   5.910   6.806  1.5683  0.3536 -0.0486
   11SAPS   C39 1433   4.894   5.930   6.978 -0.7569 -0.3626  0.1556
   11SAPS   H9X 1434   4.987   5.922   7.039 -0.2042  0.2113 -0.6047
   11SAPS   H9Y 1435   4.874   5.821   6.988  0.9075 -0.7579 -0.7056
   11SAPS  C310 1436   4.789   6.025   7.044  0.0294 -0.4135  0.3190
   11SAPS  H10X 1437   4.691   6.034   6.991  0.3311  1.1823  0.0013
   11SAPS  H10Y 1438   4.839   6.124   7.033 -2.8322  1.0857  0.2980
   11SAPS  C311 1439   4.764   5.997   7.195  0.2899  0.3666 -0.2477
   11SAPS  H11X 1440   4.863   5.968   7.238  0.1234  1.2051  0.7218
   11SAPS  H11Y 1441   4.700   5.907   7.197 -0.1486  0.6408 -1.4759
   11SAPS  C312 1442   4.701   6.107   7.271 -0.1415  0.1409  0.6277
   11SAPS  H12X 1443   4.598   6.126   7.233  0.2031 -1.0873 -0.9493
   11SAPS  H12Y 1444   4.764   6.197   7.254 -2.4978  1.8985  0.8745
   11SAPS  C313 1445   4.682   6.072   7.426 -0.3085 -0.0603  0.1232
   11SAPS  H13X 1446   4.784   6.075   7.470 -0.0351  0.8616 -0.5381
   11SAPS  H13Y 1447   4.625   5.980   7.450  0.1749 -1.2514 -3.0411
   11SAPS  C314 1448   4.598   6.189   7.494  0.0083 -0.5200  0.4090
   11SAPS  H14X 1449   4.493   6.201   7.463  0.3777 -1.0020 -1.0567
   11SAPS  H14Y 1450   4.653   6.280   7.463  1.1374 -1.3679 -0.1286
   11SAPS  C315 1451   4.602   6.165   7.647  0.0454  0.7218 -0.1940
   11SAPS  H15X 1452   4.705   6.165   7.689  0.3069  3.8617 -0.7150
   11SAPS  H15Y 1453   4.549   6.069   7.665 -1.2702  1.9959  3.2403
   11SAPS  C316 1454   4.529   6.282   7.710  0.7264 -0.2795  0.4250
   11SAPS  H16X 1455   4.420   6.269   7.695  0.4556  2.0024  0.2807
   11SAPS  H16Y 1456   4.572   6.375   7.668 -0.3911 -0.1599 -0.4822
   11SAPS  C317 1457   4.555   6.298   7.860 -0.6183  0.1012 -0.6005
   11SAPS  H17X 1458   4.511   6.386   7.911 -0.4206 -1.3101  2.0828
   11SAPS  H17Y 1459   4.665   6.312   7.869 -0.7638  0.2565  1.0801
   11SAPS  C318 1460   4.504   6.181   7.943  0.3859 -0.0223  0.1353
   11SAPS  H18X 1461   4.555   6.175   8.042 -1.6023 -3.0348  1.0648
   11SAPS  H18Y 1462   4.529   6.087   7.889  0.6243  0.6588 -0.9578
   11SAPS  H18Z 1463   4.396   6.190   7.964 -0.1845  0.0453 -2.7088
   12SAPS     N 1464   4.229   1.100   6.108 -0.0216 -0.1749 -0.7263
   12SAPS   HN1 1465   4.270   1.089   6.203 -1.3434  0.9256 -0.0078
   12SAPS   HN2 1466   4.152   1.167   6.129  0.5930  0.1313  0.5784
   12SAPS   HN3 1467   4.199   1.006   6.074  2.1056 -2.4812  3.2947
   12SAPS   C12 1468   4.324   1.160   6.015 -0.2653  0.2265  0.2439
   12SAPS  H12A 1469   4.372   1.078   5.963 -1.2829 -0.6036  0.5844
   12SAPS   C13 1470   4.253   1.258   5.922 -0.0659  0.1346 -0.0269
   12SAPS  O13A 1471   4.128   1.261   5.909  0.3453  0.1500 -0.1354
   12SAPS  O13B 1472   4.323   1.318   5.837  0.7524  0.7426 -0.0508
   12SAPS   C11 1473   4.436   1.238   6.105 -0.2905  0.2613  0.5129
   12SAPS  H11A 1474   4.385   1.311   6.173 -1.7344  0.7104 -1.0171
   12SAPS  H11B 1475   4.507   1.299   6.045  1.8008  0.5122  3.1225
   12SAPS     P 1476   4.660   1.114   6.170 -0.1350 -0.2310  0.1021
   12SAPS   O13 1477   4.682   1.033   6.053  0.0226 -0.6308  0.3332
   12SAPS   O14 1478   4.740   1.241   6.177 -0.6135  0.3236 -0.2156
   12SAPS   O12 1479   4.507   1.150   6.190  0.2688 -0.1746 -0.0569
   12SAPS   O11 1480   4.698   1.033   6.301  0.0306  0.1433  0.1164
   12SAPS    C1 1481   4.705   0.891   6.291 -0.2072  0.4709 -0.2002
   12SAPS    HA 1482   4.617   0.850   6.236 -1.3916 -0.4031  2.2208
   12SAPS    HB 1483   4.787   0.845   6.232 -0.9531  0.2008 -1.0392
   12SAPS    C2 1484   4.709   0.818   6.431 -0.7728  0.2048 -1.1237
   12SAPS    HS 1485   4.677   0.712   6.419  0.5238 -0.1322 -1.6350
   12SAPS   O21 1486   4.622   0.880   6.527 -0.1272 -0.1031 -0.3583
   12SAPS   C21 1487   4.490   0.888   6.491 -0.5496  0.8127  0.0317
   12SAPS   O22 1488   4.443   0.848   6.384  0.3885 -0.2183 -0.2239
   12SAPS   C22 1489   4.407   0.966   6.596  0.0273 -0.6667 -0.2121
   12SAPS   H2R 1490   4.421   0.900   6.685  1.6269  3.7134  2.9840
   12SAPS   H2S 1491   4.465   1.060   6.611  0.8557 -1.5401  2.3897
   12SAPS    C3 1492   4.857   0.806   6.489 -0.0461 -0.2355  0.5253
   12SAPS    HX 1493   4.906   0.905   6.475 -0.3823  0.1041  1.6945
   12SAPS    HY 1494   4.914   0.731   6.430 -0.6888 -0.8609  0.6950
   12SAPS   O31 1495   4.861   0.749   6.624  0.5220 -0.9721 -0.7402
   12SAPS   C31 1496   4.931   0.825   6.709  0.2569 -0.5845 -0.4127
   12SAPS   O32 1497   5.012   0.914   6.676 -0.3619  0.8168  0.7048
   12SAPS   C32 1498   4.909   0.775   6.856  0.3807  0.0772 -0.3806
   12SAPS   H2X 1499   5.011   0.763   6.898  0.0958 -1.1976 -0.0393
   12SAPS   H2Y 1500   4.855   0.679   6.845  0.5576 -0.1826  0.9745
   12SAPS   C23 1501   4.262   1.006   6.551  1.0890  0.0747 -0.0963
   12SAPS   H3R 1502   4.265   1.053   6.450 -1.8725 -1.0122 -0.7627
   12SAPS   H3S 1503   4.221   1.084   6.619  2.3010 -0.8776  1.7722
   12SAPS   C24 1504   4.152   0.894   6.552  0.1452 -0.1302 -0.3752
   12SAPS   H4R 1505   4.152   0.838   6.648 -0.6705 -1.3038 -1.0332
   12SAPS   H4S 1506   4.194   0.825   6.476  3.7901  0.6992  0.8142
   12SAPS   C25 1507   4.017   0.942   6.521  0.6204  0.1337 -0.1531
   12SAPS   H5R 1508   3.995   0.981   6.421 -0.2836 -2.1461 -0.8766
   12SAPS   C26 1509   3.917   0.936   6.609  0.1308  0.5548  0.4239
   12SAPS   H6R 1510   3.818   0.967   6.573  0.6550  1.1561 -0.5083
   12SAPS   C27 1511   3.906   0.864   6.746  0.7047 -0.9983  0.0482
   12SAPS   H7R 1512   3.831   0.915   6.812 -1.9118 -1.1932 -2.6645
   12SAPS   H7S 1513   4.004   0.877   6.797  0.7218  1.5043 -0.5480
   12SAPS   C28 1514   3.878   0.715   6.727 -0.0240  0.0976  0.1532
   12SAPS   H8R 1515   3.834   0.682   6.632 -1.7178 -2.4494  1.7490
   12SAPS   C29 1516   3.915   0.623   6.814  0.4680 -0.4582  0.0573
   12SAPS   H9R 1517   3.890   0.517   6.799 -1.5787 -0.0233  0.1736
   12SAPS  C210 1518   3.979   0.664   6.947  0.4391  0.3139  0.1523
   12SAPS  H10R 1519   3.941   0.761   6.985 -2.0941 -1.0239  1.1787
   12SAPS  H10S 1520   4.090   0.661   6.945  0.4387  1.2118 -2.1581
   12SAPS  C211 1521   3.941   0.565   7.052  0.6732 -0.4124  0.3722
   12SAPS  H11R 1522   3.903   0.468   7.016 -1.2830  1.1239 -1.8197
   12SAPS  C212 1523   3.931   0.599   7.186  0.3232  0.5261 -0.5728
   12SAPS  H12R 1524   3.901   0.517   7.253  0.7058  0.5153 -0.4152
   12SAPS  C213 1525   3.968   0.733   7.248  0.0943 -0.4375  0.1235
   12SAPS  H13R 1526   3.890   0.753   7.324 -0.0726  2.6252 -0.7878
   12SAPS  H13S 1527   3.950   0.818   7.178  1.1494  0.2227  0.6591
   12SAPS  C214 1528   4.114   0.762   7.290  0.0299 -0.0058  0.5125
   12SAPS  H14R 1529   4.177   0.827   7.227  0.4311 -0.9600 -0.0888
   12SAPS  C215 1530   4.183   0.703   7.389 -1.0681  1.0773 -0.1517
   12SAPS  H15R 1531   4.287   0.734   7.403 -0.1229 -1.8050 -0.4142
   12SAPS  C216 1532   4.127   0.612   7.484 -0.4200  0.5838 -0.5426
   12SAPS  H16R 1533   4.199   0.530   7.506 -0.1950  1.1999  1.0921
   12SAPS  H16S 1534   4.027   0.572   7.458 -0.0120 -0.7388 -0.1307
   12SAPS  C217 1535   4.106   0.673   7.622  0.3014  0.2647 -0.1860
   12SAPS  H17R 1536   4.065   0.775   7.607 -1.1813 -0.4924 -1.4787
   12SAPS  H17S 1537   4.200   0.681   7.681  0.8075  0.1822 -0.9641
   12SAPS  C218 1538   4.014   0.585   7.715  0.3406 -0.7473 -0.6771
   12SAPS  H18R 1539   4.071   0.491   7.727  3.2043  0.7562 -2.0522
   12SAPS  H18S 1540   3.921   0.569   7.657 -0.0863  0.8893 -0.4722
   12SAPS  C219 1541   3.979   0.652   7.856 -0.0656  0.3175  0.5122
   12SAPS  H19R 1542   4.078   0.661   7.904  1.0029 -1.9593 -1.1948
   12SAPS  H19S 1543   3.919   0.581   7.916 -0.8575 -1.5954 -2.4116
   12SAPS  C220 1544   3.896   0.777   7.844 -0.0696 -0.4161 -0.3903
   12SAPS  H20R 1545   3.798   0.749   7.801  0.7616 -1.0833 -1.8932
   12SAPS  H20S 1546   3.957   0.851   7.789 -1.0483  0.8992  0.2774
   12SAPS  H20T 1547   3.868   0.819   7.943  1.4253 -0.7015  0.1736
   12SAPS   C33 1548   4.828   0.872   6.943  0.5139  0.1529 -0.3095
   12SAPS   H3X 1549   4.888   0.965   6.956  2.7137 -1.3924  0.9295
   12SAPS   H3Y 1550   4.836   0.828   7.045  1.2170  0.1385 -0.3669
   12SAPS   C34 1551   4.678   0.894   6.907 -0.0272  0.2258  1.1312
   12SAPS   H4X 1552   4.626   0.796   6.913 -0.0910  0.1106 -0.8271
   12SAPS   H4Y 1553   4.661   0.927   6.802  0.5236  1.7714  1.5135
   12SAPS   C35 1554   4.594   0.989   6.986  0.5327  0.0150 -0.1202
   12SAPS   H5X 1555   4.487   0.971   6.962  0.6258  0.1598 -0.6573
   12SAPS   H5Y 1556   4.615   1.091   6.949  4.1228 -1.0720 -1.3175
   12SAPS   C36 1557   4.603   0.975   7.136  0.1601  0.8913 -0.0318
   12SAPS   H6X 1558   4.708   0.984   7.169 -0.0107  2.5325  0.1030
   12SAPS   H6Y 1559   4.566   0.873   7.162  1.1934  0.0382 -1.7949
   12SAPS   C37 1560   4.531   1.087   7.209 -0.8624 -0.3073  0.2205
   12SAPS   H7X 1561   4.422   1.082   7.189 -1.2099  1.2078  1.6390
   12SAPS   H7Y 1562   4.570   1.185   7.174  0.7339 -0.8166  0.5679
   12SAPS   C38 1563   4.550   1.085   7.362 -0.4780  0.0708  0.9078
   12SAPS   H8X 1564   4.531   1.191   7.389  0.1754  0.4416 -0.0376
   12SAPS   H8Y 1565   4.661   1.085   7.371 -0.5090 -1.8716  1.3355
   12SAPS   C39 1566   4.473   0.984   7.440  0.2144  0.5892 -0.1940
   12SAPS   H9X 1567   4.504   0.879   7.424  0.3545  0.4748  0.8003
   12SAPS   H9Y 1568   4.364   0.988   7.419  0.2204 -0.8580 -0.5266
   12SAPS  C310 1569   4.480   1.000   7.591 -0.4351  0.3328 -0.3967
   12SAPS  H10X 1570   4.415   1.080   7.633 -0.6280 -0.4729  0.8806
   12SAPS  H10Y 1571   4.585   1.018   7.623 -0.3371 -0.7055 -0.1176
   12SAPS  C311 1572   4.448   0.865   7.667 -0.0470  0.1612 -1.2219
   12SAPS  H11X 1573   4.546   0.816   7.683 -0.3129  0.6789  2.4967
   12SAPS  H11Y 1574   4.379   0.797   7.614 -0.3993  0.2241 -0.8430
   12SAPS  C312 1575   4.383   0.895   7.809 -0.1166  0.3877 -0.2499
   12SAPS  H12X 1576   4.374   0.803   7.871  0.3492 -0.0351 -0.8015
   12SAPS  H12Y 1577   4.280   0.935   7.798 -0.3954 -0.3342 -0.3114
   12SAPS  C313 1578   4.479   0.981   7.895 -0.1414 -0.0309  0.1929
   12SAPS  H13X 1579   4.459   1.088   7.871  1.4262  0.6671  1.9144
   12SAPS  H13Y 1580   4.581   0.946   7.867 -0.4489 -0.8574  0.0894
   12SAPS  C314 1581   4.442   0.968   8.040 -0.2055 -0.1043 -1.0949
   12SAPS  H14X 1582   4.444   0.859   8.059  0.3534 -0.1034 -1.1267
   12SAPS  H14Y 1583   4.340   1.007   8.058  0.2956  1.0588 -0.6803
   12SAPS  C315 1584   4.545   1.033   8.136 -0.0193 -0.7242  0.3622
   12SAPS  H15X 1585   4.502   1.042   8.238 -0.1360 -0.9616  0.3362
   12SAPS  H15Y 1586   4.564   1.137   8.102  2.0027 -0.6352  1.6925
   12SAPS  C316 1587   4.681   0.962   8.141 -0.0700 -0.8763  0.1528
   12SAPS  H16X 1588   4.746   1.029   8.200 -0.6656  0.6803 -0.9316
   12SAPS  H16Y 1589   4.718   0.943   8.038  1.0216  0.8860  0.2045
   12SAPS  C317 1590   4.688   0.822   8.210  0.3007 -0.6648 -0.2275
   12SAPS  H17X 1591   4.795   0.795   8.222  0.4410 -0.4084 -0.8942
   12SAPS  H17Y 1592   4.662   0.739   8.141 -0.5052  0.7739 -1.6784
   12SAPS  C318 1593   4.608   0.803   8.336  0.7408  0.4851 -0.1509
   12SAPS  H18X 1594   4.655   0.867   8.415  1.2593 -0.1451  0.0541
   12SAPS  H18Y 1595   4.618   0.701   8.379  3.0678  0.0086 -1.7666
   12SAPS  H18Z 1596   4.501   0.834   8.333  0.4450 -0.6112 -1.0290
   13SAPS     N 1597   5.025   3.601   6.301  0.0731  0.5430  0.6184
   13SAPS   HN1 1598   5.059   3.502   6.304  0.9060  0.6082 -3.4825
   13SAPS   HN2 1599   5.098   3.660   6.345  0.6190  1.7092 -1.7558
   13SAPS   HN3 1600   4.942   3.589   6.361 -1.9683 -1.0864 -2.4005
   13SAPS   C12 1601   4.995   3.630   6.158  0.5260 -0.4027  0.3771
   13SAPS  H12A 1602   5.096   3.640   6.120  0.0690 -1.5151 -1.1842
   13SAPS   C13 1603   4.926   3.516   6.079  0.4215  0.3583  0.5221
   13SAPS  O13A 1604   4.919   3.400   6.132 -0.2654  0.2338  0.5496
   13SAPS  O13B 1605   4.872   3.536   5.965  0.0910 -0.3096 -0.5179
   13SAPS   C11 1606   4.906   3.759   6.155 -0.2074 -0.3685 -0.7426
   13SAPS  H11A 1607   4.810   3.732   6.205  0.6321 -0.5609  0.7823
   13SAPS  H11B 1608   4.890   3.797   6.052 -0.8829  1.1665 -0.0836
   13SAPS     P 1609   4.907   4.007   6.246 -0.0656  0.0388  0.1217
   13SAPS   O13 1610   4.978   4.112   6.174 -0.2003  0.0613 -0.3556
   13SAPS   O14 1611   4.761   4.002   6.228 -0.0046  0.3666 -0.0490
   13SAPS   O12 1612   4.968   3.863   6.229  0.5935  0.1961  0.2204
   13SAPS   O11 1613   4.936   4.042   6.394 -0.3417  0.5597  0.0745
   13SAPS    C1 1614   4.945   3.959   6.515  0.4488  0.1499  0.6765
   13SAPS    HA 1615   4.888   3.868   6.486  2.9119 -1.3471  0.3835
   13SAPS    HB 1616   5.050   3.929   6.531  0.6906  1.2530  1.2131
   13SAPS    C2 1617   4.883   4.028   6.642 -0.1204  0.9306 -0.4839
   13SAPS    HS 1618   4.772   4.021   6.639 -0.0482 -3.3731  2.1961
   13SAPS   O21 1619   4.931   4.164   6.645 -0.0140  0.0851  0.1740
   13SAPS   C21 1620   4.826   4.252   6.665  0.4132 -0.5331 -1.0576
   13SAPS   O22 1621   4.716   4.221   6.700 -0.0248 -0.0727 -0.2188
   13SAPS   C22 1622   4.862   4.392   6.637  0.3155 -0.5062 -0.4873
   13SAPS   H2R 1623   4.972   4.393   6.625  0.2141 -2.8019 -2.0721
   13SAPS   H2S 1624   4.828   4.417   6.535  2.9805  3.8724 -0.4121
   13SAPS    C3 1625   4.933   3.963   6.772  1.0346  0.7953  0.8412
   13SAPS    HX 1626   5.041   3.988   6.764  0.9481  0.7291 -0.5246
   13SAPS    HY 1627   4.938   3.852   6.768  2.4300  0.8743 -0.0530
   13SAPS   O31 1628   4.862   4.005   6.889  0.3392 -0.0400  0.5132
   13SAPS   C31 1629   4.923   4.099   6.954 -0.4628 -0.2148 -0.1926
   13SAPS   O32 1630   5.032   4.150   6.945  0.4900 -0.0005  0.3859
   13SAPS   C32 1631   4.826   4.140   7.058  0.8494 -0.1603 -0.2418
   13SAPS   H2X 1632   4.868   4.101   7.153  2.2345  0.3306 -0.6405
   13SAPS   H2Y 1633   4.720   4.107   7.050  1.7634 -3.9405  2.2348
   13SAPS   C23 1634   4.806   4.485   6.741 -0.0374  0.5024 -0.4071
   13SAPS   H3R 1635   4.848   4.482   6.844 -1.7152  1.7332  0.3213
   13SAPS   H3S 1636   4.699   4.454   6.746  0.1647 -0.0361  0.7368
   13SAPS   C24 1637   4.802   4.642   6.713 -0.2083  0.4471 -0.2407
   13SAPS   H4R 1638   4.735   4.653   6.625 -0.6723  0.8130  0.1558
   13SAPS   H4S 1639   4.906   4.674   6.689 -0.2787  1.3685  0.6664
   13SAPS   C25 1640   4.737   4.706   6.838  0.0223 -0.0344  0.2656
   13SAPS   H5R 1641   4.639   4.661   6.860 -2.0519  3.5696 -1.1459
   13SAPS   C26 1642   4.785   4.810   6.918 -0.3932  0.3748  0.1759
   13SAPS   H6R 1643   4.725   4.836   7.006  1.5036  0.9867  1.3260
   13SAPS   C27 1644   4.916   4.888   6.908  0.5962  0.8936 -0.8513
   13SAPS   H7R 1645   4.962   4.878   6.808  3.1554 -1.3616  0.4886
   13SAPS   H7S 1646   4.992   4.837   6.971  0.4033 -1.1456 -2.2084
   13SAPS   C28 1647   4.906   5.040   6.949 -0.2033  0.8696 -0.2327
   13SAPS   H8R 1648   4.904   5.098   6.855 -0.3925 -2.3754 -2.3261
   13SAPS   C29 1649   4.893   5.092   7.071 -0.1790  0.6025  0.7172
   13SAPS   H9R 1650   4.889   5.202   7.082 -2.4811  0.2668  4.0305
   13SAPS  C210 1651   4.881   5.019   7.204 -0.5247 -0.1218  0.5565
   13SAPS  H10R 1652   4.879   4.909   7.188  0.7640 -0.2372  1.1924
   13SAPS  H10S 1653   4.779   5.034   7.246 -0.6608 -0.1115  0.2256
   13SAPS  C211 1654   4.982   5.065   7.309 -0.6374 -0.0525 -1.0564
   13SAPS  H11R 1655   5.087   5.067   7.275  0.1068 -0.7260  1.1052
   13SAPS  C212 1656   4.955   5.104   7.439  0.4044 -0.2338 -0.4100
   13SAPS  H12R 1657   5.038   5.136   7.503  0.4435 -1.5399  0.2152
   13SAPS  C213 1658   4.822   5.109   7.511 -0.0851  0.3424 -0.5080
   13SAPS  H13R 1659   4.831   5.060   7.610 -1.1853  1.2623  0.0471
   13SAPS  H13S 1660   4.750   5.040   7.462 -0.3141  0.6024 -0.5394
   13SAPS  C214 1661   4.768   5.249   7.512 -0.0626  0.0722  0.3059
   13SAPS  H14R 1662   4.763   5.308   7.420 -0.6079  2.7919  2.0220
   13SAPS  C215 1663   4.737   5.308   7.627  0.1997  0.1726  0.1968
   13SAPS  H15R 1664   4.683   5.404   7.624 -0.7617 -0.3996 -1.1407
   13SAPS  C216 1665   4.750   5.252   7.767 -0.1989  0.4830 -0.3200
   13SAPS  H16R 1666   4.798   5.325   7.836 -0.0423 -1.9463  2.2311
   13SAPS  H16S 1667   4.810   5.158   7.767 -0.4790  0.2992  0.6732
   13SAPS  C217 1668   4.607   5.211   7.818  0.6610  0.4019  0.5217
   13SAPS  H17R 1669   4.577   5.122   7.760 -0.1720  0.4786  0.8384
   13SAPS  H17S 1670   4.542   5.299   7.801  0.7937  0.1141 -1.4968
   13SAPS  C218 1671   4.606   5.192   7.975  0.2438  0.2629  0.2926
   13SAPS  H18R 1672   4.506   5.173   8.018  1.4196 -3.4469  1.6743
   13SAPS  H18S 1673   4.633   5.283   8.032  0.4850  0.1817  0.3102
   13SAPS  C219 1674   4.684   5.064   8.011 -1.5529 -0.2241  0.2331
   13SAPS  H19R 1675   4.790   5.096   8.002 -0.8315 -2.6990 -0.3174
   13SAPS  H19S 1676   4.672   4.994   7.926  1.6418  1.4982 -1.7235
   13SAPS  C220 1677   4.621   5.017   8.141  0.2851 -0.0253 -0.6515
   13SAPS  H20R 1678   4.654   4.913   8.162  2.7670  1.3688  2.9252
   13SAPS  H20S 1679   4.510   5.019   8.134  0.2670  0.3265 -0.2974
   13SAPS  H20T 1680   4.660   5.077   8.227 -0.0831 -0.9042  0.1423
   13SAPS   C33 1681   4.826   4.295   7.071  0.0847 -0.3101 -0.2448
   13SAPS   H3X 1682   4.809   4.334   6.969  0.1597  0.4638  0.0382
   13SAPS   H3Y 1683   4.924   4.337   7.103  0.1274 -3.5017  4.4893
   13SAPS   C34 1684   4.713   4.338   7.169 -0.1462 -0.4158  0.0975
   13SAPS   H4X 1685   4.705   4.271   7.257  1.2075 -1.9208 -0.9006
   13SAPS   H4Y 1686   4.617   4.329   7.114 -1.9535  0.9175  2.9074
   13SAPS   C35 1687   4.736   4.479   7.227  0.7670  0.8878 -0.1826
   13SAPS   H5X 1688   4.748   4.548   7.141  1.2845  0.7054 -0.2570
   13SAPS   H5Y 1689   4.829   4.473   7.288 -0.2092 -0.9251  1.1851
   13SAPS   C36 1690   4.637   4.526   7.331 -0.0711 -0.4017  0.9130
   13SAPS   H6X 1691   4.645   4.457   7.418 -1.3096 -0.4694  0.9903
   13SAPS   H6Y 1692   4.532   4.514   7.295 -0.4313 -2.1046  2.4406
   13SAPS   C37 1693   4.663   4.669   7.377 -0.6111 -0.4403 -0.1340
   13SAPS   H7X 1694   4.573   4.714   7.425 -1.4229 -1.8011 -0.3633
   13SAPS   H7Y 1695   4.689   4.739   7.295  0.2487  0.7605  1.1373
   13SAPS   C38 1696   4.788   4.671   7.470  0.0330 -0.5162  1.1404
   13SAPS   H8X 1697   4.818   4.778   7.471 -1.2431 -0.1591  1.9608
   13SAPS   H8Y 1698   4.876   4.611   7.437  0.6290 -0.0781  1.9100
   13SAPS   C39 1699   4.756   4.659   7.615  0.2377  0.9107 -0.0526
   13SAPS   H9X 1700   4.721   4.555   7.630  1.0428  0.5154 -0.8553
   13SAPS   H9Y 1701   4.666   4.722   7.634 -0.4122 -0.2659  0.7578
   13SAPS  C310 1702   4.867   4.692   7.709 -0.5025  0.0712 -0.5179
   13SAPS  H10X 1703   4.896   4.797   7.686  0.5310  0.5134  2.5620
   13SAPS  H10Y 1704   4.965   4.640   7.704 -0.2886  0.2072  1.8690
   13SAPS  C311 1705   4.823   4.678   7.859  0.6225  0.1584  0.2597
   13SAPS  H11X 1706   4.822   4.568   7.871 -3.4454 -0.0531 -0.9539
   13SAPS  H11Y 1707   4.717   4.712   7.857 -0.0060 -1.6975 -4.3441
   13SAPS  C312 1708   4.918   4.756   7.954  0.4511 -0.3051  0.3974
   13SAPS  H12X 1709   4.898   4.863   7.931 -0.5537 -0.7853 -1.0930
   13SAPS  H12Y 1710   5.022   4.719   7.938  0.3286 -0.8523  0.8897
   13SAPS  C313 1711   4.895   4.733   8.104 -0.1884 -0.6302 -1.3684
   13SAPS  H13X 1712   4.910   4.623   8.116 -1.3625 -0.3770  3.5047
   13SAPS  H13Y 1713   4.787   4.736   8.127  0.1524 -0.9257  0.3505
   13SAPS  C314 1714   4.982   4.827   8.191 -0.1228 -0.3516 -0.0526
   13SAPS  H14X 1715   4.967   4.930   8.151 -2.0010 -0.1337  1.0969
   13SAPS  H14Y 1716   5.088   4.804   8.170  0.6880  0.0377  3.2969
   13SAPS  C315 1717   4.949   4.834   8.337 -0.2791 -0.0890  0.1283
   13SAPS  H15X 1718   4.941   4.727   8.367  0.9564  0.0124  0.8579
   13SAPS  H15Y 1719   4.844   4.867   8.351 -1.2659 -1.9140 -2.5155
   13SAPS  C316 1720   5.032   4.913   8.443 -0.5735 -0.1582  0.4262
   13SAPS  H16X 1721   5.071   5.006   8.396  0.1750 -0.8636 -0.3594
   13SAPS  H16Y 1722   5.117   4.845   8.462  2.3384  2.8983 -1.0177
   13SAPS  C317 1723   4.962   4.948   8.572  0.1091 -0.2921  0.1478
   13SAPS  H17X 1724   4.967   4.849   8.622 -0.2629 -1.4111 -2.0063
   13SAPS  H17Y 1725   4.860   4.978   8.539  0.2373 -0.1959 -0.1594
   13SAPS  C318 1726   5.035   5.054   8.649 -0.1322  0.6021 -0.3407
   13SAPS  H18X 1727   5.029   5.152   8.598  0.6985  0.1575 -1.3049
   13SAPS  H18Y 1728   5.139   5.039   8.684 -0.9952 -0.8483  1.7334
   13SAPS  H18Z 1729   4.970   5.063   8.739 -0.1951 -2.0065 -0.0899
   14SAPS     N 1730   4.839   0.404   5.766 -0.8405  0.0591  0.1168
   14SAPS   HN1 1731   4.845   0.406   5.662 -0.9828  2.1445  0.1379
   14SAPS   HN2 1732   4.931   0.424   5.808  0.9764 -1.1014 -3.1296
   14SAPS   HN3 1733   4.811   0.311   5.803  1.4390 -1.3022 -1.4483
   14SAPS   C12 1734   4.742   0.505   5.805 -0.3498 -0.0209  0.3650
   14SAPS  H12A 1735   4.755   0.521   5.911 -0.6437  1.2065  0.2194
   14SAPS   C13 1736   4.745   0.646   5.746  0.1612  0.4041  0.5639
   14SAPS  O13A 1737   4.838   0.682   5.671  0.0222 -0.6656  0.0179
   14SAPS  O13B 1738   4.667   0.727   5.804 -0.0535 -0.2344 -0.1220
   14SAPS   C11 1739   4.604   0.439   5.773 -0.3320 -0.6200  0.7504
   14SAPS  H11A 1740   4.591   0.435   5.663  0.0994 -2.8694  0.7667
   14SAPS  H11B 1741   4.531   0.511   5.817  0.6113  1.7252 -1.3490
   14SAPS     P 1742   4.433   0.258   5.847 -0.4562 -0.3262 -0.0490
   14SAPS   O13 1743   4.335   0.337   5.767 -0.4381  0.2195 -0.3575
   14SAPS   O14 1744   4.423   0.110   5.836  0.7269 -0.2033 -0.2165
   14SAPS   O12 1745   4.582   0.309   5.820  0.3973  0.1293  0.4892
   14SAPS   O11 1746   4.403   0.306   5.999  0.0102  0.1984  0.8190
   14SAPS    C1 1747   4.479   0.250   6.108  0.1818 -0.4623  0.0632
   14SAPS    HA 1748   4.405   0.212   6.181  0.7394 -0.4321  0.6425
   14SAPS    HB 1749   4.526   0.154   6.080  0.0716 -0.2175 -1.0144
   14SAPS    C2 1750   4.569   0.351   6.166 -0.6335  1.4134 -0.1516
   14SAPS    HS 1751   4.625   0.393   6.080 -0.5067  0.5267 -0.5010
   14SAPS   O21 1752   4.654   0.288   6.261 -0.0469 -0.0296 -0.1541
   14SAPS   C21 1753   4.735   0.376   6.325  0.1260  0.5413  0.7789
   14SAPS   O22 1754   4.754   0.491   6.285  0.0974 -0.5938  0.2695
   14SAPS   C22 1755   4.794   0.304   6.451 -0.2846 -0.0744  0.8007
   14SAPS   H2R 1756   4.702   0.255   6.490 -2.3052  2.0307 -1.1006
   14SAPS   H2S 1757   4.869   0.235   6.408 -2.8679 -1.7764 -1.1775
   14SAPS    C3 1758   4.486   0.462   6.224 -0.2033  0.1095  0.9657
   14SAPS    HX 1759   4.400   0.476   6.155  0.9534 -2.6180 -1.1057
   14SAPS    HY 1760   4.546   0.555   6.212 -0.9860  0.6070  0.8516
   14SAPS   O31 1761   4.438   0.448   6.363 -0.3846 -0.1830  0.1281
   14SAPS   C31 1762   4.323   0.509   6.381 -0.0270  0.6587 -0.1380
   14SAPS   O32 1763   4.266   0.580   6.304  0.2001  0.2308  0.4384
   14SAPS   C32 1764   4.265   0.492   6.524 -0.4286  0.5665 -0.4714
   14SAPS   H2X 1765   4.209   0.396   6.525 -2.1558  1.5604  0.6333
   14SAPS   H2Y 1766   4.206   0.584   6.540 -1.7815 -0.1697 -1.1094
   14SAPS   C23 1767   4.869   0.401   6.549  0.4424  0.1652  0.1868
   14SAPS   H3R 1768   4.802   0.472   6.601 -0.2585 -1.2709  1.2492
   14SAPS   H3S 1769   4.932   0.459   6.477 -0.5023 -0.1848 -0.9401
   14SAPS   C24 1770   4.960   0.342   6.648  0.9992 -0.2174  0.2802
   14SAPS   H4R 1771   5.021   0.425   6.688 -1.3268  1.2822  0.8143
   14SAPS   H4S 1772   5.027   0.273   6.592 -1.8067 -1.3931 -1.7438
   14SAPS   C25 1773   4.873   0.264   6.745  0.0272  0.3652  0.1236
   14SAPS   H5R 1774   4.818   0.185   6.693  1.8917 -0.4476 -0.6922
   14SAPS   C26 1775   4.857   0.277   6.877  0.9477 -0.2748 -0.6063
   14SAPS   H6R 1776   4.786   0.215   6.935  0.0457 -0.3955 -1.8203
   14SAPS   C27 1777   4.931   0.378   6.968  0.6412  0.4510  0.6945
   14SAPS   H7R 1778   4.852   0.445   7.008  1.2769  0.6741  1.5854
   14SAPS   H7S 1779   5.004   0.444   6.918 -1.9101  0.7829 -2.7620
   14SAPS   C28 1780   5.005   0.303   7.080  0.3011 -0.0120  0.5511
   14SAPS   H8R 1781   5.071   0.225   7.038  0.3990  0.5229 -0.2974
   14SAPS   C29 1782   5.014   0.354   7.203 -0.7568 -0.9390 -0.7425
   14SAPS   H9R 1783   5.063   0.296   7.282  0.1571  0.7458 -0.0490
   14SAPS  C210 1784   4.962   0.492   7.251  0.1488 -0.4332 -0.2963
   14SAPS  H10R 1785   4.870   0.523   7.197 -1.0520  0.7783  2.3565
   14SAPS  H10S 1786   5.039   0.562   7.212  0.0869 -1.0623 -1.5785
   14SAPS  C211 1787   4.934   0.499   7.398  0.9472  0.0997 -1.1160
   14SAPS  H11R 1788   4.829   0.516   7.428  0.6580 -2.0166 -0.8399
   14SAPS  C212 1789   5.028   0.487   7.496 -0.1607  0.2649  0.1584
   14SAPS  H12R 1790   5.004   0.495   7.603  1.0678  1.6308  0.3323
   14SAPS  C213 1791   5.178   0.455   7.473 -0.2269 -0.3299  0.0951
   14SAPS  H13R 1792   5.246   0.532   7.517  0.4014  0.5660 -2.3463
   14SAPS  H13S 1793   5.200   0.461   7.364 -0.5016  0.1071  0.0578
   14SAPS  C214 1794   5.191   0.320   7.542  0.4487  0.5370  0.1602
   14SAPS  H14R 1795   5.164   0.232   7.481 -0.1892 -0.1328  1.3926
   14SAPS  C215 1796   5.236   0.284   7.669 -0.3882 -0.5617  0.5036
   14SAPS  H15R 1797   5.246   0.180   7.701 -1.4723 -0.9993 -0.5592
   14SAPS  C216 1798   5.278   0.393   7.768 -0.6723 -0.6055 -0.0040
   14SAPS  H16R 1799   5.254   0.498   7.738  0.1802 -0.3056  0.3388
   14SAPS  H16S 1800   5.389   0.391   7.772 -0.5124  2.0908 -1.4590
   14SAPS  C217 1801   5.238   0.376   7.914 -0.4955 -0.0739  0.1255
   14SAPS  H17R 1802   5.278   0.465   7.968 -0.0172 -2.1230  3.3070
   14SAPS  H17S 1803   5.288   0.282   7.945 -0.4109 -0.6951 -1.8258
   14SAPS  C218 1804   5.090   0.366   7.931 -0.5648 -0.1316  0.5698
   14SAPS  H18R 1805   5.049   0.279   7.875  1.2952 -0.7003  0.0617
   14SAPS  H18S 1806   5.054   0.459   7.882 -1.5040 -0.4408  0.6708
   14SAPS  C219 1807   5.042   0.371   8.079  0.5046 -0.7105  0.4983
   14SAPS  H19R 1808   5.099   0.456   8.122 -2.4027  2.4278 -1.5867
   14SAPS  H19S 1809   5.083   0.278   8.123  2.2060 -0.7627 -1.1229
   14SAPS  C220 1810   4.892   0.370   8.097 -0.0922  0.8530 -0.1635
   14SAPS  H20R 1811   4.865   0.373   8.204 -2.4419 -0.3878 -0.6976
   14SAPS  H20S 1812   4.862   0.269   8.060  0.4145  1.0109 -1.0314
   14SAPS  H20T 1813   4.839   0.446   8.036 -0.3713  1.2344  0.5602
   14SAPS   C33 1814   4.381   0.493   6.631 -0.3610  1.2558 -0.0998
   14SAPS   H3X 1815   4.475   0.545   6.604  1.7639 -1.8753  0.9148
   14SAPS   H3Y 1816   4.425   0.392   6.650  1.0081  2.0232  0.9227
   14SAPS   C34 1817   4.330   0.557   6.762 -0.0133  0.9430  0.7894
   14SAPS   H4X 1818   4.237   0.506   6.796  1.0707 -0.8718  1.1219
   14SAPS   H4Y 1819   4.302   0.662   6.740 -1.1318  0.4252 -0.3138
   14SAPS   C35 1820   4.423   0.534   6.885  0.4810  0.0165  0.0201
   14SAPS   H5X 1821   4.515   0.591   6.858  0.6506 -1.0273 -1.7030
   14SAPS   H5Y 1822   4.450   0.426   6.885 -2.8483 -0.8824 -0.3238
   14SAPS   C36 1823   4.342   0.571   7.013 -0.4742 -0.1958  0.0487
   14SAPS   H6X 1824   4.256   0.507   7.039 -0.7087  0.3328  0.5860
   14SAPS   H6Y 1825   4.296   0.671   6.998  1.4094  0.4370 -1.8010
   14SAPS   C37 1826   4.432   0.583   7.139 -0.1131 -0.6055  0.7341
   14SAPS   H7X 1827   4.378   0.636   7.220 -0.1174  0.6903 -0.1155
   14SAPS   H7Y 1828   4.519   0.647   7.115 -1.6925  1.8871  1.5632
   14SAPS   C38 1829   4.484   0.444   7.187  0.0077  0.9343  0.4358
   14SAPS   H8X 1830   4.572   0.416   7.125 -0.4238 -0.8388  0.6000
   14SAPS   H8Y 1831   4.403   0.368   7.176  0.0581  1.3830 -3.5385
   14SAPS   C39 1832   4.540   0.445   7.334  0.1556 -0.4164 -0.3681
   14SAPS   H9X 1833   4.455   0.458   7.404 -0.0957  0.5130 -0.8358
   14SAPS   H9Y 1834   4.619   0.524   7.334  0.2344 -0.4877 -1.6292
   14SAPS  C310 1835   4.623   0.321   7.377 -0.0577 -0.2999  0.0687
   14SAPS  H10X 1836   4.730   0.332   7.349 -0.0733 -0.2329  0.0362
   14SAPS  H10Y 1837   4.577   0.233   7.328  1.5289 -0.6434 -0.8399
   14SAPS  C311 1838   4.607   0.287   7.530 -0.4211  0.7984 -0.0983
   14SAPS  H11X 1839   4.681   0.211   7.561 -1.5244 -1.1197 -2.0438
   14SAPS  H11Y 1840   4.506   0.244   7.544  0.1509 -1.0624 -1.4813
   14SAPS  C312 1841   4.638   0.407   7.621  0.9702 -0.0027  0.0172
   14SAPS  H12X 1842   4.607   0.501   7.570  2.0736  0.8139  0.8288
   14SAPS  H12Y 1843   4.748   0.408   7.640  0.6593  1.4186  1.8452
   14SAPS  C313 1844   4.573   0.390   7.751 -0.4383 -0.6243 -0.4790
   14SAPS  H13X 1845   4.617   0.463   7.822 -2.9914  1.9104 -1.4227
   14SAPS  H13Y 1846   4.591   0.289   7.794 -1.1597 -0.0551  1.1880
   14SAPS  C314 1847   4.423   0.413   7.753  0.0285  0.4571  0.9257
   14SAPS  H14X 1848   4.381   0.329   7.692  2.7476 -1.7601  1.9948
   14SAPS  H14Y 1849   4.393   0.511   7.710  1.1812  0.1293 -0.6779
   14SAPS  C315 1850   4.366   0.390   7.889 -0.3274  0.4211  0.1735
   14SAPS  H15X 1851   4.390   0.288   7.924  0.2570 -0.1219 -1.7919
   14SAPS  H15Y 1852   4.255   0.399   7.879 -0.4489 -0.5853  0.6029
   14SAPS  C316 1853   4.430   0.475   8.005  0.3593  0.5103  0.6082
   14SAPS  H16X 1854   4.433   0.581   7.970  0.0181  0.3539  0.1035
   14SAPS  H16Y 1855   4.533   0.445   8.032  0.5551  2.1588  1.7703
   14SAPS  C317 1856   4.352   0.480   8.142 -0.1379  0.3559 -0.0509
   14SAPS  H17X 1857   4.246   0.503   8.115 -0.4036  2.0640  2.2660
   14SAPS  H17Y 1858   4.384   0.563   8.209  1.5831  0.2043 -0.6751
   14SAPS  C318 1859   4.350   0.347   8.216 -0.1215 -0.2884  1.3178
   14SAPS  H18X 1860   4.294   0.337   8.312 -2.9854  1.1847 -0.1580
   14SAPS  H18Y 1861   4.454   0.313   8.236  0.2583 -0.6751 -1.2447
   14SAPS  H18Z 1862   4.304   0.278   8.142  1.5693  0.5038 -0.5135
   15SAPS     N 1863   5.768   6.078   5.807  0.1245  0.1824 -0.5407
   15SAPS   HN1 1864   5.757   5.979   5.775  0.5853 -0.4550  1.2169
   15SAPS   HN2 1865   5.682   6.127   5.837  1.3422  2.6402 -0.9311
   15SAPS   HN3 1866   5.807   6.128   5.724  2.2030 -0.3496  0.0719
   15SAPS   C12 1867   5.851   6.097   5.933 -0.2691 -0.1629  0.4741
   15SAPS  H12A 1868   5.801   6.055   6.020  0.5261  0.1037  1.0663
   15SAPS   C13 1869   5.991   6.033   5.935  0.2781 -0.1830 -0.1820
   15SAPS  O13A 1870   6.053   6.013   5.825 -0.3878 -0.5307 -0.1969
   15SAPS  O13B 1871   6.052   6.050   6.045  0.3376  0.0403  0.6099
   15SAPS   C11 1872   5.861   6.251   5.949  0.6740 -0.5933 -0.0624
   15SAPS  H11A 1873   5.898   6.299   5.856  1.4252 -1.6149 -0.2928
   15SAPS  H11B 1874   5.940   6.270   6.024 -0.3807 -3.4161  1.8382
   15SAPS     P 1875   5.721   6.463   6.012  0.1099  0.3915  0.2587
   15SAPS   O13 1876   5.849   6.525   6.046 -0.0572  0.5031 -0.0385
   15SAPS   O14 1877   5.643   6.516   5.901 -0.0810 -0.2033  0.3509
   15SAPS   O12 1878   5.737   6.302   5.990  0.1977 -0.3940 -0.2152
   15SAPS   O11 1879   5.633   6.463   6.145  0.0371 -0.1778  0.2430
   15SAPS    C1 1880   5.543   6.359   6.190 -0.7043  0.1792 -0.2091
   15SAPS    HA 1881   5.584   6.259   6.167  2.7782  1.0594  1.8180
   15SAPS    HB 1882   5.535   6.360   6.301 -1.5827  2.2986 -0.2523
   15SAPS    C2 1883   5.400   6.369   6.140 -0.3050  0.4001  0.0647
   15SAPS    HS 1884   5.409   6.366   6.029 -1.2841  1.6018 -0.0570
   15SAPS   O21 1885   5.347   6.499   6.173 -0.4611  0.0906 -0.0272
   15SAPS   C21 1886   5.231   6.517   6.116  0.0725 -0.4070  0.3873
   15SAPS   O22 1887   5.184   6.457   6.026  0.1134  0.5375  0.6418
   15SAPS   C22 1888   5.170   6.642   6.191 -0.1594  0.4178 -0.1118
   15SAPS   H2R 1889   5.221   6.649   6.290  0.5039 -0.7551 -0.3508
   15SAPS   H2S 1890   5.190   6.735   6.133 -0.0941  1.4901  1.5988
   15SAPS    C3 1891   5.320   6.256   6.206 -0.3484  0.7554  0.4401
   15SAPS    HX 1892   5.374   6.160   6.190 -1.9525 -0.1718  0.4885
   15SAPS    HY 1893   5.227   6.247   6.146 -0.0208  0.4729 -0.0348
   15SAPS   O31 1894   5.288   6.283   6.345 -0.2935 -0.7162  0.4584
   15SAPS   C31 1895   5.289   6.176   6.427 -0.6093  0.8717  0.5410
   15SAPS   O32 1896   5.332   6.067   6.399  0.0543 -0.3702  0.3582
   15SAPS   C32 1897   5.209   6.199   6.557  0.5143  0.0316  0.2117
   15SAPS   H2X 1898   5.244   6.125   6.632 -0.6998  0.3507  1.1181
   15SAPS   H2Y 1899   5.105   6.170   6.531  0.7185  1.7019 -2.6416
   15SAPS   C23 1900   5.005   6.629   6.215 -0.6900  0.0941 -0.9074
   15SAPS   H3R 1901   4.992   6.535   6.273 -0.8414  0.5171 -0.2520
   15SAPS   H3S 1902   4.957   6.613   6.116  0.6013  1.9507 -1.8624
   15SAPS   C24 1903   4.946   6.746   6.278  0.7520  0.1919  0.2406
   15SAPS   H4R 1904   4.964   6.837   6.218 -3.5084  0.6081 -0.5645
   15SAPS   H4S 1905   4.990   6.779   6.375 -0.2631  1.0646  0.4191
   15SAPS   C25 1906   4.794   6.723   6.281  0.7361  0.0431  0.3767
   15SAPS   H5R 1907   4.749   6.780   6.198  0.4280  0.4508  0.8245
   15SAPS   C26 1908   4.703   6.675   6.377  0.0851  0.3852  0.4520
   15SAPS   H6R 1909   4.601   6.660   6.340  0.3282  0.3067 -0.1923
   15SAPS   C27 1910   4.748   6.637   6.517  0.2281  0.8766 -0.2068
   15SAPS   H7R 1911   4.808   6.719   6.562 -0.7942  2.6796 -2.0522
   15SAPS   H7S 1912   4.815   6.548   6.518 -1.0286 -0.0939  3.4048
   15SAPS   C28 1913   4.637   6.602   6.615 -0.3482 -0.5014 -0.2255
   15SAPS   H8R 1914   4.621   6.493   6.623 -1.5779 -0.2315  0.9258
   15SAPS   C29 1915   4.575   6.694   6.696  0.2020 -0.7103  0.1242
   15SAPS   H9R 1916   4.494   6.661   6.763  1.1472  1.3717  2.3871
   15SAPS  C210 1917   4.595   6.850   6.706 -0.2228 -0.4511 -0.1341
   15SAPS  H10R 1918   4.582   6.897   6.606 -2.7932  0.2051  0.4856
   15SAPS  H10S 1919   4.701   6.860   6.738 -0.4238  1.2690  0.0081
   15SAPS  C211 1920   4.504   6.917   6.808  0.1038 -0.8471  0.8538
   15SAPS  H11R 1921   4.433   6.988   6.763  1.5935  0.9930  1.3587
   15SAPS  C212 1922   4.489   6.910   6.937 -0.5538 -0.3086 -0.3115
   15SAPS  H12R 1923   4.414   6.975   6.982  1.9554  2.3649  0.1670
   15SAPS  C213 1924   4.571   6.822   7.032 -0.5302  0.2511  0.6120
   15SAPS  H13R 1925   4.658   6.881   7.067 -0.7250 -0.0533  1.6410
   15SAPS  H13S 1926   4.593   6.724   6.983 -2.0986 -0.1436  0.6535
   15SAPS  C214 1927   4.496   6.799   7.162 -0.0401  0.2521  0.4784
   15SAPS  H14R 1928   4.447   6.882   7.214 -1.0716  0.1274 -0.2750
   15SAPS  C215 1929   4.496   6.686   7.235  0.1456  0.1018 -0.3620
   15SAPS  H15R 1930   4.426   6.667   7.318 -0.8317  1.1868 -0.9361
   15SAPS  C216 1931   4.583   6.567   7.201 -0.6819  0.6472 -0.1033
   15SAPS  H16R 1932   4.627   6.529   7.295 -1.0702  2.4002  0.8136
   15SAPS  H16S 1933   4.660   6.577   7.122 -1.6323  0.8365 -1.0175
   15SAPS  C217 1934   4.487   6.455   7.141 -0.4485  0.4183 -0.6968
   15SAPS  H17R 1935   4.416   6.511   7.076 -1.1399  0.8081  0.3753
   15SAPS  H17S 1936   4.430   6.417   7.229  2.2658 -1.2595  0.4107
   15SAPS  C218 1937   4.553   6.342   7.064  0.2665 -0.2243 -0.1216
   15SAPS  H18R 1938   4.491   6.250   7.067  0.7974 -0.5494  1.2099
   15SAPS  H18S 1939   4.651   6.312   7.106 -0.4870 -0.4329  1.5132
   15SAPS  C219 1940   4.570   6.375   6.913 -0.7197 -0.1517  0.9597
   15SAPS  H19R 1941   4.639   6.459   6.892  0.4910 -1.7464 -1.7265
   15SAPS  H19S 1942   4.469   6.405   6.880  0.4389  2.0923 -0.6549
   15SAPS  C220 1943   4.613   6.261   6.817 -0.0064  0.4128  0.1273
   15SAPS  H20R 1944   4.721   6.238   6.804  0.2003  1.3002  0.2342
   15SAPS  H20S 1945   4.579   6.286   6.714  1.0682 -0.0449 -0.3482
   15SAPS  H20T 1946   4.571   6.167   6.858  2.9362 -0.1006  2.1228
   15SAPS   C33 1947   5.234   6.345   6.604  0.4064 -0.3919 -0.6081
   15SAPS   H3X 1948   5.191   6.429   6.545  2.2046  0.3554 -0.8881
   15SAPS   H3Y 1949   5.345   6.354   6.602  0.4533 -0.4772  1.1195
   15SAPS   C34 1950   5.169   6.371   6.741  0.2244  0.0694 -0.1423
   15SAPS   H4X 1951   5.215   6.319   6.827 -0.2760  0.2558  0.2383
   15SAPS   H4Y 1952   5.068   6.327   6.732  0.8339 -1.2649 -0.6286
   15SAPS   C35 1953   5.160   6.520   6.800 -0.1560  0.2874 -0.4628
   15SAPS   H5X 1954   5.248   6.573   6.758 -0.0970  0.1551 -0.5097
   15SAPS   H5Y 1955   5.171   6.516   6.911  1.6243  1.1678 -0.5793
   15SAPS   C36 1956   5.027   6.588   6.768 -0.7932 -0.2680  0.2939
   15SAPS   H6X 1957   4.994   6.594   6.662 -0.9394 -1.8192  0.2459
   15SAPS   H6Y 1958   5.029   6.696   6.793  0.1623  0.6142 -3.4300
   15SAPS   C37 1959   4.910   6.515   6.851  0.1926  0.2641 -0.1427
   15SAPS   H7X 1960   4.889   6.413   6.811  1.6942 -0.0234 -0.2434
   15SAPS   H7Y 1961   4.825   6.580   6.821  0.3757  0.3988 -0.3631
   15SAPS   C38 1962   4.910   6.523   7.009 -0.1675 -0.4956  0.7748
   15SAPS   H8X 1963   4.993   6.464   7.053 -0.5163 -1.0699  0.6660
   15SAPS   H8Y 1964   4.815   6.476   7.043 -0.8598 -0.3089 -0.8582
   15SAPS   C39 1965   4.925   6.666   7.064 -0.1206  0.7477 -0.2293
   15SAPS   H9X 1966   4.861   6.739   7.011 -2.5639 -1.8579 -0.9820
   15SAPS   H9Y 1967   5.023   6.699   7.021 -0.8118  3.1993 -0.0027
   15SAPS  C310 1968   4.928   6.671   7.220 -0.1512  0.7141  1.0933
   15SAPS  H10X 1969   5.022   6.621   7.251  0.0213  0.8685  0.8115
   15SAPS  H10Y 1970   4.849   6.608   7.268 -1.4703  2.2552  0.9796
   15SAPS  C311 1971   4.922   6.810   7.281  0.3154 -0.1079  0.0022
   15SAPS  H11X 1972   4.828   6.862   7.254  0.6245 -0.0396 -0.9866
   15SAPS  H11Y 1973   5.009   6.868   7.243 -0.2260 -1.0802 -2.8529
   15SAPS  C312 1974   4.935   6.813   7.439  0.0228  0.8640 -0.6023
   15SAPS  H12X 1975   4.935   6.921   7.467  0.8607  0.3177  1.6093
   15SAPS  H12Y 1976   5.039   6.788   7.467 -0.1796  1.1098  0.3797
   15SAPS  C313 1977   4.832   6.734   7.511  0.7014 -0.1465 -0.4525
   15SAPS  H13X 1978   4.845   6.627   7.484  1.4551 -0.1463 -0.1219
   15SAPS  H13Y 1979   4.727   6.761   7.488  0.7344  1.2612  0.9535
   15SAPS  C314 1980   4.864   6.731   7.658 -0.0924 -0.0822 -0.5102
   15SAPS  H14X 1981   4.892   6.830   7.701  0.6117  0.5354 -2.3479
   15SAPS  H14Y 1982   4.951   6.663   7.670  0.0496 -0.1984 -2.1537
   15SAPS  C315 1983   4.749   6.670   7.741  0.0439  0.4057 -0.2008
   15SAPS  H15X 1984   4.787   6.659   7.845  0.0507 -0.8245 -0.3187
   15SAPS  H15Y 1985   4.724   6.565   7.713 -2.3703 -0.0071  3.2152
   15SAPS  C316 1986   4.623   6.749   7.753 -0.2451 -0.7326 -0.6296
   15SAPS  H16X 1987   4.562   6.738   7.661  0.2353  1.8386 -1.2874
   15SAPS  H16Y 1988   4.652   6.856   7.754 -1.2455 -0.4497  0.9222
   15SAPS  C317 1989   4.551   6.693   7.875 -0.2234 -0.6581  0.6382
   15SAPS  H17X 1990   4.616   6.714   7.962  0.0464 -1.1638  0.5646
   15SAPS  H17Y 1991   4.544   6.584   7.853  0.0307 -0.8392  1.4584
   15SAPS  C318 1992   4.413   6.755   7.898 -0.5166  0.1474  0.4427
   15SAPS  H18X 1993   4.360   6.703   7.981  0.2588  1.0039  1.4826
   15SAPS  H18Y 1994   4.360   6.732   7.803  0.9953  1.5346 -0.7599
   15SAPS  H18Z 1995   4.416   6.864   7.919 -0.8292  0.2134  0.1431
   16SAPS     N 1996   0.073   1.450   6.276 -0.5604  0.3762  0.5035
   16SAPS   HN1 1997   0.001   1.413   6.341  1.4138 -1.3774  1.7515
   16SAPS   HN2 1998   0.038   1.443   6.178 -0.8485  1.7869  0.5010
   16SAPS   HN3 1999   0.159   1.392   6.288  0.5151  1.7073 -0.5306
   16SAPS   C12 2000   0.106   1.590   6.318  0.1779  0.2176 -0.4964
   16SAPS  H12A 2001   0.195   1.624   6.267  0.2249 -2.0779 -2.0345
   16SAPS   C13 2002  -0.005   1.692   6.284  0.8393 -0.4378  0.8725
   16SAPS  O13A 2003  -0.105   1.654   6.213  0.4947  0.5747 -0.5730
   16SAPS  O13B 2004  -0.001   1.814   6.320  0.4618 -0.6977 -0.3234
   16SAPS   C11 2005   0.147   1.594   6.473  0.2111 -0.0554  0.3360
   16SAPS  H11A 2006   0.057   1.561   6.530 -0.0751 -0.5507 -0.3866
   16SAPS  H11B 2007   0.172   1.696   6.508  0.1403 -0.0836  0.4688
   16SAPS     P 2008   0.408   1.546   6.501 -0.0764  0.3118  0.2714
   16SAPS   O13 2009   0.470   1.413   6.464 -0.2062  0.2565  0.6872
   16SAPS   O14 2010   0.439   1.656   6.405  0.6788 -0.3933 -0.0295
   16SAPS   O12 2011   0.252   1.516   6.514  0.5008  0.1662 -0.0955
   16SAPS   O11 2012   0.465   1.576   6.645 -0.0254 -0.0768  0.1434
   16SAPS    C1 2013   0.414   1.686   6.721 -0.6166 -0.9307 -0.0570
   16SAPS    HA 2014   0.506   1.742   6.745 -0.7973 -0.3498 -0.7067
   16SAPS    HB 2015   0.347   1.755   6.666  0.5275  1.1795  1.1098
   16SAPS    C2 2016   0.354   1.639   6.853 -0.0024  0.3465 -0.7317
   16SAPS    HS 2017   0.384   1.721   6.922 -1.0293 -0.3486  0.5610
   16SAPS   O21 2018   0.408   1.517   6.893  0.0411 -0.6317 -0.3799
   16SAPS   C21 2019   0.523   1.525   6.949  0.0262 -0.6203 -0.1069
   16SAPS   O22 2020   0.577   1.626   6.986 -0.3942 -0.2534 -0.0306
   16SAPS   C22 2021   0.583   1.386   6.977  0.5277  0.2517 -0.5515
   16SAPS   H2R 2022   0.554   1.319   6.894  0.6889 -2.3077  1.3724
   16SAPS   H2S 2023   0.694   1.395   6.977  0.6071 -0.6781 -0.9150
   16SAPS    C3 2024   0.205   1.619   6.839 -1.0600  0.0704 -0.4267
   16SAPS    HX 2025   0.199   1.522   6.785  0.2565 -0.8900  1.1317
   16SAPS    HY 2026   0.153   1.699   6.782  1.5415  0.4234 -2.4210
   16SAPS   O31 2027   0.153   1.600   6.975  0.3161  0.3667 -0.1264
   16SAPS   C31 2028   0.060   1.515   6.996  0.3988  0.4377  0.1132
   16SAPS   O32 2029  -0.009   1.464   6.906  0.0917 -0.2177  0.6508
   16SAPS   C32 2030   0.045   1.471   7.141 -0.1395  0.5570  0.4126
   16SAPS   H2X 2031  -0.041   1.525   7.184 -0.4474  1.7630 -1.6190
   16SAPS   H2Y 2032   0.137   1.491   7.199  1.2952 -3.1735 -0.3760
   16SAPS   C23 2033   0.532   1.315   7.105 -0.0178 -0.1800 -0.9068
   16SAPS   H3R 2034   0.602   1.232   7.128  1.7543  2.0128  1.9625
   16SAPS   H3S 2035   0.430   1.280   7.079 -0.7938  1.8948 -0.8303
   16SAPS   C24 2036   0.518   1.409   7.223 -0.9062 -0.2002 -0.0759
   16SAPS   H4R 2037   0.440   1.484   7.198 -1.6039  0.6959  4.4331
   16SAPS   H4S 2038   0.612   1.467   7.239 -2.0319  1.5734  0.2481
   16SAPS   C25 2039   0.491   1.333   7.350  0.7136  1.2612 -0.0210
   16SAPS   H5R 2040   0.516   1.227   7.336 -1.5017  0.6952  0.2119
   16SAPS   C26 2041   0.442   1.386   7.461  0.2466 -0.1696  0.3256
   16SAPS   H6R 2042   0.416   1.322   7.547 -2.0008  0.5085  0.1752
   16SAPS   C27 2043   0.414   1.532   7.483  0.4390 -0.0379  0.0163
   16SAPS   H7R 2044   0.309   1.549   7.517  0.9530  2.0696  0.6541
   16SAPS   H7S 2045   0.409   1.586   7.386  1.1107  1.3981  0.7572
   16SAPS   C28 2046   0.512   1.590   7.583  0.3156 -0.2674  0.4442
   16SAPS   H8R 2047   0.608   1.620   7.538  1.3980 -1.6524  1.7538
   16SAPS   C29 2048   0.502   1.582   7.716  0.2515 -0.3773  0.2073
   16SAPS   H9R 2049   0.565   1.638   7.787 -1.6794  0.4703  1.3225
   16SAPS  C210 2050   0.395   1.515   7.788  0.5819  0.9628 -0.6588
   16SAPS  H10R 2051   0.308   1.486   7.725 -0.7289 -2.2416  2.4507
   16SAPS  H10S 2052   0.356   1.581   7.869 -0.4968  1.2484 -1.4091
   16SAPS  C211 2053   0.449   1.389   7.847 -0.4416 -0.3222 -0.2555
   16SAPS  H11R 2054   0.511   1.329   7.779 -0.1119  1.2696 -1.4046
   16SAPS  C212 2055   0.427   1.346   7.976  0.0298 -0.4446 -0.0677
   16SAPS  H12R 2056   0.495   1.273   8.022 -1.0748  0.0358  2.3642
   16SAPS  C213 2057   0.351   1.418   8.088 -0.0413 -0.3735 -0.0464
   16SAPS  H13R 2058   0.323   1.340   8.162  0.5993 -1.7595 -1.2394
   16SAPS  H13S 2059   0.255   1.460   8.052  0.4859  2.0382  1.2449
   16SAPS  C214 2060   0.448   1.517   8.150 -0.2792 -0.0423  0.3920
   16SAPS  H14R 2061   0.462   1.599   8.078 -2.4574 -1.0749 -1.2662
   16SAPS  C215 2062   0.515   1.522   8.265 -0.0662  0.5173  0.1363
   16SAPS  H15R 2063   0.575   1.614   8.275 -0.7108  1.2321 -2.1354
   16SAPS  C216 2064   0.500   1.415   8.376 -0.4682  0.4373  0.1386
   16SAPS  H16R 2065   0.572   1.331   8.365 -0.6328  0.4990 -1.5269
   16SAPS  H16S 2066   0.397   1.371   8.373 -0.5066  0.5546 -0.3483
   16SAPS  C217 2067   0.538   1.480   8.513 -0.0972  0.2576  0.3362
   16SAPS  H17R 2068   0.450   1.539   8.548 -0.0815  0.5553 -0.1200
   16SAPS  H17S 2069   0.629   1.542   8.502 -1.3676  2.1695  0.3178
   16SAPS  C218 2070   0.586   1.375   8.611  0.2414 -0.2628 -0.1447
   16SAPS  H18R 2071   0.614   1.414   8.711  1.9290 -0.6098 -0.4580
   16SAPS  H18S 2072   0.688   1.338   8.584  1.0825  2.1622 -0.3770
   16SAPS  C219 2073   0.488   1.259   8.622  0.4515  0.1489  0.3542
   16SAPS  H19R 2074   0.533   1.193   8.700  2.0422  0.6581 -0.1267
   16SAPS  H19S 2075   0.487   1.194   8.532  2.0547  2.0151 -1.0521
   16SAPS  C220 2076   0.340   1.290   8.647 -0.3730  0.6356  0.3052
   16SAPS  H20R 2077   0.285   1.316   8.554 -1.6187 -0.8499  0.6088
   16SAPS  H20S 2078   0.336   1.380   8.712  0.8530 -1.0723  2.8388
   16SAPS  H20T 2079   0.283   1.205   8.690  2.0250 -1.2722 -0.1793
   16SAPS   C33 2080   0.037   1.316   7.165  0.4457 -0.1842 -0.9982
   16SAPS   H3X 2081   0.092   1.262   7.085 -2.0324 -1.2849 -2.0171
   16SAPS   H3Y 2082  -0.071   1.292   7.150  0.2832 -1.3725  1.7012
   16SAPS   C34 2083   0.092   1.275   7.303  0.2089  0.1057  0.3767
   16SAPS   H4X 2084   0.199   1.300   7.323 -0.0693  0.4068  1.5562
   16SAPS   H4Y 2085   0.085   1.165   7.320 -0.5066  0.1448  0.3268
   16SAPS   C35 2086   0.019   1.345   7.417 -0.5363  0.4419 -0.5731
   16SAPS   H5X 2087  -0.092   1.336   7.409 -0.4423 -2.4884  0.7845
   16SAPS   H5Y 2088   0.040   1.454   7.424 -1.4268  0.5002  1.6243
   16SAPS   C36 2089   0.060   1.273   7.548 -0.6238 -0.0683 -0.0901
   16SAPS   H6X 2090   0.166   1.302   7.567  0.1487 -2.4598 -0.6086
   16SAPS   H6Y 2091   0.054   1.162   7.540 -0.1033 -0.1568  0.6394
   16SAPS   C37 2092  -0.011   1.318   7.678 -0.3088  0.0047 -0.4258
   16SAPS   H7X 2093  -0.122   1.305   7.677 -0.6665  2.3520  1.8234
   16SAPS   H7Y 2094   0.007   1.425   7.703 -1.9567  0.2706 -0.3044
   16SAPS   C38 2095   0.034   1.240   7.804  0.1105  0.6145 -0.2530
   16SAPS   H8X 2096   0.145   1.238   7.798  0.2195  0.4062  1.4761
   16SAPS   H8Y 2097  -0.001   1.135   7.801  0.7224  0.4594 -2.6002
   16SAPS   C39 2098   0.001   1.316   7.929 -0.0300  0.5495  0.6862
   16SAPS   H9X 2099  -0.092   1.377   7.919 -0.1993  0.7337  3.0516
   16SAPS   H9Y 2100   0.076   1.397   7.941  1.4420 -0.6379 -0.3239
   16SAPS  C310 2101  -0.002   1.219   8.045 -0.9253  0.1084  0.7177
   16SAPS  H10X 2102   0.097   1.171   8.061 -1.4001 -1.6431 -1.4427
   16SAPS  H10Y 2103  -0.064   1.128   8.034 -0.6161  0.0601 -0.6208
   16SAPS  C311 2104  -0.045   1.295   8.169  0.2165  0.2108 -0.3990
   16SAPS  H11X 2105  -0.155   1.308   8.177  0.0756 -1.7137  1.2265
   16SAPS  H11Y 2106   0.005   1.393   8.154 -0.8795  0.6691 -1.0701
   16SAPS  C312 2107  -0.004   1.213   8.296  0.0212 -0.6024  0.6220
   16SAPS  H12X 2108   0.102   1.185   8.279 -0.0136  0.9017 -2.2596
   16SAPS  H12Y 2109  -0.069   1.123   8.288  0.2219 -0.5380 -1.9747
   16SAPS  C313 2110  -0.032   1.293   8.428 -0.2375  0.1585  0.3340
   16SAPS  H13X 2111  -0.135   1.331   8.417 -0.4242 -0.1154  1.1309
   16SAPS  H13Y 2112   0.037   1.380   8.417  0.8299 -0.5709  1.1329
   16SAPS  C314 2113  -0.034   1.217   8.561 -0.7189  0.4365  0.2211
   16SAPS  H14X 2114   0.047   1.144   8.580 -0.7745  0.6930  1.5073
   16SAPS  H14Y 2115  -0.125   1.152   8.561  0.5483 -1.3624  0.5217
   16SAPS  C315 2116  -0.030   1.297   8.687 -0.1446  0.6771  0.3215
   16SAPS  H15X 2117  -0.123   1.357   8.693 -0.5103  0.0045  1.5637
   16SAPS  H15Y 2118   0.056   1.367   8.681 -0.3250  0.8093 -0.7777
   16SAPS  C316 2119  -0.029   1.201   8.805  0.4015 -0.0903  0.1572
   16SAPS  H16X 2120   0.060   1.136   8.790 -0.5380 -0.9662 -1.8942
   16SAPS  H16Y 2121  -0.119   1.135   8.808  2.4754 -3.0649 -0.5280
   16SAPS  C317 2122  -0.023   1.271   8.948 -0.4726 -0.5113  0.7202
   16SAPS  H17X 2123   0.040   1.362   8.943  0.1770 -0.7986  3.3535
   16SAPS  H17Y 2124   0.033   1.201   9.013 -0.9931 -0.9923  0.6552
   16SAPS  C318 2125  -0.158   1.313   9.002  0.9244  0.4437  0.3644
   16SAPS  H18X 2126  -0.231   1.230   8.990 -0.0234  1.5389 -1.4978
   16SAPS  H18Y 2127  -0.196   1.388   8.930  4.3118  1.0574 -0.8438
   16SAPS  H18Z 2128  -0.156   1.343   9.109 -3.8460 -0.9539  0.9892
   17SAPC     N 2129   5.100   4.803  10.578 -0.1129  0.4482  0.0732
   17SAPC   C12 2130   5.095   4.799  10.422  0.6200  0.9603 -0.5979
   17SAPC  H12A 2131   5.177   4.856  10.382  0.3181  1.7707 -0.0695
   17SAPC  H12B 2132   5.010   4.853  10.383  0.2176  0.1705 -0.8264
   17SAPC   C13 2133   5.232   4.744  10.620 -0.0447  0.4226  0.3386
   17SAPC  H13A 2134   5.233   4.709  10.722 -0.7353 -3.4562 -0.9269
   17SAPC  H13B 2135   5.259   4.658  10.561 -2.0309  1.6600 -2.5246
   17SAPC  H13C 2136   5.309   4.820  10.614 -1.0814  1.4882  0.3734
   17SAPC   C14 2137   5.086   4.940  10.627 -0.3841  0.0333  0.1958
   17SAPC  H14A 2138   5.168   4.988  10.576 -0.0812  0.1733  0.8026
   17SAPC  H14B 2139   4.987   4.973  10.602  0.7592  2.9077 -0.7075
   17SAPC  H14C 2140   5.097   4.935  10.735 -0.4907 -2.1800  0.1269
   17SAPC   C15 2141   4.984   4.723  10.638  0.4128 -0.0545  0.9771
   17SAPC  H15A 2142   4.891   4.777  10.630  0.4087  0.1820  2.4112
   17SAPC  H15B 2143   4.982   4.633  10.579 -0.7873 -0.2123  1.2483
   17SAPC  H15C 2144   5.006   4.700  10.742  0.0163 -0.5079  0.9612
   17SAPC   C11 2145   5.077   4.656  10.359 -0.0741 -0.1154  0.3514
   17SAPC  H11A 2146   5.161   4.587  10.383  0.5855  0.7859  0.6553
   17SAPC  H11B 2147   5.091   4.668  10.250 -0.2192 -1.2069  0.2105
   17SAPC     P 2148   4.820   4.637  10.308 -0.1683  0.6503 -0.0855
   17SAPC   O13 2149   4.708   4.604  10.400 -0.0939 -0.2376 -0.3599
   17SAPC   O14 2150   4.823   4.776  10.264 -0.0920 -0.6924 -0.5412
   17SAPC   O12 2151   4.952   4.594  10.383  0.1542  0.1480  0.2775
   17SAPC   O11 2152   4.813   4.539  10.185 -0.4062 -0.5018 -0.3023
   17SAPC    C1 2153   4.732   4.427  10.191 -0.0968  0.6584 -0.3680
   17SAPC    HA 2154   4.770   4.357  10.268 -0.7268 -0.1788 -0.8084
   17SAPC    HB 2155   4.631   4.460  10.223  0.8144  0.5485  2.7697
   17SAPC    C2 2156   4.721   4.355  10.060  0.4800  0.1006 -0.3096
   17SAPC    HS 2157   4.654   4.267  10.075 -0.4877  0.8728 -0.0318
   17SAPC   O21 2158   4.844   4.317  10.000 -0.1099 -0.2974  0.3078
   17SAPC   C21 2159   4.875   4.190   9.998 -0.1896  0.0500 -0.1311
   17SAPC   O22 2160   4.805   4.096  10.032  0.0703 -0.2725 -0.1477
   17SAPC   C22 2161   5.013   4.170   9.951 -0.0983  0.6010 -0.2896
   17SAPC   H2R 2162   5.070   4.118  10.031 -0.7728 -0.1543 -0.3011
   17SAPC   H2S 2163   5.007   4.102   9.864  1.4502  0.3995 -0.2561
   17SAPC    C3 2164   4.656   4.454   9.964  0.0537 -0.4815  0.8547
   17SAPC    HX 2165   4.733   4.533   9.964 -0.1212 -0.3111 -0.1394
   17SAPC    HY 2166   4.563   4.501  10.004  0.9235  1.6349  0.4256
   17SAPC   O31 2167   4.653   4.409   9.822  0.0268 -0.1476  0.5983
   17SAPC   C31 2168   4.543   4.341   9.790 -0.1927  0.0066 -0.6961
   17SAPC   O32 2169   4.439   4.341   9.856 -0.0101  0.2848  0.0807
   17SAPC   C32 2170   4.567   4.270   9.656 -0.4224  0.3726  0.3687
   17SAPC   H2X 2171   4.628   4.180   9.675 -0.9911 -0.5730 -2.0651
   17SAPC   H2Y 2172   4.611   4.349   9.591 -0.1549 -1.5551 -1.8549
   17SAPC   C23 2173   5.087   4.303   9.927  0.1702 -0.1575  0.4044
   17SAPC   H3R 2174   5.086   4.374  10.012  1.7108 -0.4272  0.6747
   17SAPC   H3S 2175   5.030   4.347   9.842  0.4687 -0.9130 -0.1946
   17SAPC   C24 2176   5.232   4.285   9.873 -0.1539 -0.0806  0.1909
   17SAPC   H4R 2177   5.246   4.190   9.817  0.1810  1.2884 -2.1044
   17SAPC   H4S 2178   5.296   4.269   9.963  0.6052  0.1400 -0.3058
   17SAPC   C25 2179   5.282   4.397   9.793  0.2533  0.2319 -0.1971
   17SAPC   H5R 2180   5.341   4.477   9.840 -1.3474  1.9671 -1.1037
   17SAPC   C26 2181   5.265   4.409   9.660 -0.3694  0.0400  0.7719
   17SAPC   H6R 2182   5.321   4.489   9.610 -0.7948 -0.5968 -0.7391
   17SAPC   C27 2183   5.181   4.317   9.568  0.4026  0.4858 -0.1693
   17SAPC   H7R 2184   5.077   4.319   9.607  0.1602 -1.0565 -0.6991
   17SAPC   H7S 2185   5.215   4.211   9.563 -1.4333  0.0129 -4.1656
   17SAPC   C28 2186   5.174   4.362   9.427  0.0047  0.5115  0.2994
   17SAPC   H8R 2187   5.225   4.455   9.395  0.3526  0.5217  0.8826
   17SAPC   C29 2188   5.100   4.294   9.332  0.2854  1.2751  0.2327
   17SAPC   H9R 2189   5.107   4.334   9.230 -1.6144  2.4000  0.5264
   17SAPC  C210 2190   5.021   4.167   9.347  0.5579 -0.4956 -0.1520
   17SAPC  H10R 2191   4.917   4.200   9.369  0.7875 -1.1620  1.9886
   17SAPC  H10S 2192   5.038   4.120   9.446 -0.2666  0.4577  0.4447
   17SAPC  C211 2193   5.009   4.080   9.223 -0.2992  0.1197 -0.6497
   17SAPC  H11R 2194   4.922   4.100   9.158 -0.1397 -1.0850 -1.2480
   17SAPC  C212 2195   5.092   3.983   9.188  0.5714  0.1763 -0.2312
   17SAPC  H12R 2196   5.069   3.929   9.095  2.3527 -0.1655 -0.4800
   17SAPC  C213 2197   5.219   3.936   9.246  0.1949 -0.7627  0.2793
   17SAPC  H13R 2198   5.253   4.025   9.303 -0.3074  0.3866 -1.1652
   17SAPC  H13S 2199   5.292   3.904   9.169  0.5061  0.5414  0.0213
   17SAPC  C214 2200   5.192   3.811   9.325  0.2826 -0.3088 -0.5820
   17SAPC  H14R 2201   5.148   3.726   9.271  2.4216  0.0618 -2.9851
   17SAPC  C215 2202   5.205   3.799   9.458 -0.8665  0.4135 -0.1845
   17SAPC  H15R 2203   5.172   3.705   9.504 -0.9394  1.5374  2.1505
   17SAPC  C216 2204   5.256   3.904   9.552 -0.6196  0.1505 -0.3248
   17SAPC  H16R 2205   5.169   3.968   9.582  0.4624  0.4083  2.4105
   17SAPC  H16S 2206   5.331   3.972   9.506  0.0161  0.2453  0.8205
   17SAPC  C217 2207   5.297   3.837   9.687 -0.7963  0.2198 -0.3036
   17SAPC  H17R 2208   5.393   3.785   9.669 -0.6556 -0.7147  2.7517
   17SAPC  H17S 2209   5.212   3.769   9.712 -1.0511  0.2397 -1.1003
   17SAPC  C218 2210   5.302   3.931   9.808  0.0731 -0.0894 -0.7362
   17SAPC  H18R 2211   5.209   3.981   9.841 -0.5354 -2.2247  0.9043
   17SAPC  H18S 2212   5.370   4.012   9.773  0.5655 -0.8364 -1.5317
   17SAPC  C219 2213   5.370   3.867   9.929  0.3271  0.3345 -0.2000
   17SAPC  H19R 2214   5.452   3.802   9.893 -0.4504 -0.1101 -1.1907
   17SAPC  H19S 2215   5.289   3.799   9.963 -0.2195  0.9876 -0.1679
   17SAPC  C220 2216   5.409   3.960  10.044  0.3617  0.2270 -0.8405
   17SAPC  H20R 2217   5.474   3.907  10.117  0.4612  1.0908 -0.2878
   17SAPC  H20S 2218   5.317   4.005  10.087  0.5781 -1.8847  1.9536
   17SAPC  H20T 2219   5.475   4.044  10.013 -0.0973  1.4926  1.4437
   17SAPC   C33 2220   4.435   4.225   9.585 -0.3693  0.2872 -0.5768
   17SAPC   H3X 2221   4.364   4.310   9.578  1.3217  1.5855 -2.5367
   17SAPC   H3Y 2222   4.387   4.147   9.648  0.8361  0.9339  1.1458
   17SAPC   C34 2223   4.454   4.182   9.437  0.2315 -0.4597 -0.8144
   17SAPC   H4X 2224   4.366   4.119   9.412 -0.9914  1.6319 -1.9109
   17SAPC   H4Y 2225   4.549   4.124   9.434  0.7059  0.2962 -0.5093
   17SAPC   C35 2226   4.449   4.304   9.332  0.0813 -0.0823  0.2412
   17SAPC   H5X 2227   4.508   4.380   9.386 -0.2002  0.3518 -0.0618
   17SAPC   H5Y 2228   4.341   4.330   9.337  0.5808  2.2293 -0.3799
   17SAPC   C36 2229   4.490   4.268   9.190  0.0045  0.2002 -0.0735
   17SAPC   H6X 2230   4.585   4.210   9.188  0.1030  0.2728  1.7603
   17SAPC   H6Y 2231   4.516   4.365   9.142 -2.2258  1.5090  1.2501
   17SAPC   C37 2232   4.381   4.211   9.101 -0.7208  0.0593  0.1942
   17SAPC   H7X 2233   4.300   4.286   9.092  0.0658  0.7644 -1.1575
   17SAPC   H7Y 2234   4.334   4.121   9.146  0.2497 -0.3212  0.4705
   17SAPC   C38 2235   4.434   4.180   8.954 -0.2928 -0.1707  0.6892
   17SAPC   H8X 2236   4.490   4.268   8.916 -1.2081  0.1768  0.1286
   17SAPC   H8Y 2237   4.344   4.165   8.891 -0.5438  0.6972  0.8319
   17SAPC   C39 2238   4.529   4.059   8.964 -0.1515 -0.5719 -0.8465
   17SAPC   H9X 2239   4.475   3.989   9.031 -2.5111  1.4326 -0.5882
   17SAPC   H9Y 2240   4.626   4.080   9.014  0.0084 -3.7948  0.3188
   17SAPC  C310 2241   4.556   3.993   8.829  0.1098 -0.1846  0.5866
   17SAPC  H10X 2242   4.612   4.065   8.765  0.2707 -1.1864 -0.4102
   17SAPC  H10Y 2243   4.463   3.960   8.779  0.2273 -0.2346  0.3998
   17SAPC  C311 2244   4.660   3.881   8.835 -0.6698 -0.2557  0.2389
   17SAPC  H11X 2245   4.629   3.812   8.916 -0.3002  0.8534  1.3344
   17SAPC  H11Y 2246   4.759   3.914   8.873  0.4840 -3.6369  0.3176
   17SAPC  C312 2247   4.676   3.789   8.712  0.0417  0.4060 -0.2914
   17SAPC  H12X 2248   4.738   3.701   8.739 -2.3052 -0.9571  0.8467
   17SAPC  H12Y 2249   4.729   3.844   8.631 -0.1204  1.6644  0.4508
   17SAPC  C313 2250   4.537   3.750   8.657 -0.3343  0.2944  0.1635
   17SAPC  H13X 2251   4.503   3.826   8.584  1.0093 -1.4708 -2.3857
   17SAPC  H13Y 2252   4.470   3.759   8.745 -1.0882  1.9936 -0.5495
   17SAPC  C314 2253   4.536   3.615   8.590 -0.6114 -0.4513 -0.2238
   17SAPC  H14X 2254   4.597   3.543   8.648 -0.6821 -0.3605 -0.0398
   17SAPC  H14Y 2255   4.580   3.615   8.488 -0.2607  2.9087 -0.1082
   17SAPC  C315 2256   4.391   3.547   8.583  0.5293  0.2226 -0.0474
   17SAPC  H15X 2257   4.353   3.539   8.687 -2.0092 -0.6638 -1.0104
   17SAPC  H15Y 2258   4.390   3.441   8.551  0.5281  0.2658 -0.1902
   17SAPC  C316 2259   4.295   3.619   8.486  0.2943  0.5293  0.0935
   17SAPC  H16X 2260   4.364   3.651   8.404 -1.5595 -0.6509 -2.0044
   17SAPC  H16Y 2261   4.262   3.720   8.516  0.2753  0.4263  0.4211
   17SAPC  C317 2262   4.172   3.527   8.446 -0.9384  0.0212 -0.3070
   17SAPC  H17X 2263   4.195   3.419   8.434 -2.6052 -0.4362  0.4805
   17SAPC  H17Y 2264   4.132   3.561   8.349 -0.1990  1.6302 -0.0662
   17SAPC  C318 2265   4.046   3.542   8.541 -0.3242  0.0508 -0.4994
   17SAPC  H18X 2266   4.076   3.496   8.638 -0.8829 -1.1198 -0.8716
   17SAPC  H18Y 2267   4.016   3.648   8.558  3.7883  0.9579  1.6730
   17SAPC  H18Z 2268   3.956   3.483   8.512 -1.1975  1.0680  0.1113
   18SAPC     N 2269   5.502   3.948  10.777  0.3009  0.9014 -0.8683
   18SAPC   C12 2270   5.422   4.014  10.669 -0.0460  0.0918  0.1957
   18SAPC  H12A 2271   5.477   4.102  10.640  1.0756 -0.5378  0.4197
   18SAPC  H12B 2272   5.330   4.043  10.717 -0.2437  2.0674 -1.3079
   18SAPC   C13 2273   5.532   4.042  10.890  0.0270 -0.0581 -0.5522
   18SAPC  H13A 2274   5.598   3.995  10.962 -0.9497 -1.2808 -0.4411
   18SAPC  H13B 2275   5.578   4.130  10.847 -2.7718  1.0568 -1.3786
   18SAPC  H13C 2276   5.444   4.087  10.934 -0.4821 -0.6185 -0.9923
   18SAPC   C14 2277   5.438   3.825  10.830 -1.5439  0.2773  0.6946
   18SAPC  H14A 2278   5.346   3.842  10.883 -1.2271  0.1461  1.2853
   18SAPC  H14B 2279   5.411   3.762  10.747 -1.2926  0.5520  0.4021
   18SAPC  H14C 2280   5.507   3.764  10.887 -0.5613  1.3597  0.6850
   18SAPC   C15 2281   5.636   3.906  10.727 -0.2783 -0.3223 -0.2611
   18SAPC  H15A 2282   5.682   3.842  10.802  0.3703 -0.9958 -1.2256
   18SAPC  H15B 2283   5.618   3.848  10.638  0.7958 -1.4983  0.2640
   18SAPC  H15C 2284   5.704   3.986  10.703  1.3276 -1.6249 -0.1503
   18SAPC   C11 2285   5.379   3.924  10.551  0.0507 -0.1970 -0.1793
   18SAPC  H11A 2286   5.469   3.886  10.498  1.7335  2.5437  0.5716
   18SAPC  H11B 2287   5.341   4.001  10.479 -1.6788 -0.5244  0.3479
   18SAPC     P 2288   5.130   3.854  10.592  0.3226  0.1492  0.1222
   18SAPC   O13 2289   5.045   3.739  10.560 -0.4527 -0.2625 -0.1002
   18SAPC   O14 2290   5.099   3.920  10.721  0.5972  0.0717 -0.3396
   18SAPC   O12 2291   5.285   3.811  10.591 -0.0772 -0.5411  0.0081
   18SAPC   O11 2292   5.123   3.962  10.471  0.0252  0.5019  0.5635
   18SAPC    C1 2293   5.122   3.913  10.334 -0.6175  0.2652  1.0793
   18SAPC    HA 2294   5.158   3.990  10.263  1.1473 -0.8886  0.7031
   18SAPC    HB 2295   5.191   3.826  10.328  1.6792  2.0378  1.1450
   18SAPC    C2 2296   4.976   3.879  10.270 -0.7493  1.1066  0.1411
   18SAPC    HS 2297   4.937   3.789  10.322 -1.2329  0.6144 -1.0499
   18SAPC   O21 2298   4.980   3.864  10.129  0.0896 -0.0426  0.2625
   18SAPC   C21 2299   4.895   3.774  10.072 -0.2608 -0.0194  0.0899
   18SAPC   O22 2300   4.825   3.703  10.141  0.1615  0.5588 -0.2166
   18SAPC   C22 2301   4.906   3.775   9.915 -0.2301  0.8205  0.4332
   18SAPC   H2R 2302   4.967   3.864   9.890  0.8567  0.2268  0.9667
   18SAPC   H2S 2303   4.962   3.684   9.886 -0.5297  1.1758 -1.3313
   18SAPC    C3 2304   4.865   3.976  10.315  0.2083  0.6676  0.3931
   18SAPC    HX 2305   4.888   4.072  10.265 -0.0749  0.7855  0.4865
   18SAPC    HY 2306   4.869   3.990  10.425  1.7778 -0.1503  0.4565
   18SAPC   O31 2307   4.735   3.927  10.276 -0.4516  0.5824  0.2650
   18SAPC   C31 2308   4.646   4.020  10.258 -0.4615 -0.4546  0.0821
   18SAPC   O32 2309   4.664   4.139  10.291 -0.5594  0.1007  0.0368
   18SAPC   C32 2310   4.522   3.962  10.181 -0.5551  0.1174  0.1614
   18SAPC   H2X 2311   4.443   3.952  10.259 -0.3844  0.7344  0.4187
   18SAPC   H2Y 2312   4.543   3.856  10.155 -0.7184 -0.3391  1.8262
   18SAPC   C23 2313   4.764   3.773   9.844  1.1559  0.0833 -1.5172
   18SAPC   H3R 2314   4.728   3.878   9.836  0.1729 -0.0137  1.1830
   18SAPC   H3S 2315   4.681   3.726   9.900  1.1247 -0.2076 -1.8067
   18SAPC   C24 2316   4.775   3.710   9.702  0.7962  0.6546  0.0676
   18SAPC   H4R 2317   4.671   3.712   9.661  1.3003  1.5213 -1.1986
   18SAPC   H4S 2318   4.807   3.604   9.708 -2.9285 -0.4654  1.9005
   18SAPC   C25 2319   4.873   3.773   9.606  0.0371  0.0661 -0.2771
   18SAPC   H5R 2320   4.976   3.769   9.642 -0.0656 -0.3677 -0.0328
   18SAPC   C26 2321   4.851   3.819   9.482  0.0124  0.6500  0.4384
   18SAPC   H6R 2322   4.934   3.856   9.420 -1.0127  2.8411  0.2958
   18SAPC   C27 2323   4.712   3.820   9.410  0.6916 -0.5915 -0.6176
   18SAPC   H7R 2324   4.649   3.901   9.452  0.4269 -0.1335 -1.8754
   18SAPC   H7S 2325   4.658   3.723   9.420  0.0738 -0.3155 -1.1917
   18SAPC   C28 2326   4.726   3.840   9.266 -0.8859 -0.1288  0.1999
   18SAPC   H8R 2327   4.721   3.945   9.235  0.1393 -0.5858 -1.5416
   18SAPC   C29 2328   4.757   3.753   9.166  0.2530 -0.3641  0.0478
   18SAPC   H9R 2329   4.780   3.774   9.060  0.0075 -2.0793 -0.3575
   18SAPC  C210 2330   4.768   3.604   9.195  0.4929  0.7315  0.3270
   18SAPC  H10R 2331   4.711   3.546   9.119 -2.3042  0.9924  2.1254
   18SAPC  H10S 2332   4.716   3.581   9.291  1.2288  3.8104  1.5244
   18SAPC  C211 2333   4.914   3.567   9.187  0.2355 -0.4991  0.1093
   18SAPC  H11R 2334   4.970   3.579   9.281  0.6403 -0.4376 -0.1418
   18SAPC  C212 2335   4.982   3.511   9.085 -0.1116  0.3364 -0.5594
   18SAPC  H12R 2336   5.090   3.499   9.107 -0.2908  1.4565  0.9917
   18SAPC  C213 2337   4.926   3.482   8.950  0.3053  0.6967 -0.4404
   18SAPC  H13R 2338   4.983   3.544   8.877 -0.1558 -1.5862 -2.7870
   18SAPC  H13S 2339   4.821   3.517   8.941 -0.0290 -0.2471 -0.2122
   18SAPC  C214 2340   4.945   3.344   8.901  0.2055 -0.0960  0.3812
   18SAPC  H14R 2341   4.907   3.265   8.968  0.7225 -1.7203 -1.2249
   18SAPC  C215 2342   5.002   3.301   8.784 -0.1973 -0.1526 -0.3828
   18SAPC  H15R 2343   4.983   3.197   8.752 -0.4244  0.1841 -1.3569
   18SAPC  C216 2344   5.067   3.390   8.679 -0.0232 -0.8086 -0.9014
   18SAPC  H16R 2345   5.174   3.371   8.701 -0.0133 -0.5301 -0.7046
   18SAPC  H16S 2346   5.061   3.500   8.694 -0.6090 -0.8152 -1.0808
   18SAPC  C217 2347   5.025   3.361   8.534  0.1688 -0.4534  0.4559
   18SAPC  H17R 2348   5.072   3.266   8.502  1.3321  0.7986 -1.6990
   18SAPC  H17S 2349   5.081   3.434   8.471 -0.8095 -1.5267 -1.6948
   18SAPC  C218 2350   4.877   3.355   8.489 -0.2000 -0.7231 -0.4335
   18SAPC  H18R 2351   4.842   3.455   8.522 -0.2951 -1.3489  1.4246
   18SAPC  H18S 2352   4.827   3.276   8.548 -0.8716 -0.2871 -0.4053
   18SAPC  C219 2353   4.857   3.344   8.345 -0.0677  0.3663  0.1760
   18SAPC  H19R 2354   4.893   3.248   8.302 -3.2456 -0.5154 -0.6556
   18SAPC  H19S 2355   4.926   3.416   8.296 -2.5378  1.2612 -2.1190
   18SAPC  C220 2356   4.720   3.386   8.296 -0.1759 -0.3206 -0.5354
   18SAPC  H20R 2357   4.700   3.485   8.342  1.2386  0.8720 -2.4069
   18SAPC  H20S 2358   4.647   3.307   8.323  0.0171 -0.3800 -0.1691
   18SAPC  H20T 2359   4.729   3.395   8.186 -1.0627 -1.4163 -0.7039
   18SAPC   C33 2360   4.461   4.040  10.057  1.0241 -0.0821 -0.2971
   18SAPC   H3X 2361   4.537   4.064   9.980 -0.0603  0.0872 -1.3273
   18SAPC   H3Y 2362   4.430   4.142  10.089  1.3057 -0.1032  0.0422
   18SAPC   C34 2363   4.349   3.961   9.996 -0.2717 -0.0630 -0.2978
   18SAPC   H4X 2364   4.290   4.033   9.936 -0.3763  0.0898 -0.0088
   18SAPC   H4Y 2365   4.280   3.922  10.074 -0.9344 -2.5605 -2.0310
   18SAPC   C35 2366   4.391   3.843   9.915 -0.3038 -0.3170  0.1156
   18SAPC   H5X 2367   4.424   3.762   9.983  0.6606 -0.2969 -0.3160
   18SAPC   H5Y 2368   4.468   3.861   9.836  0.2482  2.7613  1.2845
   18SAPC   C36 2369   4.264   3.788   9.843  0.1308 -0.5995  0.0146
   18SAPC   H6X 2370   4.211   3.879   9.808  0.9370 -0.4257 -0.7677
   18SAPC   H6Y 2371   4.201   3.728   9.912 -0.7277  1.4879  1.0800
   18SAPC   C37 2372   4.307   3.691   9.726  0.1581  0.8099 -0.4574
   18SAPC   H7X 2373   4.238   3.605   9.719  1.1699 -0.2293  1.9262
   18SAPC   H7Y 2374   4.406   3.647   9.749 -0.4107  0.2656  0.9732
   18SAPC   C38 2375   4.303   3.761   9.596 -0.3654  0.1415  0.1368
   18SAPC   H8X 2376   4.362   3.856   9.593  0.0162 -0.1247 -1.5476
   18SAPC   H8Y 2377   4.199   3.795   9.578 -0.5956 -0.2829  0.6575
   18SAPC   C39 2378   4.337   3.682   9.469 -0.8889 -0.0158  0.8836
   18SAPC   H9X 2379   4.279   3.588   9.482 -0.7420 -0.2747 -0.3370
   18SAPC   H9Y 2380   4.446   3.659   9.464 -1.2031 -1.6480  1.3231
   18SAPC  C310 2381   4.291   3.729   9.330 -0.3923 -0.9456 -1.0071
   18SAPC  H10X 2382   4.335   3.828   9.307  0.7001 -1.3107 -0.5119
   18SAPC  H10Y 2383   4.182   3.749   9.340 -0.0136 -0.0602  1.5641
   18SAPC  C311 2384   4.315   3.634   9.221  0.3248  0.0296  0.6958
   18SAPC  H11X 2385   4.240   3.552   9.225 -2.5296  2.4941 -0.2100
   18SAPC  H11Y 2386   4.412   3.581   9.227  0.3869 -0.1886 -1.6823
   18SAPC  C312 2387   4.312   3.691   9.071  0.0978  0.0415 -0.6914
   18SAPC  H12X 2388   4.296   3.601   9.009 -1.2021 -1.0135  1.1068
   18SAPC  H12Y 2389   4.417   3.722   9.052  1.0808 -0.5042  3.2260
   18SAPC  C313 2390   4.204   3.799   9.045  0.4185  0.0246  0.3644
   18SAPC  H13X 2391   4.239   3.892   9.096 -2.0466 -0.1719  2.5106
   18SAPC  H13Y 2392   4.105   3.759   9.072 -0.8593  0.6783 -3.0363
   18SAPC  C314 2393   4.191   3.838   8.898  0.3893 -0.2350  0.6148
   18SAPC  H14X 2394   4.149   3.759   8.833  1.9271  0.9760 -1.9315
   18SAPC  H14Y 2395   4.291   3.866   8.858  0.6346 -2.0964 -0.0850
   18SAPC  C315 2396   4.104   3.965   8.883  0.1488 -0.1979  0.4346
   18SAPC  H15X 2397   4.145   4.033   8.961  0.8687 -1.4812  1.1888
   18SAPC  H15Y 2398   3.995   3.948   8.889 -0.0840  0.5630 -1.2754
   18SAPC  C316 2399   4.114   4.032   8.742 -0.1055  0.1433  0.0062
   18SAPC  H16X 2400   4.057   3.969   8.670 -1.6828  0.6431  0.7876
   18SAPC  H16Y 2401   4.219   4.023   8.706  0.9479 -0.3784  3.0764
   18SAPC  C317 2402   4.057   4.176   8.736 -0.0976  0.3330 -0.4291
   18SAPC  H17X 2403   4.117   4.249   8.794 -2.1675  0.7324  1.2880
   18SAPC  H17Y 2404   3.951   4.165   8.768 -0.5867  0.2518 -2.0168
   18SAPC  C318 2405   4.068   4.224   8.595  0.4099 -0.5162 -0.0394
   18SAPC  H18X 2406   4.171   4.259   8.574  0.2909 -0.4911 -0.5978
   18SAPC  H18Y 2407   4.000   4.301   8.553  1.2470 -0.0203 -0.4949
   18SAPC  H18Z 2408   4.054   4.141   8.522  0.5813  0.2880 -0.9933
   19SAPC     N 2409   4.488   5.615  10.487  0.1872  0.4498 -0.1629
   19SAPC   C12 2410   4.465   5.770  10.480 -0.2285 -0.6225  0.1605
   19SAPC  H12A 2411   4.460   5.816  10.577 -0.8182  0.3563 -0.3294
   19SAPC  H12B 2412   4.367   5.779  10.438  0.3076 -1.4932 -1.3253
   19SAPC   C13 2413   4.505   5.553  10.351 -0.3889 -0.5211 -0.5154
   19SAPC  H13A 2414   4.432   5.594  10.282  2.6871  1.5907 -2.6614
   19SAPC  H13B 2415   4.603   5.582  10.316  0.1037 -1.3852  0.1281
   19SAPC  H13C 2416   4.511   5.446  10.359  1.5576 -0.2931  1.4533
   19SAPC   C14 2417   4.604   5.584  10.580  0.1791  0.4552  0.2970
   19SAPC  H14A 2418   4.625   5.479  10.598 -1.4438  0.2760  1.2165
   19SAPC  H14B 2419   4.697   5.620  10.539  1.2270 -0.6749  1.6189
   19SAPC  H14C 2420   4.597   5.647  10.667 -0.7686 -0.7797  1.1418
   19SAPC   C15 2421   4.371   5.553  10.549  0.1099 -0.1869 -0.1343
   19SAPC  H15A 2422   4.288   5.576  10.483 -0.8848 -0.0115  1.1646
   19SAPC  H15B 2423   4.385   5.447  10.564  0.5711 -0.4451 -2.1493
   19SAPC  H15C 2424   4.353   5.605  10.642 -0.9735  1.8801 -1.4621
   19SAPC   C11 2425   4.562   5.861  10.393  0.3829 -0.2685 -0.1136
   19SAPC  H11A 2426   4.532   5.968  10.389  0.2408 -0.3060 -0.0576
   19SAPC  H11B 2427   4.547   5.821  10.290  1.1834 -1.2792  0.1606
   19SAPC     P 2428   4.729   5.954  10.562  0.3379  0.2894 -0.0533
   19SAPC   O13 2429   4.639   5.918  10.669 -0.5094  0.4352 -0.1907
   19SAPC   O14 2430   4.877   5.957  10.588  0.9553  0.7377 -0.2100
   19SAPC   O12 2431   4.700   5.854  10.445  0.1816 -0.2017  0.6180
   19SAPC   O11 2432   4.684   6.095  10.506 -0.5190  0.1026 -0.3144
   19SAPC    C1 2433   4.770   6.181  10.434  0.1716  1.1235  0.0706
   19SAPC    HA 2434   4.729   6.282  10.455  1.6205  1.3395  2.0196
   19SAPC    HB 2435   4.877   6.188  10.463  0.8565  1.3430 -2.3675
   19SAPC    C2 2436   4.763   6.179  10.278  0.4149  0.7160 -0.3999
   19SAPC    HS 2437   4.802   6.277  10.243 -1.0556  2.2364  2.1070
   19SAPC   O21 2438   4.623   6.156  10.233 -0.6380 -0.7994 -0.3262
   19SAPC   C21 2439   4.548   6.266  10.246  0.7775 -0.1717 -0.0494
   19SAPC   O22 2440   4.577   6.373  10.292  0.1381  0.5018 -0.5972
   19SAPC   C22 2441   4.406   6.235  10.200  0.4568  0.1749  0.3198
   19SAPC   H2R 2442   4.395   6.124  10.200 -0.2647  0.2474  0.0547
   19SAPC   H2S 2443   4.334   6.285  10.267 -3.1874 -0.8273 -2.6955
   19SAPC    C3 2444   4.863   6.075  10.215  0.2939 -0.0904 -0.4868
   19SAPC    HX 2445   4.852   5.969  10.248  0.7692 -0.3725 -1.2011
   19SAPC    HY 2446   4.965   6.098  10.253  0.2939 -2.2380  0.9019
   19SAPC   O31 2447   4.878   6.092  10.073  0.1155 -0.8732  0.1039
   19SAPC   C31 2448   4.793   6.021   9.998  0.5581 -0.3146  0.2487
   19SAPC   O32 2449   4.704   5.947  10.036 -0.2095 -0.3388 -0.5758
   19SAPC   C32 2450   4.804   6.070   9.855 -0.4026 -0.6816 -0.2680
   19SAPC   H2X 2451   4.898   6.123   9.832  0.6778 -0.9261  3.2286
   19SAPC   H2Y 2452   4.719   6.136   9.827  0.6998  0.0915 -1.8333
   19SAPC   C23 2453   4.367   6.280  10.055  0.4643  0.9384  0.1070
   19SAPC   H3R 2454   4.372   6.391  10.053  0.5960  0.9462  0.8155
   19SAPC   H3S 2455   4.267   6.239  10.031  0.9871 -0.7405  0.7654
   19SAPC   C24 2456   4.472   6.216   9.961 -0.0281 -0.0704 -0.1013
   19SAPC   H4R 2457   4.575   6.233  10.001  0.5108 -0.4240 -1.3273
   19SAPC   H4S 2458   4.452   6.276   9.870 -2.4013  0.3332  0.6671
   19SAPC   C25 2459   4.442   6.070   9.936  0.5162  0.5341 -0.1846
   19SAPC   H5R 2460   4.482   6.006  10.016  1.8223  0.2962 -1.0249
   19SAPC   C26 2461   4.388   6.006   9.830  0.5084 -0.1259 -0.8943
   19SAPC   H6R 2462   4.387   5.897   9.846 -0.1912  0.0289  0.1258
   19SAPC   C27 2463   4.332   6.065   9.703  0.1279  0.3153 -0.6365
   19SAPC   H7R 2464   4.397   6.047   9.615 -0.3751 -0.3024 -0.8864
   19SAPC   H7S 2465   4.324   6.176   9.706  0.9790  0.3744 -0.4311
   19SAPC   C28 2466   4.190   6.016   9.689 -0.0102  0.2544  0.1472
   19SAPC   H8R 2467   4.141   5.996   9.785 -0.1255  0.2291  0.0813
   19SAPC   C29 2468   4.119   5.992   9.576 -0.5278  0.3301  0.4911
   19SAPC   H9R 2469   4.017   5.953   9.580 -0.5620  0.4641  1.0324
   19SAPC  C210 2470   4.167   6.031   9.439  0.3417  0.5860  0.3910
   19SAPC  H10R 2471   4.233   6.120   9.446 -1.2855  1.7830  0.7445
   19SAPC  H10S 2472   4.075   6.063   9.386  0.1674 -1.9229 -0.8938
   19SAPC  C211 2473   4.241   5.930   9.357 -0.3866 -0.6753 -0.3866
   19SAPC  H11R 2474   4.282   5.840   9.407 -0.5228 -1.5851 -1.8859
   19SAPC  C212 2475   4.241   5.932   9.226  0.3141  0.0935 -0.4554
   19SAPC  H12R 2476   4.307   5.862   9.173  0.0672 -0.9173  0.5740
   19SAPC  C213 2477   4.192   6.044   9.140 -0.4223 -0.0357  0.0398
   19SAPC  H13R 2478   4.276   6.080   9.077 -0.0803 -0.9344 -0.0236
   19SAPC  H13S 2479   4.154   6.131   9.197 -0.7008  0.1153 -0.3743
   19SAPC  C214 2480   4.075   5.991   9.055  0.0361 -0.2752 -0.3345
   19SAPC  H14R 2481   4.041   5.888   9.072 -1.8468 -0.0380 -2.4480
   19SAPC  C215 2482   4.035   6.058   8.942  0.2172 -0.0440  0.1777
   19SAPC  H15R 2483   3.959   5.999   8.888 -0.4075  0.5712  0.3769
   19SAPC  C216 2484   4.088   6.192   8.896 -0.9168  0.2257 -0.3392
   19SAPC  H16R 2485   4.133   6.187   8.794 -1.8365 -1.0505 -0.6948
   19SAPC  H16S 2486   4.171   6.236   8.954 -3.6093  4.2680  0.6300
   19SAPC  C217 2487   3.971   6.296   8.882  0.1547  0.1444 -0.1539
   19SAPC  H17R 2488   4.007   6.387   8.830  0.4569  0.7140  1.0563
   19SAPC  H17S 2489   3.947   6.327   8.985  1.8729  0.1242  0.2710
   19SAPC  C218 2490   3.837   6.242   8.818 -0.2456 -0.0092  0.1588
   19SAPC  H18R 2491   3.789   6.170   8.888 -2.0877  0.9978 -0.0521
   19SAPC  H18S 2492   3.852   6.183   8.725 -1.2290 -1.6676  1.0262
   19SAPC  C219 2493   3.730   6.353   8.790 -0.9650 -0.0412  0.8036
   19SAPC  H19R 2494   3.638   6.312   8.744  0.3905 -1.7214 -0.4682
   19SAPC  H19S 2495   3.773   6.421   8.713 -1.1019 -0.6098  0.2199
   19SAPC  C220 2496   3.686   6.422   8.924  0.1613  0.0025 -0.2716
   19SAPC  H20R 2497   3.606   6.498   8.906  1.3770  1.1447 -0.9405
   19SAPC  H20S 2498   3.770   6.477   8.971  0.5458 -0.8120  0.0003
   19SAPC  H20T 2499   3.649   6.345   8.994  2.1452 -0.1138  0.6670
   19SAPC   C33 2500   4.773   5.959   9.758 -0.5471 -0.0474 -0.4768
   19SAPC   H3X 2501   4.683   5.901   9.786 -0.4514 -0.7799 -1.6421
   19SAPC   H3Y 2502   4.864   5.896   9.746 -0.7209 -0.3909  0.0075
   19SAPC   C34 2503   4.736   6.022   9.627  0.1220 -0.1236  0.4407
   19SAPC   H4X 2504   4.823   6.077   9.585  0.2767 -1.2692 -0.7618
   19SAPC   H4Y 2505   4.650   6.092   9.628 -2.5782 -3.2392 -2.6252
   19SAPC   C35 2506   4.697   5.922   9.514 -0.0331  0.1880 -0.7295
   19SAPC   H5X 2507   4.601   5.872   9.539  0.1553 -0.0118 -0.4089
   19SAPC   H5Y 2508   4.768   5.837   9.521  1.6183  1.6729  0.9960
   19SAPC   C36 2509   4.676   5.991   9.376 -0.6566 -0.8435 -0.3061
   19SAPC   H6X 2510   4.735   6.085   9.370  1.5918 -2.1359  0.8998
   19SAPC   H6Y 2511   4.572   6.023   9.352  0.6024  3.7637  0.0021
   19SAPC   C37 2512   4.712   5.898   9.266  0.1582 -0.1750 -0.0793
   19SAPC   H7X 2513   4.641   5.813   9.258  0.8872 -0.8323  0.3899
   19SAPC   H7Y 2514   4.806   5.841   9.281  1.2840  1.7972  0.5156
   19SAPC   C38 2515   4.714   5.975   9.131 -0.1020 -0.2560 -0.3604
   19SAPC   H8X 2516   4.761   6.075   9.130 -2.7523  1.1270  3.1867
   19SAPC   H8Y 2517   4.606   6.001   9.122  0.0070  0.8311  1.2078
   19SAPC   C39 2518   4.775   5.887   9.026 -0.2929  0.4074 -0.9971
   19SAPC   H9X 2519   4.706   5.800   9.020 -0.6159  0.6733 -1.1431
   19SAPC   H9Y 2520   4.877   5.860   9.063 -0.6536  1.1712  0.6012
   19SAPC  C310 2521   4.768   5.958   8.889  0.3953 -0.7921 -0.4846
   19SAPC  H10X 2522   4.840   6.040   8.904  0.1299 -0.1870 -2.4081
   19SAPC  H10Y 2523   4.667   6.003   8.878 -0.5413 -2.4806  1.0146
   19SAPC  C311 2524   4.812   5.882   8.764 -0.5192  0.7170  0.0615
   19SAPC  H11X 2525   4.912   5.836   8.782 -1.3750 -1.6039 -0.8975
   19SAPC  H11Y 2526   4.806   5.947   8.674  0.5196  1.9318  0.8579
   19SAPC  C312 2527   4.713   5.760   8.729  0.1864  0.1352  0.1957
   19SAPC  H12X 2528   4.732   5.675   8.797  0.0795 -0.2027 -0.1938
   19SAPC  H12Y 2529   4.744   5.724   8.628  0.1058 -1.6327  0.7825
   19SAPC  C313 2530   4.566   5.795   8.733 -0.4825  0.3003 -0.6689
   19SAPC  H13X 2531   4.556   5.896   8.688  0.0535  0.1961 -1.0233
   19SAPC  H13Y 2532   4.544   5.792   8.842  1.0971 -1.2639 -0.3606
   19SAPC  C314 2533   4.484   5.700   8.650 -0.5393  0.1384 -0.2193
   19SAPC  H14X 2534   4.507   5.594   8.673  1.2768  0.6084  0.2057
   19SAPC  H14Y 2535   4.496   5.718   8.541 -2.1604  3.1473  0.0205
   19SAPC  C315 2536   4.331   5.730   8.684 -0.3516 -0.0247  0.2656
   19SAPC  H15X 2537   4.310   5.762   8.789  1.1510 -0.4008  0.6972
   19SAPC  H15Y 2538   4.282   5.631   8.692 -0.5237  0.2037  2.4087
   19SAPC  C316 2539   4.272   5.816   8.576  0.0363  0.1343 -0.9001
   19SAPC  H16X 2540   4.265   5.773   8.473 -0.1058 -0.1228 -0.7818
   19SAPC  H16Y 2541   4.333   5.905   8.552  0.5740 -0.0257 -0.1426
   19SAPC  C317 2542   4.127   5.865   8.624 -0.0697 -0.2456  0.2717
   19SAPC  H17X 2543   4.092   5.928   8.540 -0.3428 -1.1222 -0.2773
   19SAPC  H17Y 2544   4.138   5.924   8.718  1.4482 -0.3681  0.1948
   19SAPC  C318 2545   4.030   5.750   8.654 -0.0679 -0.6000  0.6311
   19SAPC  H18X 2546   4.036   5.677   8.570  0.2648 -2.4100  2.1840
   19SAPC  H18Y 2547   3.924   5.783   8.664  0.0357  0.7387 -2.2112
   19SAPC  H18Z 2548   4.046   5.695   8.749  0.2744  0.4198  1.1609
   20SAPC     N 2549   3.889   3.156  11.168  0.7139  0.1514 -0.1364
   20SAPC   C12 2550   3.952   3.024  11.128  0.4442  0.3576  0.2752
   20SAPC  H12A 2551   3.887   2.945  11.161  0.6052 -0.2738 -0.8695
   20SAPC  H12B 2552   4.049   3.011  11.176  0.2743  2.4396  1.2202
   20SAPC   C13 2553   3.856   3.141  11.319 -0.6252 -0.1986  0.4033
   20SAPC  H13A 2554   3.801   3.049  11.332  0.1611 -0.5176  1.4951
   20SAPC  H13B 2555   3.936   3.150  11.391 -1.2113 -0.0117  1.0387
   20SAPC  H13C 2556   3.798   3.226  11.352  0.4268  0.0829  1.5648
   20SAPC   C14 2557   3.970   3.279  11.150 -0.1420  0.2972  0.5634
   20SAPC  H14A 2558   4.069   3.270  11.192  0.1112 -1.2873 -0.3406
   20SAPC  H14B 2559   3.979   3.291  11.043 -2.9446  2.8814  0.5342
   20SAPC  H14C 2560   3.927   3.371  11.188  0.9882  1.9178 -1.9276
   20SAPC   C15 2561   3.762   3.180  11.102 -0.1886  1.5974  0.6014
   20SAPC  H15A 2562   3.700   3.250  11.156 -0.4445 -0.1420  2.6381
   20SAPC  H15B 2563   3.782   3.224  11.005 -1.5972  0.1618 -0.3614
   20SAPC  H15C 2564   3.702   3.092  11.086  1.3236  0.7754 -0.7272
   20SAPC   C11 2565   3.992   2.990  10.984 -0.3876 -0.2554  0.3867
   20SAPC  H11A 2566   4.065   2.906  10.984  1.0394  0.9702 -0.0098
   20SAPC  H11B 2567   4.046   3.078  10.944 -0.5143 -0.8868 -1.2134
   20SAPC     P 2568   3.802   2.820  10.923 -0.1676 -0.0716  0.1044
   20SAPC   O13 2569   3.847   2.750  11.050 -0.3895  0.2916 -0.5754
   20SAPC   O14 2570   3.659   2.857  10.907  0.2129 -0.1734  0.2144
   20SAPC   O12 2571   3.876   2.958  10.897 -0.0537  0.6865 -0.2539
   20SAPC   O11 2572   3.841   2.735  10.799  0.1291 -0.1822  0.1752
   20SAPC    C1 2573   3.974   2.716  10.755 -0.5756  0.6225 -0.2736
   20SAPC    HA 2574   4.044   2.731  10.841 -1.1261 -0.0399  0.2972
   20SAPC    HB 2575   3.988   2.607  10.735 -1.5462  0.3467  0.5068
   20SAPC    C2 2576   4.008   2.808  10.637  0.3684 -0.0928 -0.4453
   20SAPC    HS 2577   3.996   2.911  10.676  1.8537 -0.6836  1.6123
   20SAPC   O21 2578   3.911   2.794  10.529 -0.6306  0.2156 -0.7609
   20SAPC   C21 2579   3.918   2.882  10.433  0.4380 -0.9068  0.3538
   20SAPC   O22 2580   3.996   2.979  10.437 -0.4990 -0.2813  0.0087
   20SAPC   C22 2581   3.833   2.849  10.311  0.7439 -0.6116 -0.4916
   20SAPC   H2R 2582   3.856   2.746  10.275  0.8596 -0.8565  0.2606
   20SAPC   H2S 2583   3.730   2.855  10.353  1.5256 -0.5933  1.4808
   20SAPC    C3 2584   4.154   2.785  10.581  0.0432  0.3512  0.4238
   20SAPC    HX 2585   4.226   2.816  10.659 -1.9098  1.3598  1.8774
   20SAPC    HY 2586   4.170   2.854  10.495 -2.2933  1.2039  0.6289
   20SAPC   O31 2587   4.187   2.651  10.553 -0.6751  0.2135 -0.0463
   20SAPC   C31 2588   4.179   2.618  10.421  0.2347  0.2695 -0.7018
   20SAPC   O32 2589   4.119   2.682  10.339  0.5397  0.1474  0.1971
   20SAPC   C32 2590   4.242   2.479  10.398  0.3044  0.2167  0.1816
   20SAPC   H2X 2591   4.178   2.426  10.472  2.6069  0.6981  2.5687
   20SAPC   H2Y 2592   4.341   2.477  10.448 -0.9528  2.3437  2.8961
   20SAPC   C23 2593   3.835   2.958  10.203  0.2585 -1.2441  0.5157
   20SAPC   H3R 2594   3.817   3.060  10.245  2.1639 -0.5356 -0.3590
   20SAPC   H3S 2595   3.750   2.935  10.134 -0.4969 -0.4583  1.1689
   20SAPC   C24 2596   3.954   2.956  10.112 -0.4323  0.2886 -0.2517
   20SAPC   H4R 2597   4.037   3.004  10.167  0.8242  1.1727 -2.8013
   20SAPC   H4S 2598   3.931   3.025  10.028  4.0453  2.2130 -0.0292
   20SAPC   C25 2599   4.007   2.817  10.077  0.6212  1.0951 -0.0474
   20SAPC   H5R 2600   4.078   2.782  10.153 -0.2861  0.1589  0.3762
   20SAPC   C26 2601   3.988   2.744   9.968  0.8996 -0.5190 -0.5715
   20SAPC   H6R 2602   4.038   2.646   9.964 -1.9232 -2.0658  0.2940
   20SAPC   C27 2603   3.886   2.776   9.859 -0.6540 -0.2088  0.4601
   20SAPC   H7R 2604   3.801   2.823   9.912  0.8342  2.6069  0.4060
   20SAPC   H7S 2605   3.862   2.675   9.818 -2.9276 -0.0388  1.3050
   20SAPC   C28 2606   3.928   2.870   9.752 -0.6305  0.1185  0.6688
   20SAPC   H8R 2607   4.008   2.940   9.779 -0.7324  0.9216 -1.0345
   20SAPC   C29 2608   3.859   2.881   9.636  0.2231  0.0055  0.2756
   20SAPC   H9R 2609   3.885   2.956   9.559 -1.6353 -1.1997 -1.5770
   20SAPC  C210 2610   3.750   2.788   9.598 -0.1067 -0.3842  0.1250
   20SAPC  H10R 2611   3.734   2.708   9.673 -0.2326  0.7978  1.3721
   20SAPC  H10S 2612   3.791   2.735   9.510  0.1733 -0.4034  0.2701
   20SAPC  C211 2613   3.621   2.855   9.555  0.6261 -0.1981  0.0146
   20SAPC  H11R 2614   3.577   2.914   9.637 -0.5352 -0.6114 -0.2924
   20SAPC  C212 2615   3.549   2.844   9.441 -0.1934  0.4541 -0.5475
   20SAPC  H12R 2616   3.452   2.897   9.443  0.3996  1.6081 -1.3659
   20SAPC  C213 2617   3.570   2.764   9.312  0.4967  0.3930  0.1080
   20SAPC  H13R 2618   3.532   2.659   9.316 -0.6926  0.8455  0.8423
   20SAPC  H13S 2619   3.680   2.745   9.304  0.0334 -1.5744 -1.9407
   20SAPC  C214 2620   3.511   2.829   9.190 -0.4066  0.3081 -0.3863
   20SAPC  H14R 2621   3.426   2.895   9.214 -0.2160  0.0736  0.9327
   20SAPC  C215 2622   3.562   2.832   9.064  0.2842 -0.7133 -0.6329
   20SAPC  H15R 2623   3.515   2.888   8.982  2.3688  1.3874 -0.4451
   20SAPC  C216 2624   3.693   2.766   9.019 -0.0880 -0.1100  0.4304
   20SAPC  H16R 2625   3.740   2.716   9.106  0.5255 -0.0823  0.1198
   20SAPC  H16S 2626   3.752   2.852   8.982 -0.6464 -0.3682 -1.1106
   20SAPC  C217 2627   3.676   2.674   8.899  0.0064  0.9530  0.4882
   20SAPC  H17R 2628   3.764   2.607   8.902  1.4854  2.6971 -2.1198
   20SAPC  H17S 2629   3.662   2.730   8.804 -1.7658 -1.9724 -1.0428
   20SAPC  C218 2630   3.553   2.590   8.918 -0.2348 -0.2984  1.1574
   20SAPC  H18R 2631   3.466   2.656   8.933 -0.5846 -0.6114  0.5297
   20SAPC  H18S 2632   3.553   2.515   9.000 -0.6528 -0.6481  0.8434
   20SAPC  C219 2633   3.513   2.529   8.781 -0.3295  0.1964 -0.0942
   20SAPC  H19R 2634   3.504   2.598   8.695  1.4555 -2.6086 -2.6305
   20SAPC  H19S 2635   3.408   2.500   8.800  0.1811  0.6626  3.8349
   20SAPC  C220 2636   3.600   2.414   8.743 -0.1699 -0.4814  0.5737
   20SAPC  H20R 2637   3.560   2.363   8.652 -0.2684 -0.0051  0.3447
   20SAPC  H20S 2638   3.605   2.337   8.823 -2.0365  0.3744  1.5473
   20SAPC  H20T 2639   3.702   2.442   8.709 -1.2230  0.6909 -1.7904
   20SAPC   C33 2640   4.239   2.401  10.260  0.2777  0.1311 -0.7381
   20SAPC   H3X 2641   4.156   2.436  10.195 -0.6741  3.4346  2.0933
   20SAPC   H3Y 2642   4.230   2.294  10.291 -2.4067  0.7969  0.9431
   20SAPC   C34 2643   4.359   2.424  10.178  0.3571  0.0456  0.2632
   20SAPC   H4X 2644   4.350   2.373  10.080 -0.9763 -0.1274  0.4753
   20SAPC   H4Y 2645   4.449   2.376  10.223 -0.2231 -2.8090 -1.5543
   20SAPC   C35 2646   4.382   2.572  10.149  0.3445  0.4705 -0.1997
   20SAPC   H5X 2647   4.405   2.628  10.242  1.0354  0.5947 -0.4444
   20SAPC   H5Y 2648   4.296   2.622  10.099  0.0810  0.6105  0.3959
   20SAPC   C36 2649   4.515   2.586  10.065 -0.2203 -0.3072 -0.7043
   20SAPC   H6X 2650   4.594   2.518  10.102 -2.1738 -1.7714  0.8647
   20SAPC   H6Y 2651   4.561   2.687  10.074 -1.0868 -0.0460  0.8711
   20SAPC   C37 2652   4.502   2.567   9.915  0.4556 -0.0264 -1.2121
   20SAPC   H7X 2653   4.434   2.647   9.878  1.3521  0.9035 -0.8775
   20SAPC   H7Y 2654   4.453   2.469   9.897 -0.8723  0.3075  0.5377
   20SAPC   C38 2655   4.638   2.566   9.835 -0.6888  0.0678 -0.2864
   20SAPC   H8X 2656   4.700   2.476   9.851  0.8010  0.8631 -1.4972
   20SAPC   H8Y 2657   4.703   2.647   9.876 -0.0173  0.0499 -1.3187
   20SAPC   C39 2658   4.610   2.581   9.684 -0.3106  0.0452  0.3443
   20SAPC   H9X 2659   4.591   2.690   9.677  0.5205  0.4072  3.1526
   20SAPC   H9Y 2660   4.519   2.524   9.652 -2.9496  3.6938  1.0151
   20SAPC  C310 2661   4.733   2.546   9.600 -0.0896  0.2967  0.1169
   20SAPC  H10X 2662   4.752   2.438   9.620 -0.4614  0.2242  0.0906
   20SAPC  H10Y 2663   4.822   2.605   9.631 -0.5879  0.6735  0.8387
   20SAPC  C311 2664   4.711   2.563   9.458  0.3018 -0.5454 -0.4746
   20SAPC  H11X 2665   4.727   2.667   9.420 -0.3840 -0.5662 -0.8281
   20SAPC  H11Y 2666   4.612   2.524   9.426 -0.0967 -0.1783  0.3149
   20SAPC  C312 2667   4.821   2.485   9.380  0.1101 -0.1730 -0.0237
   20SAPC  H12X 2668   4.802   2.376   9.394  2.2484 -1.1416 -3.7465
   20SAPC  H12Y 2669   4.923   2.507   9.420  0.7468 -1.0349 -1.1254
   20SAPC  C313 2670   4.828   2.508   9.231  0.0003 -0.1105  0.5082
   20SAPC  H13X 2671   4.849   2.615   9.210 -1.4341  0.0078 -0.4082
   20SAPC  H13Y 2672   4.730   2.488   9.183  0.7880 -1.3901 -0.6106
   20SAPC  C314 2673   4.921   2.409   9.162 -0.0557  0.4898  0.7826
   20SAPC  H14X 2674   4.904   2.311   9.210  0.7313 -0.8266 -1.5782
   20SAPC  H14Y 2675   5.026   2.436   9.186  0.6872 -0.1874 -1.5899
   20SAPC  C315 2676   4.892   2.421   9.012 -0.4137 -0.0945 -0.3928
   20SAPC  H15X 2677   4.870   2.528   8.992  0.8816  0.1324 -0.7090
   20SAPC  H15Y 2678   4.795   2.378   8.981 -0.4510 -0.5449  0.3331
   20SAPC  C316 2679   5.003   2.362   8.918  0.4933  0.3778 -0.4287
   20SAPC  H16X 2680   4.993   2.253   8.935  1.2024  0.6806  1.9908
   20SAPC  H16Y 2681   5.103   2.389   8.958  0.5345  1.6907 -1.3639
   20SAPC  C317 2682   4.976   2.394   8.775  0.5155 -0.4235  0.2403
   20SAPC  H17X 2683   4.990   2.502   8.754 -1.6697 -0.2067 -0.1969
   20SAPC  H17Y 2684   4.871   2.360   8.762  0.5863 -0.7706  0.5598
   20SAPC  C318 2685   5.059   2.304   8.690  0.3005  0.5088  0.3840
   20SAPC  H18X 2686   5.020   2.200   8.688 -1.1003  1.0497 -1.1595
   20SAPC  H18Y 2687   5.167   2.320   8.712  0.4868  0.9800 -0.8694
   20SAPC  H18Z 2688   5.052   2.331   8.583  3.7776 -0.0793 -0.0540
   21SAPC     N 2689   3.875   2.153  11.269  0.7141  0.8523 -0.3348
   21SAPC   C12 2690   4.010   2.197  11.217 -0.0360  0.6943 -0.9238
   21SAPC  H12A 2691   4.091   2.173  11.285 -0.4589 -0.6777 -0.9016
   21SAPC  H12B 2692   4.016   2.305  11.226  0.7109  0.6043 -0.2749
   21SAPC   C13 2693   3.853   2.203  11.410  0.5748  0.0496 -0.3947
   21SAPC  H13A 2694   3.921   2.166  11.485 -0.4443 -0.1870  0.4199
   21SAPC  H13B 2695   3.852   2.310  11.401  0.0270  0.0850  0.0781
   21SAPC  H13C 2696   3.754   2.181  11.446  0.1382  2.1066 -0.2816
   21SAPC   C14 2697   3.761   2.197  11.175  0.0090  0.2092  0.0531
   21SAPC  H14A 2698   3.737   2.301  11.191  0.9241  0.6329 -1.2925
   21SAPC  H14B 2699   3.794   2.183  11.073  0.0805  0.7733 -0.0037
   21SAPC  H14C 2700   3.670   2.139  11.187  1.5945 -2.1447  1.0370
   21SAPC   C15 2701   3.868   2.002  11.269 -0.3414 -0.7379 -0.4390
   21SAPC  H15A 2702   3.783   1.964  11.325 -0.0932  0.1973  0.5869
   21SAPC  H15B 2703   3.861   1.982  11.163 -0.5241  0.9294 -0.7542
   21SAPC  H15C 2704   3.955   1.956  11.314 -0.1256 -1.3055 -1.4371
   21SAPC   C11 2705   4.043   2.158  11.071 -0.6030  0.2140  0.1205
   21SAPC  H11A 2706   3.999   2.066  11.028 -2.9937  0.0020  2.8812
   21SAPC  H11B 2707   4.154   2.149  11.066 -0.6198  0.5295 -0.9057
   21SAPC     P 2708   4.065   2.302  10.850  0.0347  0.1506  0.7864
   21SAPC   O13 2709   3.963   2.260  10.752  0.0851 -0.5269 -0.8275
   21SAPC   O14 2710   4.117   2.438  10.841 -0.4669  0.2464 -0.5296
   21SAPC   O12 2711   4.004   2.269  10.991 -0.3595  0.6953 -0.2332
   21SAPC   O11 2712   4.185   2.198  10.834 -0.2185  0.6508 -0.8747
   21SAPC    C1 2713   4.274   2.188  10.720 -0.8898  0.1329  0.2829
   21SAPC    HA 2714   4.325   2.280  10.684 -0.4264 -0.1845  0.1285
   21SAPC    HB 2715   4.366   2.137  10.754  0.9592  2.4320 -1.1225
   21SAPC    C2 2716   4.223   2.116  10.591 -0.2415  0.3761 -0.6400
   21SAPC    HS 2717   4.172   2.197  10.535  0.4172  0.2709 -1.4098
   21SAPC   O21 2718   4.146   2.007  10.644 -0.4968  0.1016 -0.4104
   21SAPC   C21 2719   4.041   1.983  10.560  0.2364  0.4426 -0.3834
   21SAPC   O22 2720   4.018   2.043  10.458  0.1721  0.2505  0.1941
   21SAPC   C22 2721   3.968   1.861  10.629 -0.1385  0.1669  0.1587
   21SAPC   H2R 2722   4.035   1.772  10.629  0.5214  0.5854 -3.3710
   21SAPC   H2S 2723   3.954   1.878  10.738 -0.9526 -1.2962  0.2918
   21SAPC    C3 2724   4.344   2.058  10.506 -0.1180 -0.8032 -1.0335
   21SAPC    HX 2725   4.393   1.980  10.567 -1.8507 -3.4106 -2.8898
   21SAPC    HY 2726   4.415   2.144  10.504 -1.6483  0.5263  0.4557
   21SAPC   O31 2727   4.320   2.020  10.368  0.5171 -0.4085 -0.5425
   21SAPC   C31 2728   4.282   1.894  10.361 -0.1058 -0.4317 -0.2085
   21SAPC   O32 2729   4.277   1.817  10.456 -0.0017  0.3659  0.5985
   21SAPC   C32 2730   4.221   1.857  10.225  0.8754 -0.5262 -0.2593
   21SAPC   H2X 2731   4.246   1.945  10.162  1.0425 -1.4138 -1.4557
   21SAPC   H2Y 2732   4.112   1.856  10.246  0.6548 -2.4173 -1.4138
   21SAPC   C23 2733   3.834   1.839  10.573 -0.0948  0.0877  0.1481
   21SAPC   H3R 2734   3.811   1.912  10.493 -0.4533 -0.8957 -0.6636
   21SAPC   H3S 2735   3.760   1.864  10.652  1.3751 -1.2895  1.9907
   21SAPC   C24 2736   3.803   1.697  10.517 -0.0840 -0.0912 -0.1182
   21SAPC   H4R 2737   3.698   1.708  10.482 -0.8708 -2.0077  1.5732
   21SAPC   H4S 2738   3.805   1.615  10.591 -0.2794 -1.8503 -2.0286
   21SAPC   C25 2739   3.891   1.667  10.397 -0.2111 -1.4253 -0.1210
   21SAPC   H5R 2740   3.996   1.656  10.427  1.0217 -0.0432 -3.5803
   21SAPC   C26 2741   3.860   1.655  10.256  0.2970 -0.4947 -0.0229
   21SAPC   H6R 2742   3.943   1.627  10.189 -0.3371 -3.1344  0.2362
   21SAPC   C27 2743   3.724   1.674  10.198  0.1812  0.3391  0.7051
   21SAPC   H7R 2744   3.730   1.745  10.113 -3.7823  0.8192  0.7151
   21SAPC   H7S 2745   3.660   1.736  10.266  0.8744  1.7750  0.0819
   21SAPC   C28 2746   3.656   1.543  10.162 -1.0267 -0.0296 -0.3204
   21SAPC   H8R 2747   3.659   1.456  10.229  1.3604 -1.5796 -2.3161
   21SAPC   C29 2748   3.602   1.517  10.045  0.2493  1.2958 -0.0792
   21SAPC   H9R 2749   3.558   1.419  10.021  3.0139 -0.3076  1.1028
   21SAPC  C210 2750   3.605   1.607   9.922 -0.0113  0.5319 -0.4123
   21SAPC  H10R 2751   3.566   1.702   9.963  0.0841  0.6215 -0.5281
   21SAPC  H10S 2752   3.520   1.578   9.857  1.3524 -0.5081 -1.7574
   21SAPC  C211 2753   3.733   1.622   9.850 -0.3602 -0.2265 -0.3398
   21SAPC  H11R 2754   3.819   1.631   9.918  0.2889  0.0909 -1.1963
   21SAPC  C212 2755   3.749   1.651   9.712 -0.6040  0.6535 -0.0766
   21SAPC  H12R 2756   3.850   1.647   9.669 -1.0358  2.6186 -1.3498
   21SAPC  C213 2757   3.641   1.655   9.606  0.1599  0.5431  0.4320
   21SAPC  H13R 2758   3.687   1.693   9.512  0.7395  0.5875  0.7355
   21SAPC  H13S 2759   3.572   1.734   9.642  0.5147  1.5224 -0.9820
   21SAPC  C214 2760   3.563   1.531   9.577 -0.1727 -0.3820  0.6718
   21SAPC  H14R 2761   3.575   1.445   9.645  2.6307  0.8115  1.7421
   21SAPC  C215 2762   3.472   1.526   9.479 -0.1098  0.0056  0.2402
   21SAPC  H15R 2763   3.421   1.435   9.442  0.2584  0.3452 -1.1346
   21SAPC  C216 2764   3.452   1.644   9.386 -0.0566 -0.4944  0.0066
   21SAPC  H16R 2765   3.498   1.740   9.418  1.1839 -1.6478  1.7857
   21SAPC  H16S 2766   3.342   1.654   9.375 -0.2579 -2.0003  0.4424
   21SAPC  C217 2767   3.526   1.620   9.250  0.3856 -0.1318  0.0607
   21SAPC  H17R 2768   3.637   1.620   9.257  0.4784 -1.5500 -1.2602
   21SAPC  H17S 2769   3.497   1.711   9.192  1.0772 -0.5950 -1.0239
   21SAPC  C218 2770   3.490   1.495   9.170  0.6416  0.2319 -0.1771
   21SAPC  H18R 2771   3.501   1.400   9.227 -1.1238  2.1326  3.5428
   21SAPC  H18S 2772   3.560   1.492   9.084 -0.0575 -1.6301 -0.6813
   21SAPC  C219 2773   3.351   1.508   9.111 -0.5967 -0.8414 -0.5926
   21SAPC  H19R 2774   3.337   1.605   9.058  1.6107  1.4332  2.7680
   21SAPC  H19S 2775   3.270   1.494   9.187  0.2346 -1.4296  0.1961
   21SAPC  C220 2776   3.316   1.394   9.017 -0.5444  0.0222 -0.2582
   21SAPC  H20R 2777   3.278   1.304   9.070 -2.5179  0.0429 -1.6242
   21SAPC  H20S 2778   3.404   1.372   8.953  0.3169  1.7047  0.3191
   21SAPC  H20T 2779   3.229   1.432   8.960 -0.8874  2.7465  1.9284
   21SAPC   C33 2780   4.258   1.709  10.172  0.5626 -0.2595 -0.0891
   21SAPC   H3X 2781   4.209   1.642  10.247 -0.9735  2.1985  1.1736
   21SAPC   H3Y 2782   4.367   1.694  10.183 -0.0212 -3.6570  1.7010
   21SAPC   C34 2783   4.204   1.680  10.033 -0.0387  0.6512 -0.2667
   21SAPC   H4X 2784   4.096   1.709  10.033 -0.1035  0.4217 -0.7010
   21SAPC   H4Y 2785   4.207   1.572  10.006 -2.1276 -0.0310  2.0665
   21SAPC   C35 2786   4.277   1.764   9.925  0.0764  0.1202  0.0285
   21SAPC   H5X 2787   4.380   1.790   9.956  0.4371 -2.6401  1.3060
   21SAPC   H5Y 2788   4.223   1.860   9.910  0.1825  0.0942 -0.5403
   21SAPC   C36 2789   4.272   1.694   9.789  0.1721 -0.2339  0.3834
   21SAPC   H6X 2790   4.170   1.655   9.771 -0.6060  1.6589  0.5918
   21SAPC   H6Y 2791   4.341   1.607   9.799 -1.5846 -1.4037  2.8854
   21SAPC   C37 2792   4.298   1.791   9.675 -0.3610 -0.6905 -1.1582
   21SAPC   H7X 2793   4.408   1.795   9.658 -0.4078 -2.0343 -1.8557
   21SAPC   H7Y 2794   4.263   1.893   9.701 -1.6074 -0.8441 -2.1637
   21SAPC   C38 2795   4.240   1.745   9.539 -0.7008  0.1050 -0.2479
   21SAPC   H8X 2796   4.249   1.635   9.533 -1.7562 -0.1215  1.7260
   21SAPC   H8Y 2797   4.306   1.781   9.457 -0.7240 -0.9207 -0.7171
   21SAPC   C39 2798   4.111   1.814   9.519  1.1060  0.4889  0.2949
   21SAPC   H9X 2799   4.128   1.924   9.527  1.8558  0.3441  0.8050
   21SAPC   H9Y 2800   4.044   1.793   9.606  0.6431  0.3621 -0.0884
   21SAPC  C310 2801   4.053   1.772   9.387  0.4331  0.4677 -0.0992
   21SAPC  H10X 2802   4.018   1.667   9.377  0.3197  0.3826  1.1411
   21SAPC  H10Y 2803   4.121   1.797   9.303  0.6289  0.6078  0.0986
   21SAPC  C311 2804   3.928   1.866   9.362 -0.3103 -0.5513 -0.9146
   21SAPC  H11X 2805   3.946   1.971   9.393  0.1559 -1.0670  0.6292
   21SAPC  H11Y 2806   3.841   1.837   9.426  0.6750 -2.8933 -0.5713
   21SAPC  C312 2807   3.866   1.854   9.227  0.3094 -0.5155  0.0555
   21SAPC  H12X 2808   3.779   1.922   9.217  1.8400  1.4344 -0.3668
   21SAPC  H12Y 2809   3.821   1.756   9.201 -1.1898  0.4260 -0.9551
   21SAPC  C313 2810   3.951   1.918   9.117 -0.3063 -0.3126  0.2429
   21SAPC  H13X 2811   4.051   1.872   9.100  0.0738  0.7374 -0.4027
   21SAPC  H13Y 2812   3.962   2.028   9.128 -0.1259 -0.0677 -2.0821
   21SAPC  C314 2813   3.869   1.898   8.991  0.5542 -0.7877  0.0424
   21SAPC  H14X 2814   3.784   1.967   9.009  1.1901 -0.3464  1.4022
   21SAPC  H14Y 2815   3.829   1.795   8.982 -0.9591 -0.1004 -1.5698
   21SAPC  C315 2816   3.941   1.951   8.867 -0.0981  0.0093  0.0294
   21SAPC  H15X 2817   3.992   1.869   8.812  0.1195 -1.8047  2.7991
   21SAPC  H15Y 2818   4.012   2.028   8.904  0.1054  1.0609 -2.5015
   21SAPC  C316 2819   3.840   2.018   8.775  0.0488 -0.4747 -0.8533
   21SAPC  H16X 2820   3.785   2.106   8.815 -0.3011 -1.7726  1.6151
   21SAPC  H16Y 2821   3.767   1.943   8.737 -0.3664  0.2245 -1.4461
   21SAPC  C317 2822   3.917   2.083   8.659  0.2458  0.2081  1.1959
   21SAPC  H17X 2823   3.990   2.010   8.618 -0.4691 -0.0888  0.4450
   21SAPC  H17Y 2824   3.986   2.160   8.700  1.0255  0.2596 -0.1617
   21SAPC  C318 2825   3.841   2.135   8.531  0.3687 -0.4280 -0.2662
   21SAPC  H18X 2826   3.909   2.173   8.451  0.5535 -1.3147 -0.5340
   21SAPC  H18Y 2827   3.774   2.218   8.560 -0.0654 -0.6273 -0.6779
   21SAPC  H18Z 2828   3.777   2.055   8.488  0.7274 -0.8048 -0.1079
   22SAPC     N 2829   3.248   5.728  10.934  0.1196  0.0855  0.1493
   22SAPC   C12 2830   3.301   5.789  10.801 -0.6084 -0.3256  0.4192
   22SAPC  H12A 2831   3.315   5.719  10.720  0.1292  1.4564 -1.0268
   22SAPC  H12B 2832   3.403   5.816  10.828 -0.5318  1.6888 -1.7187
   22SAPC   C13 2833   3.102   5.684  10.917 -0.2709  0.5543 -0.4940
   22SAPC  H13A 2834   3.097   5.591  10.862  0.9066 -0.0753  0.4177
   22SAPC  H13B 2835   3.065   5.667  11.017 -0.0588  0.6500 -0.3991
   22SAPC  H13C 2836   3.045   5.762  10.869  1.4376  1.5134 -1.0083
   22SAPC   C14 2837   3.338   5.609  10.956 -0.5801 -0.0328 -0.4598
   22SAPC  H14A 2838   3.441   5.639  10.969 -0.9560  0.2846  2.0408
   22SAPC  H14B 2839   3.317   5.547  11.042 -0.9228  0.8843  0.1253
   22SAPC  H14C 2840   3.331   5.543  10.871  0.8873 -1.2948  0.3584
   22SAPC   C15 2841   3.243   5.820  11.052  0.2980 -0.1006  0.6744
   22SAPC  H15A 2842   3.307   5.907  11.044 -2.1729  1.9055  2.0633
   22SAPC  H15B 2843   3.146   5.860  11.076  0.2568  0.5078 -0.4552
   22SAPC  H15C 2844   3.272   5.770  11.143  1.5135 -0.4522  0.1069
   22SAPC   C11 2845   3.229   5.907  10.743 -0.2659 -0.1364  0.5524
   22SAPC  H11A 2846   3.119   5.893  10.733 -0.3705  0.5183  0.7623
   22SAPC  H11B 2847   3.253   5.923  10.636 -0.6418 -0.7645  0.3679
   22SAPC     P 2848   3.393   6.096  10.819  0.0299  0.6841  0.4069
   22SAPC   O13 2849   3.390   6.226  10.889  0.7083  0.2122 -0.1787
   22SAPC   O14 2850   3.500   6.003  10.859  0.0676  0.3841 -0.6419
   22SAPC   O12 2851   3.256   6.020  10.825  0.2672  0.0007 -0.0814
   22SAPC   O11 2852   3.409   6.132  10.664  0.0206 -0.1599 -0.6159
   22SAPC    C1 2853   3.311   6.218  10.597 -0.1793 -0.2240  0.8050
   22SAPC    HA 2854   3.221   6.156  10.579 -0.0628  0.0299 -0.7768
   22SAPC    HB 2855   3.279   6.303  10.660  0.9210  1.1754 -0.4734
   22SAPC    C2 2856   3.368   6.290  10.468  0.3975  0.0367  0.4619
   22SAPC    HS 2857   3.312   6.387  10.465 -0.2057 -0.3496 -2.1779
   22SAPC   O21 2858   3.348   6.217  10.342  0.1293  0.0638 -1.2818
   22SAPC   C21 2859   3.225   6.228  10.303 -0.0419 -0.1191  0.4704
   22SAPC   O22 2860   3.133   6.282  10.361  0.1577 -0.5753  0.0734
   22SAPC   C22 2861   3.227   6.160  10.170 -0.1395  0.4506  0.2074
   22SAPC   H2R 2862   3.247   6.050  10.174  2.1543  0.6985 -2.7459
   22SAPC   H2S 2863   3.127   6.181  10.126 -0.4065 -0.1283  0.5272
   22SAPC    C3 2864   3.513   6.338  10.480 -0.0896  0.2062 -0.3822
   22SAPC    HX 2865   3.584   6.254  10.499  0.1278  0.9167  2.2016
   22SAPC    HY 2866   3.524   6.401  10.572 -2.9759 -0.8235  0.7277
   22SAPC   O31 2867   3.554   6.422  10.364  0.1922  0.2433  0.1476
   22SAPC   C31 2868   3.625   6.353  10.267 -0.0703 -0.5618 -0.1564
   22SAPC   O32 2869   3.671   6.241  10.282 -0.2430 -0.0317 -0.2881
   22SAPC   C32 2870   3.637   6.428  10.135  0.2641 -0.4134 -0.5984
   22SAPC   H2X 2871   3.694   6.522  10.152  1.9124 -1.5226  0.2574
   22SAPC   H2Y 2872   3.536   6.464  10.107  0.1843  1.5540  2.0003
   22SAPC   C23 2873   3.343   6.213  10.080 -0.3228  0.0375 -0.2852
   22SAPC   H3R 2874   3.436   6.212  10.140  0.7121  0.2825 -1.8483
   22SAPC   H3S 2875   3.318   6.317  10.050  1.2911  0.3036 -0.7401
   22SAPC   C24 2876   3.365   6.126   9.953 -0.2365  1.0636 -0.2299
   22SAPC   H4R 2877   3.378   6.019   9.983 -0.9388  0.6251 -1.4313
   22SAPC   H4S 2878   3.455   6.165   9.902 -0.4902  1.2774 -0.5186
   22SAPC   C25 2879   3.252   6.129   9.852  0.0001 -0.3339  0.3277
   22SAPC   H5R 2880   3.153   6.136   9.899 -1.0532 -0.7967 -1.7790
   22SAPC   C26 2881   3.251   6.109   9.719  0.3965 -0.1273  0.6699
   22SAPC   H6R 2882   3.160   6.148   9.670 -0.7816 -2.7151  0.7258
   22SAPC   C27 2883   3.376   6.085   9.632  0.1257  0.4168  0.9261
   22SAPC   H7R 2884   3.384   5.977   9.608  0.8371  0.7675 -0.4472
   22SAPC   H7S 2885   3.462   6.112   9.697 -0.6783  2.8692  1.0287
   22SAPC   C28 2886   3.380   6.181   9.513 -0.5385  0.6623 -0.3943
   22SAPC   H8R 2887   3.368   6.289   9.531 -0.2996  0.7410 -0.7054
   22SAPC   C29 2888   3.430   6.162   9.390  0.9688  0.5062 -0.6090
   22SAPC   H9R 2889   3.426   6.242   9.315 -0.0763  1.1935  0.1620
   22SAPC  C210 2890   3.482   6.027   9.343 -0.3838 -0.2782 -0.1902
   22SAPC  H10R 2891   3.407   6.003   9.266  0.1387  0.7462 -1.0393
   22SAPC  H10S 2892   3.478   5.948   9.421  3.6158 -0.6648 -0.2402
   22SAPC  C211 2893   3.625   6.039   9.306  0.2772 -0.3636 -0.0505
   22SAPC  H11R 2894   3.692   6.087   9.379 -0.5072  2.8634 -1.3782
   22SAPC  C212 2895   3.682   5.991   9.198  0.2972  0.0906 -0.0553
   22SAPC  H12R 2896   3.792   5.996   9.188  0.3968 -1.8432 -0.1225
   22SAPC  C213 2897   3.616   5.913   9.082  0.7788 -0.4125 -0.2393
   22SAPC  H13R 2898   3.589   5.981   8.999 -0.2222 -0.9548 -0.3594
   22SAPC  H13S 2899   3.518   5.873   9.114  1.3870 -1.1282  0.7485
   22SAPC  C214 2900   3.708   5.794   9.036  1.0258  0.1825 -0.5357
   22SAPC  H14R 2901   3.803   5.833   8.995  1.9049  0.5622  1.8092
   22SAPC  C215 2902   3.672   5.670   9.012 -0.2869 -0.0944  0.2959
   22SAPC  H15R 2903   3.753   5.606   8.974 -0.6495 -0.8760  0.8350
   22SAPC  C216 2904   3.539   5.609   9.030 -0.5408 -0.5637  0.1793
   22SAPC  H16R 2905   3.470   5.675   9.087  0.8176 -0.9086  2.2572
   22SAPC  H16S 2906   3.553   5.522   9.097 -0.0862  1.3988  2.6921
   22SAPC  C217 2907   3.482   5.559   8.898  0.0420 -0.0214 -0.8464
   22SAPC  H17R 2908   3.541   5.472   8.862  0.8078  0.2652 -0.3039
   22SAPC  H17S 2909   3.484   5.640   8.821 -0.3341  0.8741  0.0744
   22SAPC  C218 2910   3.337   5.503   8.915 -0.0370 -0.3115  0.3500
   22SAPC  H18R 2911   3.271   5.585   8.949  0.3802  0.5456 -0.8484
   22SAPC  H18S 2912   3.351   5.411   8.975  3.4612  1.4672  2.3794
   22SAPC  C219 2913   3.267   5.472   8.777 -0.3734 -0.4594  0.6105
   22SAPC  H19R 2914   3.322   5.384   8.738  2.1426  0.0800  2.7685
   22SAPC  H19S 2915   3.278   5.559   8.709 -1.1771 -2.2372 -1.8719
   22SAPC  C220 2916   3.120   5.426   8.784  0.0156 -0.0607  0.3239
   22SAPC  H20R 2917   3.095   5.376   8.688  1.2930  2.1059 -1.1581
   22SAPC  H20S 2918   3.050   5.509   8.809  0.5954  0.0550  1.5668
   22SAPC  H20T 2919   3.110   5.348   8.863  0.4857  1.8160  2.2797
   22SAPC   C33 2920   3.718   6.342  10.027  0.5244  0.9196 -0.7341
   22SAPC   H3X 2921   3.659   6.250  10.007 -0.0346  0.8691  1.0848
   22SAPC   H3Y 2922   3.817   6.322  10.074  0.0151  1.7233  0.7125
   22SAPC   C34 2923   3.729   6.426   9.897 -0.7128  0.7209  0.1322
   22SAPC   H4X 2924   3.779   6.521   9.925 -2.8289  1.9248 -0.0940
   22SAPC   H4Y 2925   3.631   6.455   9.855 -0.5698  0.3008 -0.4923
   22SAPC   C35 2926   3.821   6.340   9.803  0.0452 -0.0233 -0.3666
   22SAPC   H5X 2927   3.757   6.256   9.770  0.5488 -0.5714  0.0618
   22SAPC   H5Y 2928   3.910   6.301   9.856  0.3376  3.9082  2.3004
   22SAPC   C36 2929   3.868   6.417   9.674  0.5088  1.1413  0.3046
   22SAPC   H6X 2930   3.971   6.387   9.645  0.1064 -1.5893  1.5624
   22SAPC   H6Y 2931   3.881   6.525   9.698  1.7471  1.5981 -2.1837
   22SAPC   C37 2932   3.762   6.407   9.558  0.0391 -0.3037  0.0448
   22SAPC   H7X 2933   3.688   6.487   9.576  0.9234  1.2060 -2.5851
   22SAPC   H7Y 2934   3.715   6.307   9.570 -0.0985 -0.3352 -0.6993
   22SAPC   C38 2935   3.837   6.420   9.424  0.1380  0.2638 -0.1814
   22SAPC   H8X 2936   3.764   6.409   9.341  0.3394 -2.8189  0.0042
   22SAPC   H8Y 2937   3.916   6.342   9.421 -0.3104 -0.1998  0.0408
   22SAPC   C39 2938   3.904   6.556   9.408  0.2267  0.4804  0.0700
   22SAPC   H9X 2939   3.945   6.590   9.506 -1.4790 -0.2178  1.0409
   22SAPC   H9Y 2940   3.829   6.637   9.394  1.1751  1.1335 -1.4349
   22SAPC  C310 2941   3.988   6.548   9.285  0.4039 -0.1412  0.6861
   22SAPC  H10X 2942   3.923   6.522   9.199  1.0264  0.6746 -0.0385
   22SAPC  H10Y 2943   4.065   6.468   9.289 -0.8993 -1.4844 -0.4556
   22SAPC  C311 2944   4.053   6.685   9.256 -0.1107  0.4475  0.4086
   22SAPC  H11X 2945   4.107   6.702   9.351 -2.1311 -0.5809  1.7896
   22SAPC  H11Y 2946   3.982   6.770   9.264 -1.5758 -0.7429  0.3366
   22SAPC  C312 2947   4.145   6.696   9.133  0.7406 -0.0371 -0.0697
   22SAPC  H12X 2948   4.178   6.591   9.117  1.9186 -0.0382  2.1427
   22SAPC  H12Y 2949   4.234   6.763   9.134  0.6816  0.0317  0.4511
   22SAPC  C313 2950   4.062   6.758   9.020 -0.6639  0.3421  0.0698
   22SAPC  H13X 2951   4.056   6.866   9.046  1.5483 -0.1797  3.0222
   22SAPC  H13Y 2952   3.958   6.722   9.030 -0.2956 -0.4789  1.1323
   22SAPC  C314 2953   4.127   6.743   8.878 -0.6877 -0.1541 -0.2510
   22SAPC  H14X 2954   4.161   6.639   8.860  1.8334  0.8563 -1.5667
   22SAPC  H14Y 2955   4.214   6.812   8.881 -1.3653  0.7266 -0.5073
   22SAPC  C315 2956   4.031   6.790   8.766 -0.0203 -0.4503  0.5117
   22SAPC  H15X 2957   3.999   6.894   8.791  0.7709 -0.9043  3.5366
   22SAPC  H15Y 2958   3.940   6.727   8.762 -0.8580  0.6377  1.9100
   22SAPC  C316 2959   4.083   6.781   8.623 -0.3638  0.6906 -0.5590
   22SAPC  H16X 2960   3.995   6.773   8.556  0.1847 -0.8382 -1.1207
   22SAPC  H16Y 2961   4.147   6.694   8.596  0.4436 -0.0166  3.3404
   22SAPC  C317 2962   4.167   6.910   8.589  0.7020 -0.9109 -0.0438
   22SAPC  H17X 2963   4.257   6.907   8.654  0.6390 -0.7121  0.0516
   22SAPC  H17Y 2964   4.112   7.000   8.624  1.5644  0.4919 -2.1957
   22SAPC  C318 2965   4.208   6.917   8.443 -0.0754  0.8005 -0.1448
   22SAPC  H18X 2966   4.123   6.890   8.378 -1.3210  2.5323  0.7244
   22SAPC  H18Y 2967   4.290   6.843   8.426  1.5216  2.6351 -0.6241
   22SAPC  H18Z 2968   4.261   7.012   8.422 -0.6204  0.8085 -1.5380
   23SAPC     N 2969   4.700   0.717  11.092 -0.4683 -0.2833  0.0522
   23SAPC   C12 2970   4.816   0.811  11.073 -0.0467 -0.0029 -0.0145
   23SAPC  H12A 2971   4.899   0.752  11.037 -0.9756 -0.9494 -0.6273
   23SAPC  H12B 2972   4.845   0.857  11.167  1.1312  1.7268 -1.1835
   23SAPC   C13 2973   4.718   0.621  11.202 -0.1061 -0.4659  0.5608
   23SAPC  H13A 2974   4.719   0.660  11.303 -2.1985 -0.4612  0.5998
   23SAPC  H13B 2975   4.639   0.547  11.201  0.6071 -1.2233 -0.0846
   23SAPC  H13C 2976   4.815   0.573  11.199  0.6827  1.0971  0.2799
   23SAPC   C14 2977   4.576   0.792  11.116  0.7364 -0.4335 -0.0915
   23SAPC  H14A 2978   4.492   0.728  11.139 -0.0134 -0.0383 -1.6556
   23SAPC  H14B 2979   4.585   0.861  11.198 -2.3204  0.3701 -0.3452
   23SAPC  H14C 2980   4.555   0.850  11.027  1.4026 -0.4337 -0.2498
   23SAPC   C15 2981   4.669   0.639  10.969 -0.0644  0.1115 -0.7519
   23SAPC  H15A 2982   4.751   0.574  10.943 -0.5808 -0.4743 -0.9305
   23SAPC  H15B 2983   4.581   0.577  10.977  1.0635 -1.8400 -2.7517
   23SAPC  H15C 2984   4.658   0.698  10.880 -2.4394 -0.7573 -1.0699
   23SAPC   C11 2985   4.794   0.937  10.983  0.2258  0.2368 -0.7614
   23SAPC  H11A 2986   4.888   0.993  11.000  0.7564  0.1252 -3.2042
   23SAPC  H11B 2987   4.700   0.992  11.007  0.0188 -1.0652  1.5505
   23SAPC     P 2988   4.700   0.947  10.741  0.2632 -0.3688 -0.0766
   23SAPC   O13 2989   4.574   0.869  10.756  0.3723  0.1740 -0.3247
   23SAPC   O14 2990   4.693   1.089  10.780 -0.5417  0.0599  0.0801
   23SAPC   O12 2991   4.802   0.893  10.845  0.0282  0.0142 -0.7063
   23SAPC   O11 2992   4.770   0.923  10.604 -0.1034  0.0165 -0.4072
   23SAPC    C1 2993   4.736   1.022  10.501  0.1390 -0.0432 -0.3962
   23SAPC    HA 2994   4.637   1.000  10.456  0.2766 -1.3788 -0.0655
   23SAPC    HB 2995   4.733   1.125  10.541 -0.6753 -0.5888  0.9657
   23SAPC    C2 2996   4.859   1.040  10.399 -0.2748 -0.3433  0.0872
   23SAPC    HS 2997   4.840   1.129  10.336 -0.4122 -0.7820 -0.5006
   23SAPC   O21 2998   4.865   0.922  10.318 -0.3269  0.1596  0.2615
   23SAPC   C21 2999   4.940   0.928  10.209 -0.1647 -0.3018  0.1320
   23SAPC   O22 3000   4.979   1.034  10.160  0.3002 -0.2758 -0.0055
   23SAPC   C22 3001   4.940   0.796  10.138 -0.4204  0.4689 -0.1763
   23SAPC   H2R 3002   4.979   0.716  10.205 -0.0802 -0.7386 -1.7782
   23SAPC   H2S 3003   4.841   0.755  10.110  0.1689  0.3227 -2.1113
   23SAPC    C3 3004   4.997   1.054  10.477  0.4989 -0.0077 -0.2072
   23SAPC    HX 3005   5.014   0.963  10.538 -1.8709  0.2115  0.8181
   23SAPC    HY 3006   4.979   1.127  10.558 -1.1186 -1.3504  0.6820
   23SAPC   O31 3007   5.109   1.107  10.399 -0.2007  0.7704  0.3501
   23SAPC   C31 3008   5.202   1.024  10.356 -0.0836 -0.1732  0.4927
   23SAPC   O32 3009   5.208   0.903  10.374 -0.6663  0.0527  0.2871
   23SAPC   C32 3010   5.310   1.102  10.283 -0.2866  0.3024 -0.2462
   23SAPC   H2X 3011   5.392   1.120  10.355 -2.3206  1.6215  1.8000
   23SAPC   H2Y 3012   5.265   1.201  10.259  2.0393  1.4608  0.0302
   23SAPC   C23 3013   5.036   0.785  10.018 -0.5584 -0.1597 -0.0211
   23SAPC   H3R 3014   5.132   0.836  10.044  1.0631 -0.9211 -4.1281
   23SAPC   H3S 3015   4.992   0.836   9.930 -1.0983 -1.4881 -0.5276
   23SAPC   C24 3016   5.084   0.644   9.980 -0.0381  0.1457 -0.1988
   23SAPC   H4R 3017   5.137   0.595  10.064  1.4899  2.1982  0.0662
   23SAPC   H4S 3018   5.162   0.643   9.902 -0.1649 -2.2226 -0.3117
   23SAPC   C25 3019   4.975   0.549   9.929  0.8545  0.5006  0.6474
   23SAPC   H5R 3020   4.923   0.488  10.004  1.1559 -0.9241 -0.2608
   23SAPC   C26 3021   4.936   0.533   9.803 -0.0393  0.5649  0.3694
   23SAPC   H6R 3022   4.866   0.454   9.774 -0.3626  1.4396 -1.2982
   23SAPC   C27 3023   4.989   0.610   9.686 -0.2915  0.1615  0.0438
   23SAPC   H7R 3024   5.051   0.537   9.630  1.5289 -1.8618  4.4562
   23SAPC   H7S 3025   5.066   0.684   9.714 -0.0549  0.0597 -0.3382
   23SAPC   C28 3026   4.888   0.673   9.590  0.8487  0.9454 -0.5712
   23SAPC   H8R 3027   4.856   0.767   9.638  2.3280  0.2734  1.7774
   23SAPC   C29 3028   4.830   0.623   9.482  0.0391  0.6079  0.0877
   23SAPC   H9R 3029   4.758   0.675   9.417  0.5355  3.3798  1.6389
   23SAPC  C210 3030   4.867   0.485   9.433  0.2608  0.5799  0.4642
   23SAPC  H10R 3031   4.874   0.412   9.517 -0.8885 -0.1345 -0.0458
   23SAPC  H10S 3032   4.974   0.478   9.400  0.1805  3.4024 -0.4966
   23SAPC  C211 3033   4.766   0.426   9.338  1.0391  0.0669 -0.1472
   23SAPC  H11R 3034   4.673   0.396   9.389  0.7551  0.0279 -0.6884
   23SAPC  C212 3035   4.766   0.413   9.206  0.3037  0.1181 -0.8979
   23SAPC  H12R 3036   4.684   0.376   9.142  0.5090 -2.1691  0.0875
   23SAPC  C213 3037   4.893   0.449   9.122  0.1756  0.6653  0.0053
   23SAPC  H13R 3038   4.924   0.356   9.069 -0.5880 -0.7682  2.0038
   23SAPC  H13S 3039   4.974   0.483   9.190 -0.4996 -0.3818  1.3586
   23SAPC  C214 3040   4.856   0.569   9.034 -0.9198  0.6159  0.0365
   23SAPC  H14R 3041   4.832   0.663   9.085  1.3552  2.2929 -1.8610
   23SAPC  C215 3042   4.864   0.575   8.901  0.2175 -0.2556 -0.0067
   23SAPC  H15R 3043   4.816   0.658   8.847 -1.6860 -1.0348  0.4457
   23SAPC  C216 3044   4.916   0.466   8.808  0.0501 -0.0028 -0.4503
   23SAPC  H16R 3045   4.963   0.383   8.865  2.4124  1.5841 -0.0144
   23SAPC  H16S 3046   4.981   0.507   8.728  1.5728 -0.5510  0.4738
   23SAPC  C217 3047   4.796   0.396   8.733 -1.0603  0.5152  0.5981
   23SAPC  H17R 3048   4.716   0.373   8.807 -0.0925 -1.6206  1.0405
   23SAPC  H17S 3049   4.821   0.293   8.699 -1.1415  0.5205  0.5239
   23SAPC  C218 3050   4.747   0.479   8.612 -0.0157  1.0630 -0.2018
   23SAPC  H18R 3051   4.831   0.498   8.543  1.6479  1.7124  1.9409
   23SAPC  H18S 3052   4.724   0.577   8.660 -0.7450  0.5455  0.5239
   23SAPC  C219 3053   4.636   0.409   8.525  0.3056 -0.4054 -0.4094
   23SAPC  H19R 3054   4.610   0.490   8.454  3.5348  1.5179  0.5163
   23SAPC  H19S 3055   4.547   0.380   8.585  2.2535 -5.1448  0.4444
   23SAPC  C220 3056   4.685   0.290   8.437 -0.5774  0.4332  1.0135
   23SAPC  H20R 3057   4.755   0.224   8.493  1.1427  0.8593 -0.5913
   23SAPC  H20S 3058   4.752   0.330   8.358  0.5139 -0.3573  1.5177
   23SAPC  H20T 3059   4.598   0.246   8.384 -0.0643  1.8608 -1.0961
   23SAPC   C33 3060   5.342   1.035  10.144  0.9502 -0.4205 -0.3508
   23SAPC   H3X 3061   5.252   0.986  10.102  0.2580  0.5152  0.0272
   23SAPC   H3Y 3062   5.412   0.953  10.173  0.9610 -0.2766  0.0324
   23SAPC   C34 3063   5.409   1.122  10.039 -0.2194  0.1766 -0.3145
   23SAPC   H4X 3064   5.507   1.164  10.071  0.0599  0.8132 -1.9621
   23SAPC   H4Y 3065   5.349   1.216  10.036 -0.2948  0.1431  0.1242
   23SAPC   C35 3066   5.446   1.045   9.913  0.0656  0.0428  0.3766
   23SAPC   H5X 3067   5.361   0.975   9.898 -0.8039  1.7707 -3.3904
   23SAPC   H5Y 3068   5.528   0.971   9.932  0.2551  0.4179  1.0219
   23SAPC   C36 3069   5.468   1.144   9.796  0.0056 -0.5668 -0.1890
   23SAPC   H6X 3070   5.553   1.210   9.822  0.5673 -2.0296  1.8161
   23SAPC   H6Y 3071   5.375   1.203   9.779 -0.2788 -1.0779 -0.4391
   23SAPC   C37 3072   5.490   1.071   9.659 -0.3825 -0.0633  0.3455
   23SAPC   H7X 3073   5.408   0.997   9.650  1.2228 -2.1877  2.4970
   23SAPC   H7Y 3074   5.588   1.018   9.657 -0.5746 -0.4336  0.9220
   23SAPC   C38 3075   5.483   1.169   9.535 -0.3118 -0.6192 -0.3393
   23SAPC   H8X 3076   5.560   1.247   9.553  0.9220 -1.4422 -1.9203
   23SAPC   H8Y 3077   5.381   1.211   9.546 -0.1752 -0.0457 -1.1862
   23SAPC   C39 3078   5.492   1.096   9.397 -0.0243  0.0433  0.4950
   23SAPC   H9X 3079   5.395   1.043   9.383  0.9752 -0.5509 -5.0830
   23SAPC   H9Y 3080   5.581   1.030   9.395 -0.1845 -0.1552 -0.0370
   23SAPC  C310 3081   5.502   1.198   9.284 -0.0419  0.5171  0.1352
   23SAPC  H10X 3082   5.608   1.231   9.295  0.3747 -0.5151 -0.6626
   23SAPC  H10Y 3083   5.433   1.285   9.293 -0.8674 -0.1633  0.3720
   23SAPC  C311 3084   5.484   1.141   9.134  0.8689 -0.0981 -0.7365
   23SAPC  H11X 3085   5.512   1.220   9.061 -0.2727  0.6090 -0.4185
   23SAPC  H11Y 3086   5.376   1.119   9.114  1.0343 -0.3279 -1.4221
   23SAPC  C312 3087   5.570   1.023   9.095  0.4340  0.1077  0.1067
   23SAPC  H12X 3088   5.573   0.951   9.179 -0.0128  1.2816  1.1459
   23SAPC  H12Y 3089   5.675   1.058   9.085  0.1071  0.8368 -0.8760
   23SAPC  C313 3090   5.513   0.948   8.970 -0.0507 -0.2208  1.0622
   23SAPC  H13X 3091   5.405   0.920   8.976 -0.4498  0.4465 -2.1374
   23SAPC  H13Y 3092   5.577   0.858   8.961 -0.8098 -0.5683 -1.3588
   23SAPC  C314 3093   5.514   1.036   8.838 -0.3424  0.5562  0.2127
   23SAPC  H14X 3094   5.615   1.081   8.831 -0.2368  0.0323 -1.9238
   23SAPC  H14Y 3095   5.441   1.118   8.856 -1.9525 -0.7802 -0.1368
   23SAPC  C315 3096   5.480   0.959   8.718  0.3314  0.2345 -0.4799
   23SAPC  H15X 3097   5.375   0.924   8.729  0.4388  0.2568  0.6088
   23SAPC  H15Y 3098   5.538   0.867   8.697  0.6383 -0.2036  2.1715
   23SAPC  C316 3099   5.471   1.047   8.595 -0.3852  0.5903  0.3518
   23SAPC  H16X 3100   5.568   1.077   8.550 -1.0036 -1.0382 -2.1433
   23SAPC  H16Y 3101   5.424   1.146   8.616  1.1116  1.5133 -0.5530
   23SAPC  C317 3102   5.391   0.979   8.481 -0.4363  0.2428  0.1387
   23SAPC  H17X 3103   5.295   0.939   8.521  0.8438 -1.3841  1.7068
   23SAPC  H17Y 3104   5.448   0.896   8.434  0.4586  0.2546  1.1741
   23SAPC  C318 3105   5.354   1.080   8.373 -0.1339 -0.0604  0.5281
   23SAPC  H18X 3106   5.326   1.044   8.272 -1.2846  0.0912  0.7959
   23SAPC  H18Y 3107   5.437   1.150   8.346 -1.6225  2.4101  2.0945
   23SAPC  H18Z 3108   5.282   1.156   8.409  0.1841 -0.9884  3.2383
   24SAPC     N 3109   0.883   1.625  11.480  0.8290  0.1845  0.4074
   24SAPC   C12 3110   0.985   1.599  11.368  0.5869  0.4601  0.5940
   24SAPC  H12A 3111   1.083   1.590  11.413  0.0512  0.5357  1.7906
   24SAPC  H12B 3112   0.986   1.692  11.314  1.1373  1.8541  2.8989
   24SAPC   C13 3113   0.749   1.657  11.410 -0.7931 -0.4214 -0.3807
   24SAPC  H13A 3114   0.669   1.631  11.478 -0.3680  0.7852  0.6042
   24SAPC  H13B 3115   0.734   1.761  11.386  0.8600 -0.3303 -1.0465
   24SAPC  H13C 3116   0.741   1.590  11.326 -0.3452 -0.8187 -0.1087
   24SAPC   C14 3117   0.868   1.502  11.572 -0.4465 -0.7104 -0.3873
   24SAPC  H14A 3118   0.960   1.499  11.628  0.2369  0.2042 -1.4506
   24SAPC  H14B 3119   0.783   1.504  11.639  0.1835  0.6197  0.3965
   24SAPC  H14C 3120   0.861   1.409  11.517 -0.2731 -0.3147 -1.0692
   24SAPC   C15 3121   0.922   1.746  11.560 -0.3353  0.2354  0.3833
   24SAPC  H15A 3122   1.029   1.752  11.578 -0.2161  4.0248 -1.1292
   24SAPC  H15B 3123   0.915   1.837  11.503  1.2685 -0.1588 -0.4731
   24SAPC  H15C 3124   0.866   1.759  11.651  0.6571  0.5220  0.9639
   24SAPC   C11 3125   0.954   1.480  11.269 -0.1760  0.6269 -1.0113
   24SAPC  H11A 3126   0.943   1.390  11.334  0.0908  0.9415 -0.5240
   24SAPC  H11B 3127   1.037   1.460  11.198 -0.4992  2.3849 -1.9037
   24SAPC     P 3128   0.850   1.610  11.080  0.2556  0.0232 -0.1607
   24SAPC   O13 3129   0.721   1.676  11.110 -0.1219  0.1350 -0.3453
   24SAPC   O14 3130   0.980   1.684  11.087  0.2492  0.3160  0.1878
   24SAPC   O12 3131   0.840   1.492  11.188  0.1084  0.0190  0.2441
   24SAPC   O11 3132   0.830   1.534  10.946 -0.3725 -0.0282  0.3162
   24SAPC    C1 3133   0.726   1.436  10.933  0.4642 -0.2167 -0.2070
   24SAPC    HA 3134   0.775   1.338  10.946  0.2403  0.0359  3.0106
   24SAPC    HB 3135   0.643   1.447  11.006  0.9068 -0.5394  0.3395
   24SAPC    C2 3136   0.669   1.427  10.791  0.1688 -0.3296 -0.2546
   24SAPC    HS 3137   0.607   1.337  10.776 -2.1106  1.1596 -0.0324
   24SAPC   O21 3138   0.773   1.431  10.688  0.4093  0.0478  0.3770
   24SAPC   C21 3139   0.828   1.323  10.656  0.0785 -0.3414  0.6490
   24SAPC   O22 3140   0.804   1.213  10.703  0.5912 -0.0877  0.6556
   24SAPC   C22 3141   0.928   1.347  10.538 -0.1742 -0.3741  0.2350
   24SAPC   H2R 3142   0.911   1.444  10.488  2.4008  0.2472  0.5171
   24SAPC   H2S 3143   1.027   1.362  10.585 -0.1557 -0.4357  0.2154
   24SAPC    C3 3144   0.567   1.546  10.777  0.6379 -0.4125 -0.1615
   24SAPC    HX 3145   0.634   1.634  10.767  2.0640 -1.1338  2.5476
   24SAPC    HY 3146   0.502   1.544  10.867 -0.2422  1.5189 -0.7275
   24SAPC   O31 3147   0.474   1.540  10.660 -0.7321 -0.2688 -0.0787
   24SAPC   C31 3148   0.382   1.446  10.665 -0.3072 -0.2327 -0.1896
   24SAPC   O32 3149   0.362   1.372  10.760  0.1510 -0.0937 -0.0823
   24SAPC   C32 3150   0.295   1.450  10.537  0.0761  1.1608 -0.3306
   24SAPC   H2X 3151   0.227   1.537  10.547  1.1415  2.1746 -1.8155
   24SAPC   H2Y 3152   0.231   1.359  10.534 -1.3728  2.2224 -1.9511
   24SAPC   C23 3153   0.928   1.244  10.420 -0.2214  0.2382  0.2007
   24SAPC   H3R 3154   0.837   1.269  10.362 -1.1443 -1.5725  0.8390
   24SAPC   H3S 3155   0.921   1.140  10.459 -1.8372  0.2902  0.0855
   24SAPC   C24 3156   1.047   1.258  10.322 -0.1707 -0.1340 -0.0466
   24SAPC   H4R 3157   1.019   1.203  10.230 -0.4406  0.3113 -0.2337
   24SAPC   H4S 3158   1.137   1.208  10.365  0.1125  0.2499 -0.1851
   24SAPC   C25 3159   1.071   1.404  10.275  0.0603 -0.3524  0.5715
   24SAPC   H5R 3160   1.079   1.471  10.362  1.8615 -0.8445  0.7859
   24SAPC   C26 3161   1.071   1.450  10.148  0.0829  0.1996 -0.0776
   24SAPC   H6R 3162   1.080   1.560  10.139 -0.1001  0.4958  2.7449
   24SAPC   C27 3163   1.048   1.383  10.011 -0.5017 -0.3105  0.3049
   24SAPC   H7R 3164   0.940   1.376   9.990 -0.4273  1.2571 -0.6458
   24SAPC   H7S 3165   1.078   1.276  10.014 -2.9213 -1.0172 -0.0240
   24SAPC   C28 3166   1.103   1.468   9.900 -0.2511 -0.0329  0.1031
   24SAPC   H8R 3167   1.086   1.574   9.924 -0.6996 -0.1298  0.2238
   24SAPC   C29 3168   1.163   1.418   9.792  0.3833  0.0732 -0.3329
   24SAPC   H9R 3169   1.187   1.490   9.712 -0.5451  2.6801  1.7004
   24SAPC  C210 3170   1.177   1.268   9.754 -0.4922 -0.3012 -0.6198
   24SAPC  H10R 3171   1.204   1.258   9.646 -1.2766  0.9740 -0.9404
   24SAPC  H10S 3172   1.075   1.226   9.766 -0.3365 -0.4670  0.1500
   24SAPC  C211 3173   1.279   1.184   9.832  0.0369 -0.6564  0.1433
   24SAPC  H11R 3174   1.374   1.234   9.856 -0.0141 -0.5840  0.1950
   24SAPC  C212 3175   1.263   1.055   9.870  0.3985 -0.6762 -0.3909
   24SAPC  H12R 3176   1.341   1.002   9.927 -1.6715 -1.3830  1.8784
   24SAPC  C213 3177   1.136   0.974   9.844 -0.1917  0.4222  0.3670
   24SAPC  H13R 3178   1.119   0.950   9.737 -0.8954  1.1635  0.3033
   24SAPC  H13S 3179   1.053   1.038   9.883 -0.6534 -1.1575  2.0732
   24SAPC  C214 3180   1.135   0.838   9.907  0.6712  0.4540  0.1899
   24SAPC  H14R 3181   1.155   0.753   9.842  0.7656  0.3719  0.3256
   24SAPC  C215 3182   1.094   0.819  10.031  0.0256 -0.0613  0.0725
   24SAPC  H15R 3183   1.101   0.716  10.070 -1.1246 -0.5175 -0.8938
   24SAPC  C216 3184   1.045   0.923  10.127 -0.3064 -0.0115 -1.2367
   24SAPC  H16R 3185   1.043   1.026  10.085  1.6142  1.8782  3.0355
   24SAPC  H16S 3186   1.118   0.921  10.210 -0.6050 -1.4488 -0.9966
   24SAPC  C217 3187   0.908   0.889  10.180 -1.0996 -0.4851 -0.5288
   24SAPC  H17R 3188   0.849   0.864  10.089 -0.3888 -1.0621 -0.8353
   24SAPC  H17S 3189   0.845   0.969  10.224 -0.4202 -0.4071  0.3013
   24SAPC  C218 3190   0.907   0.769  10.288  0.3772 -0.1459 -0.2649
   24SAPC  H18R 3191   0.989   0.696  10.272  1.5758  1.4148 -1.2654
   24SAPC  H18S 3192   0.813   0.709  10.280 -0.4306  1.3900 -2.8685
   24SAPC  C219 3193   0.916   0.836  10.423  0.2104 -0.7846 -0.4541
   24SAPC  H19R 3194   0.832   0.908  10.424  1.1048  0.3123  3.9579
   24SAPC  H19S 3195   1.011   0.893  10.435 -1.9247  2.7184  0.3126
   24SAPC  C220 3196   0.917   0.729  10.536  0.3163 -0.0131 -0.1148
   24SAPC  H20R 3197   0.814   0.697  10.564 -0.0778  0.6004 -0.8423
   24SAPC  H20S 3198   0.960   0.781  10.624 -0.6314 -1.1735  1.0624
   24SAPC  H20T 3199   0.978   0.641  10.506 -0.1264 -0.3790  0.0518
   24SAPC   C33 3200   0.388   1.442  10.410 -0.5706 -0.4705 -0.2135
   24SAPC   H3X 3201   0.454   1.531  10.409 -0.2404 -0.6213  2.7897
   24SAPC   H3Y 3202   0.328   1.455  10.317 -0.9237  1.0768  0.2231
   24SAPC   C34 3203   0.460   1.306  10.391 -0.1389 -0.5145 -0.8950
   24SAPC   H4X 3204   0.378   1.233  10.373 -1.4880  0.7971 -0.2423
   24SAPC   H4Y 3205   0.509   1.270  10.484 -0.8748  2.0862  0.5611
   24SAPC   C35 3206   0.548   1.308  10.264  0.3883 -0.1107 -0.1616
   24SAPC   H5X 3207   0.642   1.366  10.279 -0.0365 -0.0088  2.2230
   24SAPC   H5Y 3208   0.488   1.358  10.185  0.0097 -2.1969 -1.2252
   24SAPC   C36 3209   0.569   1.170  10.198 -0.1133 -0.1761  0.5572
   24SAPC   H6X 3210   0.471   1.119  10.198  0.2223 -0.8279  0.1289
   24SAPC   H6Y 3211   0.632   1.112  10.269  0.0102  0.8693  1.3110
   24SAPC   C37 3212   0.622   1.184  10.054 -0.3552 -0.0898  0.5300
   24SAPC   H7X 3213   0.722   1.229  10.072  0.2142 -0.8773 -0.6207
   24SAPC   H7Y 3214   0.559   1.259  10.002 -0.1850 -0.2669  0.0630
   24SAPC   C38 3215   0.634   1.052   9.982 -1.2030  0.0792  0.7008
   24SAPC   H8X 3216   0.533   1.011   9.962 -1.3347 -0.5569  2.6403
   24SAPC   H8Y 3217   0.694   0.986  10.048 -0.1197 -1.1277 -1.4197
   24SAPC   C39 3218   0.715   1.060   9.852  0.3924 -0.2913  0.3946
   24SAPC   H9X 3219   0.810   1.116   9.859  0.0466  0.2918  0.4761
   24SAPC   H9Y 3220   0.666   1.143   9.798  0.4851 -1.1519 -1.0418
   24SAPC  C310 3221   0.714   0.933   9.769 -0.3220 -0.4610 -0.1028
   24SAPC  H10X 3222   0.608   0.906   9.748 -0.2407 -1.8775  1.2614
   24SAPC  H10Y 3223   0.761   0.849   9.824 -2.0729 -1.0626  0.5049
   24SAPC  C311 3224   0.787   0.947   9.634 -0.1470 -0.4769  0.5395
   24SAPC  H11X 3225   0.811   0.847   9.592  1.8873 -0.1287  0.8011
   24SAPC  H11Y 3226   0.884   0.998   9.652 -1.2952  1.6203  1.0811
   24SAPC  C312 3227   0.714   1.038   9.536  0.6651 -0.0413  0.7996
   24SAPC  H12X 3228   0.760   1.139   9.530  2.2217 -0.8371 -1.5632
   24SAPC  H12Y 3229   0.613   1.057   9.578  0.0049 -1.3910 -0.1277
   24SAPC  C313 3230   0.698   0.977   9.397 -0.2198 -0.1582  0.2143
   24SAPC  H13X 3231   0.791   0.920   9.378  0.0836  0.2380  0.4977
   24SAPC  H13Y 3232   0.674   1.052   9.318  1.7105 -0.0052 -0.2371
   24SAPC  C314 3233   0.589   0.871   9.386 -0.5928 -0.0608 -0.8010
   24SAPC  H14X 3234   0.500   0.910   9.440  0.0766 -0.1142  0.3415
   24SAPC  H14Y 3235   0.632   0.780   9.433 -0.0879  0.2650 -0.6272
   24SAPC  C315 3236   0.558   0.826   9.246  0.1023  0.2470 -0.6048
   24SAPC  H15X 3237   0.538   0.915   9.183 -0.4722 -0.8880 -2.0532
   24SAPC  H15Y 3238   0.469   0.760   9.248 -0.7417  1.2937 -2.6771
   24SAPC  C316 3239   0.675   0.746   9.168  0.2355  0.0609 -0.5047
   24SAPC  H16X 3240   0.704   0.661   9.233  1.2660  1.3581  0.7631
   24SAPC  H16Y 3241   0.765   0.810   9.157  0.5121 -0.4182 -1.0707
   24SAPC  C317 3242   0.630   0.702   9.028  0.5767  0.4836 -0.8054
   24SAPC  H17X 3243   0.591   0.799   8.988  0.6092  0.9376  0.2545
   24SAPC  H17Y 3244   0.543   0.634   9.033 -0.2366  1.5954  0.2541
   24SAPC  C318 3245   0.747   0.650   8.944  0.2713  0.7433 -0.2387
   24SAPC  H18X 3246   0.700   0.607   8.853 -2.1801  0.7532  0.9917
   24SAPC  H18Y 3247   0.777   0.567   9.012  1.0873  0.1438 -1.3216
   24SAPC  H18Z 3248   0.818   0.734   8.926  1.1553 -0.0183 -0.3596
   25SAPC     N 3249   3.771   5.810   5.876  0.1225  0.5772 -0.0110
   25SAPC   C12 3250   3.841   5.865   6.003 -0.0277  0.3909  0.6706
   25SAPC  H12A 3251   3.943   5.890   5.977 -0.4041  2.3101  0.9913
   25SAPC  H12B 3252   3.864   5.788   6.075  0.6959 -0.1307 -0.1090
   25SAPC   C13 3253   3.820   5.669   5.842 -0.1212 -0.6722  0.0180
   25SAPC  H13A 3254   3.927   5.665   5.858  0.1469 -0.3216 -1.5977
   25SAPC  H13B 3255   3.780   5.598   5.912 -1.2916  0.3302  0.3784
   25SAPC  H13C 3256   3.798   5.644   5.739  0.4252  1.0442 -0.5415
   25SAPC   C14 3257   3.626   5.790   5.902  0.0889 -0.1609 -0.8189
   25SAPC  H14A 3258   3.581   5.734   5.822 -1.4506  0.2049 -0.2270
   25SAPC  H14B 3259   3.609   5.742   5.997  1.2801 -0.4726 -0.7647
   25SAPC  H14C 3260   3.580   5.887   5.916  2.0305  0.8896 -1.5498
   25SAPC   C15 3261   3.781   5.911   5.773 -1.1692  0.0665  0.0941
   25SAPC  H15A 3262   3.884   5.930   5.744 -1.2258  2.1640  1.1559
   25SAPC  H15B 3263   3.723   5.883   5.687 -0.1466  1.6492 -1.1467
   25SAPC  H15C 3264   3.749   6.008   5.809 -1.2923 -0.6408  1.9396
   25SAPC   C11 3265   3.775   5.985   6.080 -0.1184 -0.1760 -0.4815
   25SAPC  H11A 3266   3.832   6.003   6.173  0.4428 -0.6041 -0.7449
   25SAPC  H11B 3267   3.674   5.951   6.112  1.1900  0.0490  4.3758
   25SAPC     P 3268   3.645   6.200   5.997 -0.1011  0.2357 -0.4413
   25SAPC   O13 3269   3.694   6.325   5.929 -0.5220 -0.2384 -0.4135
   25SAPC   O14 3270   3.533   6.125   5.942 -0.8199  0.3156  0.4436
   25SAPC   O12 3271   3.770   6.105   6.007  0.4497  0.0821 -0.2754
   25SAPC   O11 3272   3.611   6.237   6.147  0.0833 -0.2054  0.5135
   25SAPC    C1 3273   3.708   6.319   6.220  0.0422  0.1560 -0.5535
   25SAPC    HA 3274   3.791   6.256   6.258  0.1578 -0.5878 -1.9733
   25SAPC    HB 3275   3.762   6.396   6.161  1.2538  1.0415  1.6609
   25SAPC    C2 3276   3.649   6.387   6.343 -0.3108  0.1420 -0.6625
   25SAPC    HS 3277   3.734   6.436   6.396  0.1256 -0.9925 -0.3186
   25SAPC   O21 3278   3.594   6.279   6.426 -0.2063  0.6479 -0.1016
   25SAPC   C21 3279   3.583   6.306   6.556  0.0883 -0.4611 -0.1514
   25SAPC   O22 3280   3.642   6.397   6.609  0.6960  0.1537 -0.0157
   25SAPC   C22 3281   3.500   6.189   6.623  0.1340  0.1354 -0.5827
   25SAPC   H2R 3282   3.397   6.185   6.580  0.4939  0.6252 -1.5137
   25SAPC   H2S 3283   3.557   6.095   6.606 -0.4392 -0.7307  2.0781
   25SAPC    C3 3284   3.549   6.495   6.308  0.3916 -0.6394  0.1724
   25SAPC    HX 3285   3.462   6.444   6.260 -0.1587  0.6881 -0.2806
   25SAPC    HY 3286   3.594   6.558   6.228  0.4672 -1.1870 -0.2169
   25SAPC   O31 3287   3.495   6.577   6.415 -0.0698 -0.2155 -0.3717
   25SAPC   C31 3288   3.386   6.534   6.481  0.1418 -0.7117  0.2597
   25SAPC   O32 3289   3.340   6.424   6.460 -0.3203 -0.1688 -0.1008
   25SAPC   C32 3290   3.333   6.640   6.576 -0.7959  0.7973 -0.0837
   25SAPC   H2X 3291   3.322   6.732   6.515  0.8770  1.6949  0.9194
   25SAPC   H2Y 3292   3.401   6.653   6.663 -0.4448 -0.3681 -0.1769
   25SAPC   C23 3293   3.510   6.208   6.776 -0.1029 -0.5826  0.0072
   25SAPC   H3R 3294   3.458   6.128   6.834 -0.4853 -0.2708  0.0946
   25SAPC   H3S 3295   3.478   6.308   6.812 -0.7326 -0.7545 -0.0632
   25SAPC   C24 3296   3.656   6.175   6.828 -0.2672 -0.0475 -0.1467
   25SAPC   H4R 3297   3.647   6.189   6.938 -0.9037  0.1411 -0.2221
   25SAPC   H4S 3298   3.730   6.246   6.786 -0.7408 -0.2695 -1.3937
   25SAPC   C25 3299   3.717   6.036   6.804 -0.1231  0.1495 -0.0808
   25SAPC   H5R 3300   3.731   6.025   6.695 -1.5815  1.0958 -0.3744
   25SAPC   C26 3301   3.755   5.943   6.897  0.2385 -0.1079  0.6460
   25SAPC   H6R 3302   3.793   5.847   6.859 -2.0122 -1.2831  1.2447
   25SAPC   C27 3303   3.753   5.958   7.047 -0.3117 -0.2968 -0.2655
   25SAPC   H7R 3304   3.770   6.065   7.070  0.7352 -0.4816 -0.1778
   25SAPC   H7S 3305   3.835   5.897   7.090 -0.5888 -1.5985 -1.5641
   25SAPC   C28 3306   3.622   5.920   7.105  0.5287 -0.0648 -0.2110
   25SAPC   H8R 3307   3.567   5.848   7.042 -0.6861 -1.7887  2.7126
   25SAPC   C29 3308   3.550   5.966   7.210 -0.3128  0.2017 -0.0431
   25SAPC   H9R 3309   3.444   5.936   7.218 -0.0283 -0.4031  1.7061
   25SAPC  C210 3310   3.595   6.070   7.311  0.2155  0.6394  0.0266
   25SAPC  H10R 3311   3.504   6.092   7.371  0.1800  0.8630 -0.1058
   25SAPC  H10S 3312   3.612   6.162   7.250 -1.6765 -0.2293 -1.9138
   25SAPC  C211 3313   3.721   6.042   7.397  0.5028 -0.4614  0.7939
   25SAPC  H11R 3314   3.810   6.047   7.332  0.3177  1.3365  0.6521
   25SAPC  C212 3315   3.721   5.992   7.517  0.2465  0.1945 -0.0733
   25SAPC  H12R 3316   3.815   5.975   7.572  0.0976  1.6165  0.6514
   25SAPC  C213 3317   3.602   5.956   7.603 -0.1280 -0.3346  0.4356
   25SAPC  H13R 3318   3.617   5.847   7.614 -0.6379 -0.5112 -0.5265
   25SAPC  H13S 3319   3.504   5.971   7.551 -0.1054 -0.0549  0.4758
   25SAPC  C214 3320   3.600   6.031   7.728  0.4624 -0.1933  0.4680
   25SAPC  H14R 3321   3.608   6.140   7.717 -0.9251 -0.2208 -0.9889
   25SAPC  C215 3322   3.615   5.982   7.856 -0.6858  0.0589 -0.5139
   25SAPC  H15R 3323   3.608   6.049   7.943 -1.0312  1.2441 -1.4469
   25SAPC  C216 3324   3.633   5.833   7.888  0.2823  0.0267 -0.5308
   25SAPC  H16R 3325   3.603   5.773   7.800 -1.1272 -1.3193  0.8552
   25SAPC  H16S 3326   3.558   5.787   7.956  0.6702 -0.3868 -0.3835
   25SAPC  C217 3327   3.777   5.789   7.936  0.6384  0.0228  0.2090
   25SAPC  H17R 3328   3.849   5.842   7.870 -0.7378  0.3553 -1.0533
   25SAPC  H17S 3329   3.786   5.679   7.932  2.1525  0.1888 -2.0696
   25SAPC  C218 3330   3.787   5.841   8.080  0.2042  0.6206  0.0827
   25SAPC  H18R 3331   3.697   5.804   8.133 -0.2886  0.9424 -0.5180
   25SAPC  H18S 3332   3.789   5.952   8.083  2.9580  0.8259 -4.3032
   25SAPC  C219 3333   3.906   5.789   8.165  0.8405 -0.5561  0.0889
   25SAPC  H19R 3334   3.997   5.829   8.116  1.0507 -1.7769 -0.5468
   25SAPC  H19S 3335   3.894   5.678   8.155  0.8569 -0.3706 -2.3269
   25SAPC  C220 3336   3.898   5.845   8.310  0.4379 -0.3765  0.7565
   25SAPC  H20R 3337   3.910   5.955   8.317 -0.7953 -0.0776 -1.3658
   25SAPC  H20S 3338   3.972   5.787   8.369  3.1873  1.8208 -0.3870
   25SAPC  H20T 3339   3.795   5.823   8.346  0.2133  2.4406  1.9404
   25SAPC   C33 3340   3.192   6.599   6.620  0.4687 -0.4125  0.0848
   25SAPC   H3X 3341   3.128   6.572   6.533 -0.4189 -1.4789  1.0445
   25SAPC   H3Y 3342   3.141   6.687   6.663  0.6188 -0.2210 -0.1254
   25SAPC   C34 3343   3.196   6.494   6.730  0.0858 -0.1598  0.1575
   25SAPC   H4X 3344   3.238   6.404   6.680 -1.4790 -0.6164 -0.3853
   25SAPC   H4Y 3345   3.091   6.458   6.743 -0.0582  0.0263 -0.4700
   25SAPC   C35 3346   3.268   6.530   6.861 -0.2949 -0.0345 -0.0358
   25SAPC   H5X 3347   3.233   6.628   6.900  0.0010  0.1712 -0.2808
   25SAPC   H5Y 3348   3.374   6.545   6.830 -0.4969  1.1946 -0.1632
   25SAPC   C36 3349   3.243   6.433   6.969  0.1134  0.0570 -0.0364
   25SAPC   H6X 3350   3.285   6.338   6.928  2.0210  0.8513  0.0671
   25SAPC   H6Y 3351   3.136   6.428   7.000 -0.1577 -1.0495 -1.0866
   25SAPC   C37 3352   3.325   6.460   7.101  0.4476 -0.3924 -0.7354
   25SAPC   H7X 3353   3.311   6.568   7.124 -0.4348 -0.6436 -0.0483
   25SAPC   H7Y 3354   3.429   6.443   7.066  1.0350 -0.5545  1.0870
   25SAPC   C38 3355   3.288   6.368   7.218  0.1291 -0.0251 -0.4513
   25SAPC   H8X 3356   3.299   6.259   7.198  2.2747  0.1026 -0.0733
   25SAPC   H8Y 3357   3.179   6.377   7.234  0.3987 -0.3464  1.6403
   25SAPC   C39 3358   3.359   6.411   7.347  0.2983 -0.3571  0.3798
   25SAPC   H9X 3359   3.379   6.520   7.336 -3.2534  0.7628  4.0643
   25SAPC   H9Y 3360   3.457   6.360   7.342 -0.0224 -0.8174 -2.3597
   25SAPC  C310 3361   3.300   6.366   7.475 -0.5452 -0.5797 -0.2048
   25SAPC  H10X 3362   3.280   6.257   7.488  2.1240 -0.8211  2.3781
   25SAPC  H10Y 3363   3.198   6.410   7.480 -0.5315 -0.3417 -1.9259
   25SAPC  C311 3364   3.386   6.416   7.595 -0.2746  0.1343 -0.0978
   25SAPC  H11X 3365   3.374   6.526   7.604 -1.1583 -0.0542  1.2212
   25SAPC  H11Y 3366   3.493   6.394   7.575 -0.2222  1.2213 -1.0083
   25SAPC  C312 3367   3.340   6.355   7.718  0.0999 -0.5007 -0.2681
   25SAPC  H12X 3368   3.346   6.248   7.748  2.1823  0.0268  1.3561
   25SAPC  H12Y 3369   3.230   6.357   7.730  0.2528 -0.1788  1.1700
   25SAPC  C313 3370   3.399   6.433   7.837 -0.2411 -0.0875  0.0267
   25SAPC  H13X 3371   3.318   6.421   7.912 -1.5979  1.2027 -1.2006
   25SAPC  H13Y 3372   3.428   6.537   7.811  0.0248 -0.2413 -0.2999
   25SAPC  C314 3373   3.526   6.362   7.897 -0.6925  0.6846  0.3307
   25SAPC  H14X 3374   3.618   6.380   7.838  0.3349 -0.9859  1.3924
   25SAPC  H14Y 3375   3.519   6.251   7.899  0.5229  0.5972 -0.1736
   25SAPC  C315 3376   3.552   6.413   8.046 -0.3474  0.1208 -0.1652
   25SAPC  H15X 3377   3.455   6.424   8.099 -0.4722 -4.2275  0.7729
   25SAPC  H15Y 3378   3.590   6.516   8.032 -1.8291  0.9364  1.6824
   25SAPC  C316 3379   3.638   6.326   8.130 -0.2559  0.0175  0.7115
   25SAPC  H16X 3380   3.744   6.324   8.097  0.1558  0.5898  1.9705
   25SAPC  H16Y 3381   3.588   6.227   8.132  0.3552 -0.3550 -1.5116
   25SAPC  C317 3382   3.641   6.374   8.274 -0.2132  0.0917  0.0469
   25SAPC  H17X 3383   3.547   6.336   8.321  1.0070 -1.3302  1.3956
   25SAPC  H17Y 3384   3.636   6.485   8.264  0.0225  0.0256 -0.8291
   25SAPC  C318 3385   3.767   6.333   8.352  0.3500 -0.0239 -0.5554
   25SAPC  H18X 3386   3.859   6.380   8.313  1.3293  0.7833  2.6305
   25SAPC  H18Y 3387   3.777   6.222   8.358  0.4356  0.0507  0.7399
   25SAPC  H18Z 3388   3.755   6.375   8.454 -0.1681 -0.5642 -0.3887
   26SAPC     N 3389   2.601   1.467   5.965 -0.3942  0.4074 -0.5411
   26SAPC   C12 3390   2.657   1.327   5.994  0.1331 -0.4395  0.2040
   26SAPC  H12A 3391   2.743   1.338   6.058 -1.0463  1.3606  1.5425
   26SAPC  H12B 3392   2.694   1.284   5.902 -0.4247  0.3554 -0.4095
   26SAPC   C13 3393   2.504   1.456   5.843 -0.2628 -0.3687 -0.4533
   26SAPC  H13A 3394   2.455   1.552   5.834 -1.2494 -0.7625  0.6213
   26SAPC  H13B 3395   2.561   1.441   5.752 -0.7368  0.2737 -0.8729
   26SAPC  H13C 3396   2.432   1.376   5.848  0.6565 -1.2440 -1.1466
   26SAPC   C14 3397   2.523   1.532   6.065  0.2792 -0.7429 -0.1146
   26SAPC  H14A 3398   2.581   1.553   6.153  0.0209  0.1851 -0.1617
   26SAPC  H14B 3399   2.491   1.628   6.027  1.2199 -0.0305  0.8725
   26SAPC  H14C 3400   2.434   1.479   6.097 -0.7188  0.4125 -0.9347
   26SAPC   C15 3401   2.717   1.567   5.930  0.2491  0.4053  0.3229
   26SAPC  H15A 3402   2.759   1.543   5.833  0.4478  1.9309  0.0188
   26SAPC  H15B 3403   2.671   1.664   5.927 -0.3487  0.1510  1.0450
   26SAPC  H15C 3404   2.794   1.572   6.005  1.5167  2.1861 -1.0500
   26SAPC   C11 3405   2.560   1.228   6.057  0.2753  0.2170 -1.1417
   26SAPC  H11A 3406   2.619   1.134   6.055 -1.9458 -1.2295 -0.9036
   26SAPC  H11B 3407   2.462   1.231   6.005 -0.8937 -1.7827  0.8110
   26SAPC     P 3408   2.633   1.261   6.311  0.0128  0.1321  0.3073
   26SAPC   O13 3409   2.658   1.402   6.351  0.3703 -0.5603  0.0708
   26SAPC   O14 3410   2.576   1.162   6.406  0.1185 -0.4603 -0.0060
   26SAPC   O12 3411   2.523   1.265   6.197 -0.0888 -0.6155  0.0077
   26SAPC   O11 3412   2.765   1.218   6.238  0.6784  0.0155 -0.6155
   26SAPC    C1 3413   2.850   1.116   6.276  0.2209 -0.5255 -0.1346
   26SAPC    HA 3414   2.795   1.023   6.300  0.0742 -0.5177 -0.4358
   26SAPC    HB 3415   2.913   1.093   6.187 -0.3107  0.2434 -0.7308
   26SAPC    C2 3416   2.946   1.161   6.397  0.1349 -0.1538 -0.0280
   26SAPC    HS 3417   3.039   1.101   6.386 -0.1936 -1.0135  1.6774
   26SAPC   O21 3418   2.879   1.131   6.521 -0.2375  0.6108 -0.1718
   26SAPC   C21 3419   2.856   0.998   6.545  0.0757  0.2616 -0.9874
   26SAPC   O22 3420   2.887   0.903   6.478  0.4104  0.3350 -0.1943
   26SAPC   C22 3421   2.795   0.987   6.690 -0.4329 -0.5711  0.4179
   26SAPC   H2R 3422   2.861   1.055   6.748 -0.6911  0.0086  0.0455
   26SAPC   H2S 3423   2.690   1.022   6.688 -0.3435 -0.3224 -0.1220
   26SAPC    C3 3424   2.987   1.311   6.389 -0.2182  0.4198 -0.4136
   26SAPC    HX 3425   2.892   1.368   6.383 -0.7799 -0.4507  0.0265
   26SAPC    HY 3426   3.039   1.324   6.292  0.3856  2.6069  0.1849
   26SAPC   O31 3427   3.070   1.359   6.500  0.3922  0.4514  0.5375
   26SAPC   C31 3428   3.198   1.325   6.499 -0.2007  0.3113 -0.0623
   26SAPC   O32 3429   3.243   1.250   6.416 -0.3071  0.9432  0.1370
   26SAPC   C32 3430   3.275   1.397   6.614  0.1290  0.2044 -0.2800
   26SAPC   H2X 3431   3.208   1.444   6.690  0.5725  0.6747 -0.1700
   26SAPC   H2Y 3432   3.345   1.465   6.561 -0.6257 -0.3577 -2.0094
   26SAPC   C23 3433   2.819   0.848   6.751  0.7033  0.6056  0.6262
   26SAPC   H3R 3434   2.924   0.839   6.785  0.3441 -1.4529  1.2535
   26SAPC   H3S 3435   2.818   0.774   6.668  1.8773  2.0232 -0.6802
   26SAPC   C24 3436   2.725   0.818   6.874 -0.4594 -0.2241  0.1614
   26SAPC   H4R 3437   2.730   0.713   6.908  1.0455 -0.8543 -1.9182
   26SAPC   H4S 3438   2.622   0.828   6.834 -0.3584 -2.0679 -0.5979
   26SAPC   C25 3439   2.733   0.913   6.994  0.7089 -0.3698 -0.3167
   26SAPC   H5R 3440   2.677   1.007   6.984 -2.7692 -2.3746 -0.2990
   26SAPC   C26 3441   2.778   0.876   7.116 -0.8968  0.3660 -0.0840
   26SAPC   H6R 3442   2.764   0.942   7.202  2.2042 -0.6942  1.3012
   26SAPC   C27 3443   2.848   0.749   7.154  0.3847 -0.0879 -0.2152
   26SAPC   H7R 3444   2.856   0.675   7.072 -3.0060  0.2023 -0.8685
   26SAPC   H7S 3445   2.785   0.704   7.235  0.3492  2.6223  1.3195
   26SAPC   C28 3446   2.991   0.798   7.190  0.5641  0.3367 -0.3873
   26SAPC   H8R 3447   3.050   0.825   7.102  0.3282  0.2944 -0.5591
   26SAPC   C29 3448   3.065   0.797   7.305  0.2819 -0.0184  1.2952
   26SAPC   H9R 3449   3.168   0.836   7.292 -0.6193  1.8951 -0.4973
   26SAPC  C210 3450   3.014   0.748   7.430 -0.1057 -0.3716 -0.2821
   26SAPC  H10R 3451   3.022   0.637   7.438 -0.6649 -0.3374  0.9150
   26SAPC  H10S 3452   2.905   0.769   7.440 -0.0948 -0.8859  1.0777
   26SAPC  C211 3453   3.083   0.818   7.547 -0.0585  0.0615 -0.3931
   26SAPC  H11R 3454   3.192   0.810   7.542  0.0612  1.0893  0.5260
   26SAPC  C212 3455   3.023   0.877   7.651 -0.4571  0.0772  0.2225
   26SAPC  H12R 3456   3.081   0.909   7.738  1.8126  1.1257 -1.5983
   26SAPC  C213 3457   2.874   0.884   7.679  0.2317 -0.3121 -0.4202
   26SAPC  H13R 3458   2.844   0.785   7.719 -0.3799  0.0777  0.0960
   26SAPC  H13S 3459   2.804   0.892   7.594 -0.6666  2.7233  0.5218
   26SAPC  C214 3460   2.841   0.997   7.776  0.5167  0.6488  0.1596
   26SAPC  H14R 3461   2.817   1.094   7.731 -1.6887  0.1373  0.1838
   26SAPC  C215 3462   2.841   0.976   7.905  0.1420  0.3379 -0.0138
   26SAPC  H15R 3463   2.822   1.065   7.967 -0.4103 -0.5066  1.0429
   26SAPC  C216 3464   2.868   0.856   7.983 -0.5290 -0.0459  0.0996
   26SAPC  H16R 3465   2.955   0.871   8.050 -0.6941  1.6192 -0.0575
   26SAPC  H16S 3466   2.894   0.775   7.911  1.0273 -1.0999  1.8072
   26SAPC  C217 3467   2.744   0.813   8.061 -0.6875  0.5579  0.4446
   26SAPC  H17R 3468   2.784   0.734   8.128 -1.1778  0.1697  0.2795
   26SAPC  H17S 3469   2.661   0.783   7.995  0.0232  0.8709 -0.6011
   26SAPC  C218 3470   2.693   0.915   8.166 -0.1255  0.4431  0.0648
   26SAPC  H18R 3471   2.603   0.873   8.216 -0.6863  1.2139 -0.3006
   26SAPC  H18S 3472   2.656   0.997   8.103 -1.8302  0.6070  1.2500
   26SAPC  C219 3473   2.792   0.955   8.282 -0.2775  0.2000  0.5462
   26SAPC  H19R 3474   2.878   1.012   8.240 -0.1189  0.1098  0.7433
   26SAPC  H19S 3475   2.821   0.862   8.336 -0.2330  0.4757  1.0078
   26SAPC  C220 3476   2.723   1.053   8.378 -0.0609 -0.0376  0.1090
   26SAPC  H20R 3477   2.785   1.081   8.466  2.0559 -0.3915 -1.2374
   26SAPC  H20S 3478   2.634   1.008   8.426  0.3819 -0.1546  0.8191
   26SAPC  H20T 3479   2.692   1.144   8.321 -2.2229  0.0812  1.4143
   26SAPC   C33 3480   3.353   1.288   6.696  0.2547  0.4425  0.1364
   26SAPC   H3X 3481   3.438   1.331   6.752  0.2370 -0.7815  1.1206
   26SAPC   H3Y 3482   3.396   1.217   6.623 -4.4499 -0.3877 -2.0087
   26SAPC   C34 3483   3.264   1.207   6.795  0.0168  0.2895 -0.6394
   26SAPC   H4X 3484   3.332   1.129   6.836  2.8859  3.0393  0.0973
   26SAPC   H4Y 3485   3.187   1.145   6.744 -0.0321  0.0320 -0.2567
   26SAPC   C35 3486   3.217   1.287   6.920 -0.0980  1.1641  0.3487
   26SAPC   H5X 3487   3.174   1.380   6.879 -0.6152  1.0979  0.7320
   26SAPC   H5Y 3488   3.303   1.315   6.984  0.1192  0.5460  0.3334
   26SAPC   C36 3489   3.099   1.223   6.992 -0.4929  0.4200  0.3297
   26SAPC   H6X 3490   3.042   1.161   6.919  1.8174 -0.5464 -0.6878
   26SAPC   H6Y 3491   3.026   1.299   7.028 -0.9772 -0.7948  1.9625
   26SAPC   C37 3492   3.151   1.127   7.108  0.6407 -0.3600 -0.5269
   26SAPC   H7X 3493   3.228   1.059   7.066  0.7060 -0.1491 -0.7562
   26SAPC   H7Y 3494   3.066   1.067   7.147  1.3495 -0.8434  0.2723
   26SAPC   C38 3495   3.207   1.202   7.228 -0.3106 -0.2554  0.1610
   26SAPC   H8X 3496   3.131   1.268   7.275 -1.4068  0.1473 -2.1148
   26SAPC   H8Y 3497   3.299   1.261   7.212 -1.0813  0.7247 -0.7578
   26SAPC   C39 3498   3.243   1.101   7.338  0.0669 -0.2425  0.1010
   26SAPC   H9X 3499   3.295   1.011   7.300  0.0556 -0.8787  1.5505
   26SAPC   H9Y 3500   3.144   1.060   7.366 -0.0559 -0.3964 -0.5561
   26SAPC  C310 3501   3.317   1.175   7.461 -0.0532  0.9212 -0.1558
   26SAPC  H10X 3502   3.243   1.226   7.525 -1.2224  1.3853 -1.8396
   26SAPC  H10Y 3503   3.389   1.257   7.437  0.2628  1.4437  2.4930
   26SAPC  C311 3504   3.384   1.069   7.552 -0.1705 -0.4099  0.2410
   26SAPC  H11X 3505   3.451   1.001   7.495 -1.4810 -1.2369 -0.3170
   26SAPC  H11Y 3506   3.304   1.002   7.591  0.4329  0.0968  2.4676
   26SAPC  C312 3507   3.477   1.129   7.668  0.1201  0.5822  0.8024
   26SAPC  H12X 3508   3.425   1.213   7.719 -0.2708  0.4817  0.5671
   26SAPC  H12Y 3509   3.558   1.181   7.612 -0.5907 -0.5146 -1.2955
   26SAPC  C313 3510   3.541   1.035   7.773 -0.3064  0.0266  0.1185
   26SAPC  H13X 3511   3.604   1.098   7.840  1.6297 -1.5786 -0.1458
   26SAPC  H13Y 3512   3.611   0.966   7.722 -0.3810 -1.0923  1.4994
   26SAPC  C314 3513   3.445   0.955   7.864  0.0411 -0.1304 -0.6319
   26SAPC  H14X 3514   3.511   0.893   7.929  2.4889  0.1213 -2.7588
   26SAPC  H14Y 3515   3.377   0.886   7.809  2.3655 -2.3196 -0.8654
   26SAPC  C315 3516   3.354   1.034   7.958 -1.1133  0.1078  0.5914
   26SAPC  H15X 3517   3.298   0.962   8.020 -0.5075 -0.8358  0.0464
   26SAPC  H15Y 3518   3.279   1.081   7.891 -0.9234  0.0780  0.3574
   26SAPC  C316 3519   3.425   1.136   8.055 -0.3662  0.2369 -0.4624
   26SAPC  H16X 3520   3.351   1.176   8.128 -1.7229 -2.0267 -0.5672
   26SAPC  H16Y 3521   3.472   1.215   7.992  1.5031 -1.1572 -0.8485
   26SAPC  C317 3522   3.544   1.083   8.132 -0.0608  0.3509  0.1765
   26SAPC  H17X 3523   3.628   1.073   8.059 -0.3489  0.8709 -0.2309
   26SAPC  H17Y 3524   3.521   0.982   8.170  1.0912  0.9348  2.4941
   26SAPC  C318 3525   3.581   1.178   8.244 -0.3898 -0.3073  0.0886
   26SAPC  H18X 3526   3.501   1.251   8.269 -0.6707  0.0640 -1.8325
   26SAPC  H18Y 3527   3.666   1.240   8.209 -1.5123  1.3813  0.3209
   26SAPC  H18Z 3528   3.611   1.123   8.336  0.5173  1.5166  0.9213
   27SAPC     N 3529   1.210   1.371   6.522  0.3335  0.0439  0.5354
   27SAPC   C12 3530   1.209   1.253   6.607 -0.1435 -0.2251  0.3256
   27SAPC  H12A 3531   1.218   1.287   6.709  1.2883 -0.7653  0.3839
   27SAPC  H12B 3532   1.293   1.190   6.585 -1.6768 -1.3413 -2.6766
   27SAPC   C13 3533   1.349   1.431   6.498  0.6223 -0.7632 -0.1251
   27SAPC  H13A 3534   1.397   1.466   6.589  0.0629  0.4171 -0.2759
   27SAPC  H13B 3535   1.416   1.349   6.478  0.4042 -1.0304  0.2411
   27SAPC  H13C 3536   1.353   1.509   6.424 -1.7647  0.3656  0.8774
   27SAPC   C14 3537   1.168   1.335   6.375 -0.3098 -0.0714 -0.3727
   27SAPC  H14A 3538   1.226   1.256   6.329  1.4872  1.2669 -0.4893
   27SAPC  H14B 3539   1.063   1.310   6.379 -0.6080  1.3045  0.6543
   27SAPC  H14C 3540   1.179   1.423   6.313 -1.1009  0.7994  0.7183
   27SAPC   C15 3541   1.125   1.479   6.579 -0.4897  0.0832  0.4499
   27SAPC  H15A 3542   1.021   1.455   6.566 -0.0657 -1.2124 -0.6903
   27SAPC  H15B 3543   1.146   1.490   6.685  1.0833  2.7003 -0.0685
   27SAPC  H15C 3544   1.154   1.567   6.523 -0.1891 -0.2390  0.1033
   27SAPC   C11 3545   1.091   1.157   6.607 -0.4462 -0.0763 -0.4056
   27SAPC  H11A 3546   1.103   1.096   6.698 -1.6465 -0.0142 -0.2010
   27SAPC  H11B 3547   1.105   1.089   6.520 -1.5666 -1.3295  0.3880
   27SAPC     P 3548   0.872   1.246   6.741 -0.6406  0.1190  0.2376
   27SAPC   O13 3549   0.893   1.388   6.776 -0.0636 -0.0989  0.1976
   27SAPC   O14 3550   0.728   1.195   6.729 -0.0379  0.1026 -0.9711
   27SAPC   O12 3551   0.960   1.222   6.612 -0.2799 -0.1877 -0.0869
   27SAPC   O11 3552   0.940   1.158   6.863  0.2907  0.1911 -0.0880
   27SAPC    C1 3553   0.863   1.046   6.915 -0.0675 -0.2379  0.2630
   27SAPC    HA 3554   0.762   1.085   6.936  0.1934 -0.0212  1.1384
   27SAPC    HB 3555   0.862   0.959   6.845  1.8405 -0.8602  0.9696
   27SAPC    C2 3556   0.923   1.006   7.052 -0.5209 -0.1701  0.3904
   27SAPC    HS 3557   1.027   0.977   7.028  0.3315  1.2308  2.3263
   27SAPC   O21 3558   0.843   0.904   7.115 -0.4020 -0.0751 -0.4226
   27SAPC   C21 3559   0.870   0.776   7.090 -0.4178  0.5129  0.0442
   27SAPC   O22 3560   0.960   0.736   7.016 -0.4094  0.0199  0.6007
   27SAPC   C22 3561   0.779   0.695   7.175 -0.5547 -0.1673 -0.2232
   27SAPC   H2R 3562   0.780   0.733   7.279  0.6271 -0.0404 -0.2722
   27SAPC   H2S 3563   0.676   0.704   7.135 -0.9498 -0.8047  0.6486
   27SAPC    C3 3564   0.932   1.120   7.153  0.3193 -0.6124 -0.4344
   27SAPC    HX 3565   0.832   1.166   7.162  0.6586 -0.0281  0.3551
   27SAPC    HY 3566   0.994   1.199   7.104 -0.0362  0.7253  1.2255
   27SAPC   O31 3567   0.985   1.067   7.281  0.0612  0.1692  0.1941
   27SAPC   C31 3568   0.904   1.079   7.388  0.4053 -0.0820  0.0395
   27SAPC   O32 3569   0.797   1.132   7.389  0.0999 -0.3015 -0.4246
   27SAPC   C32 3570   0.962   0.997   7.508  0.3806  0.1565 -0.2640
   27SAPC   H2X 3571   1.016   1.070   7.572  0.3872 -0.9547  1.0217
   27SAPC   H2Y 3572   1.027   0.914   7.473  1.0572  0.7158 -0.3461
   27SAPC   C23 3573   0.817   0.545   7.164 -0.2548 -0.6739 -0.8252
   27SAPC   H3R 3574   0.920   0.535   7.206  0.0865  2.8146 -0.6691
   27SAPC   H3S 3575   0.813   0.510   7.059  1.9478  2.2377 -1.9617
   27SAPC   C24 3576   0.728   0.468   7.274  0.5894 -0.1745  0.3762
   27SAPC   H4R 3577   0.755   0.509   7.374  1.9854 -0.8065  0.2742
   27SAPC   H4S 3578   0.768   0.364   7.274  0.9835 -0.0487 -2.0530
   27SAPC   C25 3579   0.583   0.465   7.242 -1.0836  0.0223  0.5917
   27SAPC   H5R 3580   0.568   0.457   7.133 -1.7037 -0.0220  0.6745
   27SAPC   C26 3581   0.476   0.472   7.323 -0.7912  0.4693  0.0214
   27SAPC   H6R 3582   0.369   0.466   7.295 -0.5540 -2.6398 -0.3077
   27SAPC   C27 3583   0.488   0.487   7.476  0.0716  0.2162 -0.3024
   27SAPC   H7R 3584   0.387   0.507   7.518  0.1387 -1.2319  0.5907
   27SAPC   H7S 3585   0.556   0.573   7.495 -1.0354  1.3984 -1.5207
   27SAPC   C28 3586   0.533   0.356   7.538 -0.3674 -0.4013 -0.2522
   27SAPC   H8R 3587   0.570   0.274   7.475  0.2951 -0.8696  0.7280
   27SAPC   C29 3588   0.563   0.354   7.668  0.2581  0.5708 -0.7247
   27SAPC   H9R 3589   0.597   0.256   7.703  0.3223  1.3936  1.6454
   27SAPC  C210 3590   0.541   0.454   7.770 -0.5138  0.3049 -0.0851
   27SAPC  H10R 3591   0.585   0.552   7.747 -0.0442  0.1736  0.2511
   27SAPC  H10S 3592   0.595   0.412   7.857 -2.6774 -0.5002  0.9055
   27SAPC  C211 3593   0.400   0.470   7.825 -0.6336 -0.7080  0.6970
   27SAPC  H11R 3594   0.316   0.448   7.758 -2.3613 -1.0136  2.8724
   27SAPC  C212 3595   0.362   0.491   7.953 -0.6999 -0.4051  0.1959
   27SAPC  H12R 3596   0.258   0.510   7.985 -0.0794  3.1308  0.3937
   27SAPC  C213 3597   0.450   0.517   8.063 -0.3407  0.5398  0.3686
   27SAPC  H13R 3598   0.499   0.617   8.061  2.1475 -0.6005  1.9374
   27SAPC  H13S 3599   0.539   0.452   8.056  0.4736  1.5626  0.9163
   27SAPC  C214 3600   0.381   0.501   8.197 -0.0890  0.4162  0.5506
   27SAPC  H14R 3601   0.371   0.595   8.254 -1.9263  0.8225 -0.4132
   27SAPC  C215 3602   0.347   0.383   8.257  0.0548 -0.3591  0.0952
   27SAPC  H15R 3603   0.295   0.386   8.354  0.5165 -1.1822  0.3754
   27SAPC  C216 3604   0.364   0.245   8.193  0.3557  0.0122 -0.0151
   27SAPC  H16R 3605   0.384   0.262   8.085  0.0336  0.1560 -0.0526
   27SAPC  H16S 3606   0.261   0.205   8.186 -0.6898  2.0552  2.6084
   27SAPC  C217 3607   0.474   0.159   8.245  0.1269  0.0238  0.2344
   27SAPC  H17R 3608   0.568   0.216   8.259  0.1589 -0.1275  0.6510
   27SAPC  H17S 3609   0.502   0.079   8.173  1.1702 -0.5317  1.2180
   27SAPC  C218 3610   0.453   0.096   8.385 -0.2989  0.1795  0.6338
   27SAPC  H18R 3611   0.448   0.165   8.471 -0.3451  0.9695  0.0003
   27SAPC  H18S 3612   0.532   0.021   8.408  2.0340  1.9426 -1.3698
   27SAPC  C219 3613   0.326   0.014   8.382  0.7103  0.4821  0.1213
   27SAPC  H19R 3614   0.301  -0.020   8.280 -1.5124  2.8737 -0.1801
   27SAPC  H19S 3615   0.236   0.075   8.406  0.0434 -0.1622 -0.6943
   27SAPC  C220 3616   0.314  -0.122   8.469 -0.2502  0.0452  0.0986
   27SAPC  H20R 3617   0.403  -0.186   8.453 -0.8083 -1.0941  1.4691
   27SAPC  H20S 3618   0.223  -0.170   8.426 -1.2464  1.5646  0.4515
   27SAPC  H20T 3619   0.308  -0.104   8.578 -0.7540  0.9076 -0.0610
   27SAPC   C33 3620   0.853   0.925   7.587  0.2115 -0.3647  0.7494
   27SAPC   H3X 3621   0.791   0.877   7.508  1.6509 -1.6959  0.3956
   27SAPC   H3Y 3622   0.789   0.996   7.643 -0.7515  0.7427 -1.7359
   27SAPC   C34 3623   0.890   0.804   7.686  0.6082 -0.3706 -0.4950
   27SAPC   H4X 3624   0.973   0.744   7.644  1.2315 -2.0343  2.9621
   27SAPC   H4Y 3625   0.794   0.748   7.689  1.8485 -2.4865  0.7848
   27SAPC   C35 3626   0.919   0.853   7.828  0.3993 -0.0302 -0.1052
   27SAPC   H5X 3627   0.826   0.900   7.866  0.5884 -0.0348  0.3710
   27SAPC   H5Y 3628   0.995   0.934   7.835 -0.7740  1.0115  0.7962
   27SAPC   C36 3629   0.945   0.736   7.924 -0.4069 -0.1653  0.4292
   27SAPC   H6X 3630   1.038   0.686   7.891  0.1773  0.8900  0.4656
   27SAPC   H6Y 3631   0.862   0.663   7.918 -0.0445 -0.8300  3.0365
   27SAPC   C37 3632   0.976   0.782   8.067  0.5003 -0.1716 -0.1340
   27SAPC   H7X 3633   0.891   0.841   8.107  1.2683 -0.0168  1.2667
   27SAPC   H7Y 3634   1.065   0.848   8.062 -0.1715  0.7393 -0.1952
   27SAPC   C38 3635   1.003   0.667   8.162  0.0123  0.4567 -0.3307
   27SAPC   H8X 3636   1.027   0.720   8.257 -1.1057  1.5248 -0.6306
   27SAPC   H8Y 3637   1.085   0.596   8.135 -0.3378 -0.4917  1.0200
   27SAPC   C39 3638   0.882   0.578   8.194 -0.5914 -0.6345 -0.1162
   27SAPC   H9X 3639   0.830   0.536   8.105 -0.9756 -1.3367  0.4327
   27SAPC   H9Y 3640   0.804   0.640   8.242 -0.9045  0.8572 -2.4926
   27SAPC  C310 3641   0.924   0.464   8.290  0.6341  0.4464  0.3853
   27SAPC  H10X 3642   0.986   0.499   8.375 -0.1104  0.6197  0.8541
   27SAPC  H10Y 3643   0.984   0.390   8.232 -0.7050  0.2152 -0.7262
   27SAPC  C311 3644   0.809   0.390   8.363 -0.7520 -0.0987 -0.0969
   27SAPC  H11X 3645   0.850   0.294   8.400  0.9537  0.7906  0.3505
   27SAPC  H11Y 3646   0.733   0.364   8.286 -1.1887  0.1245  0.2587
   27SAPC  C312 3647   0.736   0.472   8.473  0.7149  0.1262 -0.1205
   27SAPC  H12X 3648   0.679   0.557   8.429 -0.6321 -0.2384  0.8872
   27SAPC  H12Y 3649   0.807   0.498   8.555  1.9821 -0.1349 -1.1163
   27SAPC  C313 3650   0.629   0.381   8.542  0.9773 -0.4930  0.8499
   27SAPC  H13X 3651   0.692   0.307   8.596 -0.2780 -1.8890  0.4115
   27SAPC  H13Y 3652   0.566   0.333   8.465 -0.7158  1.2703  1.0675
   27SAPC  C314 3653   0.535   0.457   8.638  0.9931 -0.0214 -0.9774
   27SAPC  H14X 3654   0.476   0.526   8.575  1.6989  3.2007  1.7179
   27SAPC  H14Y 3655   0.600   0.516   8.706  0.8466  0.2705 -1.0882
   27SAPC  C315 3656   0.444   0.364   8.718 -0.2435 -0.6936  0.4585
   27SAPC  H15X 3657   0.513   0.298   8.776  1.6292 -2.8618 -3.9914
   27SAPC  H15Y 3658   0.380   0.302   8.653  0.3980  0.4708 -1.3047
   27SAPC  C316 3659   0.346   0.430   8.819  0.2384  0.4384 -0.4401
   27SAPC  H16X 3660   0.271   0.483   8.756  0.3073  0.1451 -0.7696
   27SAPC  H16Y 3661   0.406   0.512   8.864 -0.9239  0.8328  0.3870
   27SAPC  C317 3662   0.293   0.333   8.925  0.3878  0.1008  0.0857
   27SAPC  H17X 3663   0.377   0.275   8.969 -1.4424 -1.8447  1.0426
   27SAPC  H17Y 3664   0.233   0.266   8.861  2.0991  0.5620 -2.0506
   27SAPC  C318 3665   0.211   0.402   9.045  0.0250 -0.4890  0.3474
   27SAPC  H18X 3666   0.135   0.466   8.996  1.3793  1.5047  0.8146
   27SAPC  H18Y 3667   0.281   0.452   9.115 -0.4480 -1.5785  1.6084
   27SAPC  H18Z 3668   0.147   0.326   9.094 -1.6336  1.5972  1.4534
   28SAPC     N 3669   6.167   5.441   6.242  0.6280 -0.4409 -0.2094
   28SAPC   C12 3670   6.207   5.365   6.365 -0.6564  0.0170 -0.2573
   28SAPC  H12A 3671   6.121   5.367   6.430 -0.4019  0.5033  0.0778
   28SAPC  H12B 3672   6.285   5.415   6.422 -0.6314  1.8216 -1.8248
   28SAPC   C13 3673   6.276   5.436   6.140 -0.4490  0.8428 -0.3710
   28SAPC  H13A 3674   6.307   5.335   6.120  1.0663  0.9807  1.1413
   28SAPC  H13B 3675   6.254   5.487   6.047 -2.0490 -1.1288 -1.1027
   28SAPC  H13C 3676   6.359   5.487   6.187 -0.7225  0.1872  0.8433
   28SAPC   C14 3677   6.043   5.377   6.186  0.5347  0.0551 -0.9246
   28SAPC  H14A 3678   6.067   5.276   6.156  4.2783  1.0067 -1.4142
   28SAPC  H14B 3679   5.960   5.376   6.255  1.0289  1.6286 -0.2954
   28SAPC  H14C 3680   6.009   5.426   6.096 -1.9744  0.9518  0.4539
   28SAPC   C15 3681   6.137   5.581   6.281 -0.3724 -0.3329 -0.3901
   28SAPC  H15A 3682   6.119   5.631   6.187  2.5344  0.8062 -0.4147
   28SAPC  H15B 3683   6.043   5.590   6.332 -0.3022  0.8800 -0.4505
   28SAPC  H15C 3684   6.208   5.629   6.347  0.9986 -0.6296 -1.6145
   28SAPC   C11 3685   6.272   5.213   6.360  0.4285  0.4811  0.5482
   28SAPC  H11A 3686   6.196   5.152   6.306  1.1236 -0.1201  0.2375
   28SAPC  H11B 3687   6.267   5.184   6.467  0.6186 -0.9714  0.1655
   28SAPC     P 3688   6.527   5.275   6.376  0.4545  0.2933 -0.1111
   28SAPC   O13 3689   6.634   5.279   6.279  0.4199  0.0694  0.9756
   28SAPC   O14 3690   6.493   5.405   6.445 -0.7900 -0.5047  0.0717
   28SAPC   O12 3691   6.403   5.211   6.298  0.3135  0.2850 -0.4140
   28SAPC   O11 3692   6.590   5.179   6.488 -0.0011  0.0153  0.0909
   28SAPC    C1 3693   6.592   5.040   6.457 -0.0027  0.4295 -0.0814
   28SAPC    HA 3694   6.505   5.008   6.395 -0.7701 -0.8373  1.6045
   28SAPC    HB 3695   6.678   5.020   6.390 -0.2292  1.0702 -0.5745
   28SAPC    C2 3696   6.599   4.954   6.583 -0.3794  0.1278 -0.7389
   28SAPC    HS 3697   6.572   4.847   6.570 -2.1185  0.0768  2.7194
   28SAPC   O21 3698   6.520   5.025   6.682  0.3146 -0.0557  0.0600
   28SAPC   C21 3699   6.388   5.028   6.660 -0.0424  0.5613 -0.3699
   28SAPC   O22 3700   6.335   4.967   6.570  0.2537 -0.1217 -0.2691
   28SAPC   C22 3701   6.314   5.117   6.763 -0.4907 -0.1208 -1.3421
   28SAPC   H2R 3702   6.383   5.176   6.827 -1.9799  1.2991 -1.0337
   28SAPC   H2S 3703   6.272   5.196   6.698 -1.5653  1.1790  0.8939
   28SAPC    C3 3704   6.745   4.937   6.635 -0.4171 -0.0700  0.5024
   28SAPC    HX 3705   6.778   5.043   6.644 -0.3455  0.1358 -1.9031
   28SAPC    HY 3706   6.813   4.897   6.557 -1.1899  0.8110 -0.6332
   28SAPC   O31 3707   6.746   4.858   6.753 -0.2704 -0.3705 -0.1076
   28SAPC   C31 3708   6.735   4.925   6.863  0.2339  0.5307  0.5552
   28SAPC   O32 3709   6.737   5.048   6.876 -0.6142  0.3186  0.3956
   28SAPC   C32 3710   6.711   4.824   6.980  0.3548  0.0334 -0.2265
   28SAPC   H2X 3711   6.767   4.872   7.063  0.3471 -0.2638 -0.0496
   28SAPC   H2Y 3712   6.780   4.741   6.954  0.2828  0.3262 -1.3916
   28SAPC   C23 3713   6.190   5.067   6.844  0.3357  0.0108  0.0333
   28SAPC   H3R 3714   6.125   5.014   6.772  1.6677  0.6201 -1.6504
   28SAPC   H3S 3715   6.136   5.163   6.862  0.5665  0.0395  0.5896
   28SAPC   C24 3716   6.215   5.002   6.979  0.0379 -0.1511 -0.2436
   28SAPC   H4R 3717   6.117   4.987   7.029  0.8677 -1.9094  0.8821
   28SAPC   H4S 3718   6.256   4.899   6.971  0.7560 -0.1130  2.4030
   28SAPC   C25 3719   6.302   5.076   7.081 -0.5483  0.6846  0.2448
   28SAPC   H5R 3720   6.402   5.100   7.044 -0.5179  1.9049  1.0739
   28SAPC   C26 3721   6.283   5.093   7.213 -0.4444 -0.2172 -0.2903
   28SAPC   H6R 3722   6.363   5.150   7.261 -1.3413 -0.3364  1.3612
   28SAPC   C27 3723   6.164   5.054   7.297 -0.2951 -0.3201  0.4938
   28SAPC   H7R 3724   6.077   5.036   7.230 -1.7155  1.5948  1.8260
   28SAPC   H7S 3725   6.134   5.141   7.358 -2.9227 -0.7461 -0.1461
   28SAPC   C28 3726   6.175   4.931   7.391 -0.0539  0.1719 -0.4625
   28SAPC   H8R 3727   6.165   4.833   7.342 -1.2183 -0.7565  1.5327
   28SAPC   C29 3728   6.187   4.933   7.523  0.7339 -0.1799 -0.4468
   28SAPC   H9R 3729   6.185   4.833   7.568  1.1901 -0.4269 -0.9792
   28SAPC  C210 3730   6.194   5.052   7.621  0.3329  0.1323 -0.2598
   28SAPC  H10R 3731   6.107   5.051   7.690  0.2621 -0.1188 -0.3502
   28SAPC  H10S 3732   6.188   5.147   7.565  2.6039 -0.6882 -1.9734
   28SAPC  C211 3733   6.322   5.051   7.693 -0.4112  0.0455  0.1218
   28SAPC  H11R 3734   6.405   5.075   7.626 -1.8895  1.3710 -1.2745
   28SAPC  C212 3735   6.350   5.037   7.828 -0.2092  0.7183  0.5438
   28SAPC  H12R 3736   6.455   5.045   7.860 -0.3386  2.4600  0.5806
   28SAPC  C213 3737   6.251   5.012   7.937 -0.1984  0.0028 -0.3684
   28SAPC  H13R 3738   6.306   5.001   8.033 -0.6528  0.9582  0.0117
   28SAPC  H13S 3739   6.200   4.914   7.931 -0.6694  0.1506  0.8625
   28SAPC  C214 3740   6.154   5.129   7.956  0.2306  0.2378 -0.2005
   28SAPC  H14R 3741   6.154   5.201   7.873 -0.8442  0.3249 -0.1403
   28SAPC  C215 3742   6.081   5.148   8.071  1.5633 -0.3937 -0.8263
   28SAPC  H15R 3743   6.018   5.238   8.065 -0.8116 -1.8956  1.0569
   28SAPC  C216 3744   6.076   5.065   8.200  0.3266 -0.7431  0.7205
   28SAPC  H16R 3745   6.155   4.986   8.199 -0.1687 -1.2410 -1.1320
   28SAPC  H16S 3746   5.974   5.022   8.191  0.7227 -1.4967 -0.3392
   28SAPC  C217 3747   6.090   5.142   8.340  0.1424 -0.4045 -0.5962
   28SAPC  H17R 3748   5.998   5.201   8.355 -0.2811 -1.0118 -0.8166
   28SAPC  H17S 3749   6.177   5.212   8.341  1.0552 -1.5352  1.3501
   28SAPC  C218 3750   6.110   5.040   8.457  0.8528 -0.0328 -0.4200
   28SAPC  H18R 3751   6.187   4.961   8.441  1.5919  0.5081  0.3860
   28SAPC  H18S 3752   6.016   4.981   8.460 -0.3143  1.8638  2.4391
   28SAPC  C219 3753   6.123   5.108   8.594  0.5963  0.7493 -0.4882
   28SAPC  H19R 3754   6.151   5.033   8.671  0.3545  0.5739 -0.5687
   28SAPC  H19S 3755   6.025   5.154   8.616 -0.6240 -1.0424 -1.9334
   28SAPC  C220 3756   6.237   5.212   8.603  0.3263 -0.6711 -0.0908
   28SAPC  H20R 3757   6.217   5.295   8.532 -0.4100 -1.6372 -1.0294
   28SAPC  H20S 3758   6.333   5.164   8.572  1.6393  1.1969  1.0023
   28SAPC  H20T 3759   6.259   5.258   8.701 -3.4254  0.2907  0.3517
   28SAPC   C33 3760   6.565   4.783   6.988  0.9298 -0.1602 -0.0822
   28SAPC   H3X 3761   6.525   4.749   6.890  0.3460  0.2183  0.0261
   28SAPC   H3Y 3762   6.507   4.871   7.022  0.9058 -0.4376  0.6100
   28SAPC   C34 3763   6.540   4.668   7.079 -0.1024 -0.0264 -0.0338
   28SAPC   H4X 3764   6.607   4.585   7.048  0.6648  0.2791  0.7812
   28SAPC   H4Y 3765   6.441   4.620   7.069  0.4928 -1.5164  1.0094
   28SAPC   C35 3766   6.560   4.703   7.234  0.5590 -0.0612 -0.2992
   28SAPC   H5X 3767   6.475   4.768   7.265 -1.2580 -1.5326 -2.0596
   28SAPC   H5Y 3768   6.655   4.758   7.244  1.4805 -1.4013 -1.4277
   28SAPC   C36 3769   6.564   4.584   7.332  0.4426 -0.5485 -0.3122
   28SAPC   H6X 3770   6.664   4.537   7.336  1.2019  0.9831 -0.6756
   28SAPC   H6Y 3771   6.496   4.501   7.302 -0.1621 -0.5973  1.1346
   28SAPC   C37 3772   6.517   4.642   7.468 -0.2565  0.5139 -0.2644
   28SAPC   H7X 3773   6.418   4.683   7.441 -0.8650 -1.3181 -0.9412
   28SAPC   H7Y 3774   6.576   4.727   7.508  0.1107  0.0858  0.1119
   28SAPC   C38 3775   6.496   4.530   7.579  0.4913  0.1255 -0.5396
   28SAPC   H8X 3776   6.426   4.452   7.541 -1.4082  0.9468  1.2434
   28SAPC   H8Y 3777   6.450   4.572   7.670 -0.6144  0.5476 -1.2815
   28SAPC   C39 3778   6.634   4.487   7.629  0.2459  0.0698 -0.2117
   28SAPC   H9X 3779   6.678   4.582   7.665  1.1365 -0.1691 -0.6565
   28SAPC   H9Y 3780   6.691   4.447   7.542  2.9598  0.9230  1.1230
   28SAPC  C310 3781   6.614   4.368   7.724  0.1461 -0.7121  0.7267
   28SAPC  H10X 3782   6.551   4.401   7.809 -1.3996  2.1531 -1.4492
   28SAPC  H10Y 3783   6.716   4.343   7.760  1.0188  1.7971  0.1287
   28SAPC  C311 3784   6.564   4.245   7.658  0.2060 -0.1191  0.3088
   28SAPC  H11X 3785   6.602   4.231   7.554  0.1452 -0.3588  0.3193
   28SAPC  H11Y 3786   6.455   4.249   7.635  0.4021 -0.6849 -0.7858
   28SAPC  C312 3787   6.583   4.119   7.750  0.1052 -0.2459 -0.1707
   28SAPC  H12X 3788   6.687   4.118   7.788  0.7008  1.6522 -1.6885
   28SAPC  H12Y 3789   6.559   4.023   7.699 -1.8644 -1.0303  2.1046
   28SAPC  C313 3790   6.486   4.115   7.877 -0.1315  0.4408 -0.1173
   28SAPC  H13X 3791   6.390   4.086   7.829  0.5423 -0.5574 -0.8689
   28SAPC  H13Y 3792   6.477   4.216   7.921 -1.9754 -0.0405  0.6529
   28SAPC  C314 3793   6.539   4.015   7.978  0.4337  0.1267 -0.0608
   28SAPC  H14X 3794   6.541   3.919   7.922  3.4601 -1.1112  2.0665
   28SAPC  H14Y 3795   6.477   4.015   8.070 -1.5611  0.3783 -1.3840
   28SAPC  C315 3796   6.675   4.052   8.045 -0.7757 -0.4859  0.2786
   28SAPC  H15X 3797   6.658   4.141   8.110 -3.1258 -0.0919 -0.8042
   28SAPC  H15Y 3798   6.754   4.077   7.970 -0.5709 -0.3822  0.5293
   28SAPC  C316 3799   6.737   3.949   8.131  0.3080  0.3517  0.1868
   28SAPC  H16X 3800   6.654   3.916   8.197 -1.1145  0.6120 -1.4510
   28SAPC  H16Y 3801   6.813   3.997   8.196 -0.6114  0.3675  1.2458
   28SAPC  C317 3802   6.786   3.829   8.046  0.0875 -0.1502 -0.5757
   28SAPC  H17X 3803   6.846   3.861   7.958  0.4978  2.9868  0.7955
   28SAPC  H17Y 3804   6.694   3.778   8.008 -0.4527  1.3725 -1.3354
   28SAPC  C318 3805   6.874   3.732   8.130 -0.1210  0.2453 -0.1072
   28SAPC  H18X 3806   6.954   3.782   8.188  0.2082 -0.8141  0.3621
   28SAPC  H18Y 3807   6.915   3.657   8.059 -4.0976 -1.1117 -1.1153
   28SAPC  H18Z 3808   6.813   3.665   8.194  1.9278 -1.3598  0.2136
   29SAPC     N 3809   2.796   2.059   6.157 -0.5518  0.3111 -0.1102
   29SAPC   C12 3810   2.687   1.959   6.194 -0.1033  1.1152  0.8745
   29SAPC  H12A 3811   2.733   1.865   6.219  0.0433  1.0202  0.2717
   29SAPC  H12B 3812   2.625   1.938   6.108  4.2993 -1.6180 -1.8355
   29SAPC   C13 3813   2.736   2.200   6.139  0.0459 -0.1903 -0.4357
   29SAPC  H13A 3814   2.811   2.271   6.109 -1.3905  1.1381 -0.9492
   29SAPC  H13B 3815   2.656   2.199   6.066  0.1011 -1.7990 -0.5096
   29SAPC  H13C 3816   2.693   2.228   6.234  2.2802  3.6083 -0.4571
   29SAPC   C14 3817   2.911   2.072   6.261 -0.3618 -0.9184 -0.3707
   29SAPC  H14A 3818   2.958   1.975   6.270  0.2387 -0.5919  0.0624
   29SAPC  H14B 3819   2.990   2.135   6.224  1.1724 -3.7964 -2.1403
   29SAPC  H14C 3820   2.884   2.112   6.358  1.1668  2.1123 -1.1198
   29SAPC   C15 3821   2.858   2.025   6.030 -0.1696 -0.3365  0.0930
   29SAPC  H15A 3822   2.786   2.043   5.952  0.3904 -0.5352 -0.4766
   29SAPC  H15B 3823   2.944   2.086   6.006  0.5527 -1.0801  0.7397
   29SAPC  H15C 3824   2.889   1.921   6.037 -1.4759 -0.6766  0.8720
   29SAPC   C11 3825   2.589   1.986   6.303 -0.2890 -0.4283  0.8300
   29SAPC  H11A 3826   2.647   2.046   6.377  0.0116  0.5730 -0.2139
   29SAPC  H11B 3827   2.556   1.895   6.357 -1.9640 -0.2717  0.1021
   29SAPC     P 3828   2.347   2.078   6.342  0.0639  0.0025  0.1495
   29SAPC   O13 3829   2.367   2.194   6.428 -0.0131 -0.5243 -0.0942
   29SAPC   O14 3830   2.241   2.069   6.239 -0.0639  0.1290 -0.0061
   29SAPC   O12 3831   2.480   2.058   6.262  0.2472 -0.4075  0.3581
   29SAPC   O11 3832   2.331   1.946   6.432  0.4294 -0.0532 -0.5972
   29SAPC    C1 3833   2.281   1.962   6.561  0.4120  0.2544 -0.5321
   29SAPC    HA 3834   2.334   2.035   6.626 -0.6308  0.5520 -0.0027
   29SAPC    HB 3835   2.173   1.988   6.553  0.2072 -0.8085 -1.3020
   29SAPC    C2 3836   2.283   1.826   6.628 -0.3328 -0.7224  0.0517
   29SAPC    HS 3837   2.291   1.840   6.738  0.4304  3.2988 -0.4505
   29SAPC   O21 3838   2.398   1.749   6.586 -0.0474 -0.5225 -0.4164
   29SAPC   C21 3839   2.500   1.752   6.661 -0.1525  0.0220 -0.6637
   29SAPC   O22 3840   2.522   1.829   6.755 -0.5385 -0.2948  0.4687
   29SAPC   C22 3841   2.595   1.639   6.632  0.0156 -0.3665 -0.8903
   29SAPC   H2R 3842   2.541   1.554   6.584 -2.3867  1.7636 -2.0763
   29SAPC   H2S 3843   2.663   1.675   6.552  1.7634 -2.1961 -0.2856
   29SAPC    C3 3844   2.151   1.751   6.608  0.5646  0.1955 -0.1115
   29SAPC    HX 3845   2.144   1.646   6.644 -2.2634  1.5804  3.7796
   29SAPC    HY 3846   2.127   1.756   6.499 -1.7516  1.1880  0.4096
   29SAPC   O31 3847   2.037   1.821   6.665  0.3302  0.3586 -0.1375
   29SAPC   C31 3848   2.027   1.801   6.799 -0.3620  0.0584  0.0627
   29SAPC   O32 3849   2.098   1.730   6.867 -0.5251  0.2660  0.0952
   29SAPC   C32 3850   1.922   1.892   6.864 -0.3227  0.0692  0.9317
   29SAPC   H2X 3851   1.826   1.844   6.837  0.5395 -1.4912  0.5777
   29SAPC   H2Y 3852   1.941   1.997   6.834  1.3599 -0.4912 -0.0699
   29SAPC   C23 3853   2.680   1.589   6.750 -0.4335  0.3117  0.1255
   29SAPC   H3R 3854   2.613   1.568   6.837 -1.4650 -1.0728 -0.9682
   29SAPC   H3S 3855   2.749   1.669   6.783 -1.2739  0.9403  0.3959
   29SAPC   C24 3856   2.756   1.462   6.722 -0.4583 -0.0110 -0.4554
   29SAPC   H4R 3857   2.846   1.465   6.788 -1.2854  1.8941  0.6353
   29SAPC   H4S 3858   2.783   1.466   6.614  0.0237 -0.5204 -0.3515
   29SAPC   C25 3859   2.668   1.338   6.729  1.0050 -0.1140 -0.5706
   29SAPC   H5R 3860   2.627   1.296   6.636 -0.8742 -1.0422  0.6490
   29SAPC   C26 3861   2.648   1.265   6.836 -0.1089  0.0904 -0.0732
   29SAPC   H6R 3862   2.590   1.172   6.837 -2.3192  1.4117 -0.8553
   29SAPC   C27 3863   2.704   1.291   6.975 -0.1325 -0.2993 -0.1046
   29SAPC   H7R 3864   2.734   1.397   6.991 -0.3363 -0.2928  0.2517
   29SAPC   H7S 3865   2.804   1.244   6.982 -0.8085 -1.6757  0.7075
   29SAPC   C28 3866   2.628   1.246   7.095  0.3025  0.3938 -0.3313
   29SAPC   H8R 3867   2.519   1.256   7.080 -0.1037 -2.3595  0.6019
   29SAPC   C29 3868   2.667   1.218   7.214 -0.5092  0.6020 -0.9543
   29SAPC   H9R 3869   2.597   1.185   7.292  0.2765  0.3779 -0.3357
   29SAPC  C210 3870   2.806   1.211   7.276 -1.1378 -0.4835 -0.4220
   29SAPC  H10R 3871   2.866   1.154   7.201 -0.4106  0.7131 -0.7516
   29SAPC  H10S 3872   2.801   1.145   7.366  2.9776  0.1421  0.3451
   29SAPC  C211 3873   2.870   1.346   7.300 -0.3282  0.3609 -0.8554
   29SAPC  H11R 3874   2.890   1.417   7.219  2.4334  0.7345  0.1095
   29SAPC  C212 3875   2.925   1.384   7.417 -0.1709  0.0835 -0.3861
   29SAPC  H12R 3876   2.959   1.488   7.426 -1.4061  0.2666  2.7877
   29SAPC  C213 3877   2.942   1.309   7.547  0.1881  0.4115 -1.3066
   29SAPC  H13R 3878   3.049   1.291   7.571  0.7524  2.2683 -2.3276
   29SAPC  H13S 3879   2.895   1.208   7.545 -0.4980  0.6570  1.1064
   29SAPC  C214 3880   2.871   1.381   7.664 -0.3030  0.3378 -0.1134
   29SAPC  H14R 3881   2.764   1.403   7.652  0.3177  2.8165 -1.4747
   29SAPC  C215 3882   2.938   1.415   7.780  1.0361  0.0585 -0.1129
   29SAPC  H15R 3883   2.875   1.443   7.866  0.7120  0.7541 -0.5764
   29SAPC  C216 3884   3.079   1.395   7.824  0.9111  0.1797  0.0030
   29SAPC  H16R 3885   3.121   1.492   7.857  1.7417  0.5587 -2.1068
   29SAPC  H16S 3886   3.146   1.357   7.744 -1.1395 -1.7691 -0.8571
   29SAPC  C217 3887   3.094   1.295   7.947  0.2330  0.1591 -0.7139
   29SAPC  H17R 3888   3.203   1.294   7.969  0.1093 -1.2567 -0.1142
   29SAPC  H17S 3889   3.072   1.189   7.924 -2.0093  0.2155  1.0340
   29SAPC  C218 3890   3.019   1.343   8.067  0.4316  0.1842  0.1476
   29SAPC  H18R 3891   2.916   1.319   8.036  0.7109  0.3591 -0.9392
   29SAPC  H18S 3892   3.036   1.448   8.099 -1.8233  0.9659 -1.1226
   29SAPC  C219 3893   3.060   1.263   8.185 -1.6477  0.2038  0.2416
   29SAPC  H19R 3894   3.088   1.160   8.155  1.1379  0.8024  0.6457
   29SAPC  H19S 3895   2.974   1.263   8.256 -1.2688  0.4267  0.7104
   29SAPC  C220 3896   3.172   1.341   8.258 -0.5486 -0.5866  0.0798
   29SAPC  H20R 3897   3.218   1.269   8.329  0.8602  0.6985  0.4978
   29SAPC  H20S 3898   3.148   1.440   8.301  0.5684  0.2687 -1.2101
   29SAPC  H20T 3899   3.243   1.371   8.178  0.7606 -0.4797  1.2586
   29SAPC   C33 3900   1.938   1.898   7.018 -0.5890 -0.2842  0.5811
   29SAPC   H3X 3901   2.042   1.936   7.025 -0.4466 -0.6696  0.6008
   29SAPC   H3Y 3902   1.920   1.798   7.065 -1.4717 -0.5355 -0.2615
   29SAPC   C34 3903   1.852   2.004   7.086 -0.4772 -0.2218 -0.7930
   29SAPC   H4X 3904   1.749   1.962   7.092 -0.8348  0.7443  0.0821
   29SAPC   H4Y 3905   1.852   2.109   7.050  1.7495  0.0931  0.0900
   29SAPC   C35 3906   1.882   2.014   7.238  0.4321  0.2615  0.5975
   29SAPC   H5X 3907   1.976   2.072   7.251 -0.4257  1.5987  0.8428
   29SAPC   H5Y 3908   1.903   1.910   7.271 -1.3271 -0.0587  0.7623
   29SAPC   C36 3909   1.778   2.084   7.332  1.1597 -0.0232  0.2770
   29SAPC   H6X 3910   1.680   2.040   7.306  1.3052 -0.9300  1.1987
   29SAPC   H6Y 3911   1.773   2.192   7.305 -2.4285  0.1170  1.3382
   29SAPC   C37 3912   1.807   2.054   7.477 -0.1143 -0.2976 -0.7704
   29SAPC   H7X 3913   1.889   2.123   7.506 -0.0758 -0.7035  0.1234
   29SAPC   H7Y 3914   1.821   1.944   7.484  3.6274  0.1977  1.1791
   29SAPC   C38 3915   1.694   2.087   7.569 -0.0620  0.4883  0.1438
   29SAPC   H8X 3916   1.611   2.021   7.536 -0.4040  0.8025  0.3801
   29SAPC   H8Y 3917   1.672   2.195   7.562  2.6876  0.9964 -1.7355
   29SAPC   C39 3918   1.724   2.048   7.715 -0.3030 -0.0790 -0.4018
   29SAPC   H9X 3919   1.826   2.082   7.742 -1.3041  2.1556  0.6475
   29SAPC   H9Y 3920   1.734   1.937   7.726  0.4531 -0.2490 -2.4666
   29SAPC  C310 3921   1.614   2.085   7.824 -0.2742 -0.4778 -1.6116
   29SAPC  H10X 3922   1.535   2.008   7.832  2.1485 -2.9052 -0.4584
   29SAPC  H10Y 3923   1.555   2.176   7.802 -0.1598 -0.2540 -1.0125
   29SAPC  C311 3924   1.690   2.110   7.958  0.3045  0.8396 -0.2641
   29SAPC  H11X 3925   1.623   2.179   8.013  0.5938  1.1436 -0.2929
   29SAPC  H11Y 3926   1.779   2.172   7.934  1.6274 -0.3796  1.3938
   29SAPC  C312 3927   1.712   1.985   8.042 -0.1133 -1.3789  0.7637
   29SAPC  H12X 3928   1.801   1.932   8.004  1.0409  1.0367 -0.0416
   29SAPC  H12Y 3929   1.623   1.920   8.034 -0.3660 -1.1388  1.5114
   29SAPC  C313 3930   1.733   2.025   8.184 -0.6001  0.1617 -0.0546
   29SAPC  H13X 3931   1.646   2.091   8.208 -2.2975 -1.3787 -1.7850
   29SAPC  H13Y 3932   1.823   2.090   8.188 -0.5068  0.0996 -1.0525
   29SAPC  C314 3933   1.747   1.894   8.272 -0.4738 -0.8389  0.1770
   29SAPC  H14X 3934   1.820   1.829   8.218  0.4415 -0.8525  1.4222
   29SAPC  H14Y 3935   1.652   1.838   8.281 -0.5296 -0.6744  0.5880
   29SAPC  C315 3936   1.812   1.925   8.408  0.7626  0.5727 -0.0777
   29SAPC  H15X 3937   1.731   1.986   8.455  2.1879  0.5917  2.4612
   29SAPC  H15Y 3938   1.895   1.997   8.393  0.2774  1.3368  0.8185
   29SAPC  C316 3939   1.862   1.803   8.476  0.2780 -0.4449 -0.7209
   29SAPC  H16X 3940   1.930   1.755   8.403  0.9167 -0.0723 -0.3752
   29SAPC  H16Y 3941   1.775   1.734   8.482 -0.3765  0.4757  0.8641
   29SAPC  C317 3942   1.925   1.823   8.618  0.2454  0.4412  0.4574
   29SAPC  H17X 3943   1.867   1.885   8.690  0.8846  0.4341  0.9870
   29SAPC  H17Y 3944   2.025   1.866   8.596  1.2310 -1.3289  1.3084
   29SAPC  C318 3945   1.954   1.679   8.675 -0.2176  0.0547  0.6305
   29SAPC  H18X 3946   1.978   1.602   8.600  0.1116 -2.5693  3.3414
   29SAPC  H18Y 3947   1.865   1.645   8.733 -0.1720  0.2101  0.7937
   29SAPC  H18Z 3948   2.034   1.685   8.752  0.9791  1.0009 -0.6749
   30SAPC     N 3949   3.529   2.163   5.801 -0.4352  0.0562  0.2617
   30SAPC   C12 3950   3.581   2.030   5.750  0.4947  0.0295  0.2583
   30SAPC  H12A 3951   3.613   2.045   5.647 -1.5129 -2.2678 -0.7514
   30SAPC  H12B 3952   3.503   1.956   5.758  1.9126 -1.7111 -1.5228
   30SAPC   C13 3953   3.649   2.251   5.840 -0.4720  0.9382  0.0133
   30SAPC  H13A 3954   3.618   2.340   5.892 -0.8558  0.1774  1.1237
   30SAPC  H13B 3955   3.719   2.202   5.907  0.4925  1.2003 -0.7963
   30SAPC  H13C 3956   3.707   2.284   5.756  0.0828  0.1689  0.0830
   30SAPC   C14 3957   3.461   2.234   5.692 -0.2831 -0.3299  0.1853
   30SAPC  H14A 3958   3.519   2.271   5.608 -1.4526 -0.7184 -0.8194
   30SAPC  H14B 3959   3.381   2.172   5.652 -0.6930 -0.7425  1.6285
   30SAPC  H14C 3960   3.428   2.325   5.738  0.9200  0.2437 -0.0600
   30SAPC   C15 3961   3.447   2.140   5.927  0.1314  0.5291  0.3461
   30SAPC  H15A 3962   3.496   2.078   6.001 -0.9786 -2.4141 -1.2829
   30SAPC  H15B 3963   3.416   2.230   5.977  2.3888  0.8791  1.1663
   30SAPC  H15C 3964   3.357   2.084   5.903  1.2565 -0.6387 -1.2903
   30SAPC   C11 3965   3.694   1.968   5.844 -0.1155  0.0248  0.1125
   30SAPC  H11A 3966   3.782   2.034   5.857 -0.5774  0.2959  2.0822
   30SAPC  H11B 3967   3.730   1.878   5.789  1.2650  1.6118 -1.6612
   30SAPC     P 3968   3.634   1.793   6.025 -0.1086  0.5311  0.6244
   30SAPC   O13 3969   3.512   1.736   5.963 -0.1708  0.1093 -0.2608
   30SAPC   O14 3970   3.761   1.727   5.998 -0.1363  0.3323 -0.7010
   30SAPC   O12 3971   3.645   1.942   5.978  0.4657  0.2429  0.4996
   30SAPC   O11 3972   3.606   1.814   6.179  0.3308 -0.4740  0.2816
   30SAPC    C1 3973   3.642   1.933   6.258 -0.5589 -0.0999  0.5971
   30SAPC    HA 3974   3.640   2.026   6.199 -0.6114 -0.4459  0.0552
   30SAPC    HB 3975   3.570   1.940   6.342 -1.7454 -1.8352 -0.2551
   30SAPC    C2 3976   3.795   1.914   6.310  0.4399 -0.0832  0.3290
   30SAPC    HS 3977   3.860   1.900   6.221 -1.2962  0.6207 -1.0633
   30SAPC   O21 3978   3.793   1.799   6.395 -0.1714  0.3020  0.2641
   30SAPC   C21 3979   3.916   1.749   6.406 -0.8338 -0.2631 -0.0018
   30SAPC   O22 3980   4.010   1.773   6.333  0.0739  0.2221 -0.7260
   30SAPC   C22 3981   3.927   1.646   6.519  0.2007  0.1645 -0.4843
   30SAPC   H2R 3982   3.837   1.648   6.584  0.8481  1.0928  0.3970
   30SAPC   H2S 3983   3.942   1.548   6.470 -0.3655 -0.6461  0.9608
   30SAPC    C3 3984   3.846   2.043   6.380 -0.8993  0.0418 -0.7636
   30SAPC    HX 3985   3.823   2.129   6.313 -1.3534  0.4710 -0.0737
   30SAPC    HY 3986   3.956   2.035   6.385 -0.9263  0.2581  0.2968
   30SAPC   O31 3987   3.783   2.063   6.504 -0.4960  0.3166 -0.1476
   30SAPC   C31 3988   3.848   2.144   6.577 -0.2105 -0.0637 -0.4919
   30SAPC   O32 3989   3.952   2.203   6.550  0.5368 -0.4807  0.6345
   30SAPC   C32 3990   3.784   2.155   6.715  0.1314 -0.1664 -0.4057
   30SAPC   H2X 3991   3.715   2.069   6.723 -1.0326  0.5005 -2.7347
   30SAPC   H2Y 3992   3.727   2.250   6.721 -0.7352 -0.7264  0.2372
   30SAPC   C23 3993   4.048   1.664   6.608 -0.6990  1.0755 -0.6948
   30SAPC   H3R 3994   4.139   1.687   6.548 -0.6183 -0.9932 -1.3862
   30SAPC   H3S 3995   4.076   1.571   6.662  1.3345 -0.1886 -3.7539
   30SAPC   C24 3996   4.032   1.771   6.705  0.3512 -0.4222  0.4248
   30SAPC   H4R 3997   3.960   1.738   6.782  0.2952  1.5818  1.2599
   30SAPC   H4S 3998   3.997   1.859   6.646  0.6657 -0.9493 -0.5518
   30SAPC   C25 3999   4.158   1.811   6.774  0.3604 -0.3805 -0.7464
   30SAPC   H5R 4000   4.245   1.823   6.707 -0.4341 -0.8579 -1.8868
   30SAPC   C26 4001   4.181   1.831   6.906  0.2081 -0.0734 -0.4251
   30SAPC   H6R 4002   4.284   1.850   6.940  1.5026  0.3776 -4.2990
   30SAPC   C27 4003   4.080   1.809   7.011 -0.7993  0.3940  0.3163
   30SAPC   H7R 4004   3.985   1.846   6.967 -0.6063 -0.8111 -1.1814
   30SAPC   H7S 4005   4.089   1.877   7.098  0.5854 -0.4671  0.8611
   30SAPC   C28 4006   4.060   1.672   7.056  0.3569  0.3671  0.7169
   30SAPC   H8R 4007   4.051   1.595   6.977 -2.8082 -1.8784  3.1329
   30SAPC   C29 4008   4.058   1.621   7.181 -0.1109  0.7805  1.4748
   30SAPC   H9R 4009   4.050   1.513   7.199 -0.2017  0.8214  1.6788
   30SAPC  C210 4010   4.091   1.693   7.313 -0.2590  0.0532  0.4215
   30SAPC  H10R 4011   4.005   1.752   7.351 -0.7706  0.8689 -1.8941
   30SAPC  H10S 4012   4.170   1.768   7.294 -1.8504  1.4220 -1.0211
   30SAPC  C211 4013   4.125   1.597   7.428 -0.1448 -0.1958  0.5872
   30SAPC  H11R 4014   4.188   1.518   7.383 -0.5549  0.3284 -0.9342
   30SAPC  C212 4015   4.089   1.598   7.562  0.7877 -0.1655 -0.0646
   30SAPC  H12R 4016   4.137   1.533   7.636 -0.1747 -0.7875  0.0127
   30SAPC  C213 4017   4.012   1.719   7.612 -0.0467 -0.9232  0.0188
   30SAPC  H13R 4018   3.931   1.686   7.681 -0.7055 -0.2875 -0.4495
   30SAPC  H13S 4019   3.952   1.775   7.537  1.9967  0.6576 -0.4831
   30SAPC  C214 4020   4.094   1.825   7.679 -0.1121  0.4403 -0.8590
   30SAPC  H14R 4021   4.156   1.880   7.607 -0.3389  1.4430 -0.3041
   30SAPC  C215 4022   4.112   1.853   7.807  0.1074 -0.1138 -0.2155
   30SAPC  H15R 4023   4.173   1.941   7.833 -0.3396  0.3032 -0.5645
   30SAPC  C216 4024   4.051   1.782   7.934 -0.2285 -0.3892  0.1412
   30SAPC  H16R 4025   3.989   1.696   7.899 -0.0276 -0.6443  0.4195
   30SAPC  H16S 4026   3.988   1.856   7.988  0.9682  2.8188 -2.6401
   30SAPC  C217 4027   4.161   1.739   8.033 -1.3079  0.2568 -0.0536
   30SAPC  H17R 4028   4.226   1.827   8.053 -0.7392 -0.2803  0.4899
   30SAPC  H17S 4029   4.232   1.669   7.986  0.8240  2.7676 -0.7130
   30SAPC  C218 4030   4.111   1.705   8.172  0.2162  0.1433 -0.0014
   30SAPC  H18R 4031   4.194   1.694   8.245  0.8409  1.8494 -0.4267
   30SAPC  H18S 4032   4.062   1.606   8.173 -1.4284  0.9106 -1.6003
   30SAPC  C219 4033   4.003   1.802   8.238 -0.2197  0.1502 -0.5292
   30SAPC  H19R 4034   3.913   1.797   8.173 -0.8847 -2.8217  0.5164
   30SAPC  H19S 4035   4.036   1.907   8.226 -1.3108  0.3777 -1.7743
   30SAPC  C220 4036   3.975   1.777   8.385 -0.4371  0.1578  0.4255
   30SAPC  H20R 4037   3.937   1.674   8.399  0.8463 -0.7318 -2.2878
   30SAPC  H20S 4038   3.890   1.843   8.415 -0.8644 -0.8267  1.4013
   30SAPC  H20T 4039   4.057   1.805   8.454  1.2200 -1.5405 -0.7937
   30SAPC   C33 4040   3.885   2.151   6.838  0.5713 -0.0088  0.0681
   30SAPC   H3X 4041   3.926   2.253   6.852 -2.0479  1.2227 -0.8009
   30SAPC   H3Y 4042   3.969   2.080   6.824  0.5157 -0.6199  2.5697
   30SAPC   C34 4043   3.801   2.114   6.961 -0.0845 -0.0203 -0.2097
   30SAPC   H4X 4044   3.763   2.009   6.957  1.1470 -0.4599 -0.8056
   30SAPC   H4Y 4045   3.708   2.172   6.970 -0.5937 -0.6070 -1.4786
   30SAPC   C35 4046   3.875   2.135   7.099  0.0573 -0.1187 -0.4256
   30SAPC   H5X 4047   3.915   2.238   7.100  0.2977 -0.2144  0.0983
   30SAPC   H5Y 4048   3.968   2.076   7.110  0.0351  0.3228  2.5743
   30SAPC   C36 4049   3.783   2.100   7.216  0.2993 -0.1698 -0.0977
   30SAPC   H6X 4050   3.765   1.990   7.212 -1.5593 -0.0800  3.6105
   30SAPC   H6Y 4051   3.694   2.166   7.218 -0.1495 -0.8173  3.9397
   30SAPC   C37 4052   3.839   2.127   7.359 -0.3629 -0.5993  0.1318
   30SAPC   H7X 4053   3.916   2.206   7.349 -1.3334  0.1346 -1.8193
   30SAPC   H7Y 4054   3.897   2.040   7.397  0.8320  0.9106  1.8504
   30SAPC   C38 4055   3.735   2.161   7.471 -0.8939 -0.3231 -0.2080
   30SAPC   H8X 4056   3.654   2.086   7.454 -0.2960 -1.0690  0.1980
   30SAPC   H8Y 4057   3.684   2.258   7.453  0.0708  0.4123  1.0085
   30SAPC   C39 4058   3.795   2.153   7.608 -0.0425  0.3047 -0.1800
   30SAPC   H9X 4059   3.878   2.227   7.604  0.3417 -0.2408 -3.1898
   30SAPC   H9Y 4060   3.830   2.053   7.642  0.3715  0.3357 -0.5148
   30SAPC  C310 4061   3.693   2.187   7.712  0.9414 -0.5643 -0.2453
   30SAPC  H10X 4062   3.618   2.107   7.730  1.1036 -0.9042 -1.0460
   30SAPC  H10Y 4063   3.632   2.264   7.662  1.3209 -0.3158 -0.3298
   30SAPC  C311 4064   3.740   2.229   7.849 -0.3306  0.0251  0.6674
   30SAPC  H11X 4065   3.647   2.263   7.900  0.0381  0.8889  0.7699
   30SAPC  H11Y 4066   3.810   2.311   7.822 -0.0764  0.2836  2.1040
   30SAPC  C312 4067   3.797   2.112   7.935  0.6879  0.1592 -0.2147
   30SAPC  H12X 4068   3.884   2.067   7.882  0.3905  0.2987 -0.8310
   30SAPC  H12Y 4069   3.713   2.040   7.944  3.3555 -3.0062  0.2692
   30SAPC  C313 4070   3.849   2.164   8.069  0.6473 -0.0805  0.3900
   30SAPC  H13X 4071   3.940   2.222   8.041 -0.2612  0.8633 -0.6360
   30SAPC  H13Y 4072   3.882   2.080   8.134 -1.8762 -2.3656 -1.1830
   30SAPC  C314 4073   3.756   2.246   8.153  0.5213  0.1683  0.1722
   30SAPC  H14X 4074   3.729   2.331   8.086  0.3126 -1.0651 -1.3431
   30SAPC  H14Y 4075   3.807   2.284   8.244 -1.4001  3.7023 -0.1274
   30SAPC  C315 4076   3.628   2.166   8.189 -0.2900 -0.0148  0.8356
   30SAPC  H15X 4077   3.665   2.078   8.247  2.3006  0.7051  0.3223
   30SAPC  H15Y 4078   3.582   2.138   8.092 -0.3997 -1.6956  1.3466
   30SAPC  C316 4079   3.534   2.242   8.279  0.2289 -0.1432 -0.7781
   30SAPC  H16X 4080   3.503   2.326   8.213  2.8358 -1.2517 -3.5571
   30SAPC  H16Y 4081   3.580   2.286   8.369 -0.0280 -0.9265 -0.2558
   30SAPC  C317 4082   3.407   2.170   8.313 -0.2150  0.1811 -0.1081
   30SAPC  H17X 4083   3.427   2.104   8.399 -0.5436  2.6033  1.8889
   30SAPC  H17Y 4084   3.363   2.114   8.227 -0.4902  0.8281 -0.3931
   30SAPC  C318 4085   3.290   2.272   8.354 -0.0742 -0.2910 -0.0518
   30SAPC  H18X 4086   3.240   2.292   8.258  0.3021 -1.1279 -0.4352
   30SAPC  H18Y 4087   3.332   2.366   8.394 -0.9342  0.2574 -0.4346
   30SAPC  H18Z 4088   3.215   2.219   8.417  3.7344 -3.3655  2.1551
   31SAPC     N 4089   5.565   2.619   6.176  0.7153 -0.0349 -0.2936
   31SAPC   C12 4090   5.556   2.611   6.325 -0.2473  0.2219  0.6594
   31SAPC  H12A 4091   5.467   2.664   6.355 -1.3140 -1.0511 -0.1736
   31SAPC  H12B 4092   5.639   2.666   6.367 -1.2876  2.0786  0.3559
   31SAPC   C13 4093   5.679   2.540   6.130 -0.1647 -0.0596  0.2263
   31SAPC  H13A 4094   5.767   2.549   6.192  0.7332  1.4390 -1.2243
   31SAPC  H13B 4095   5.658   2.434   6.117 -3.1823  0.5963 -0.7223
   31SAPC  H13C 4096   5.711   2.582   6.036  1.7785 -0.5936  0.6433
   31SAPC   C14 4097   5.440   2.583   6.104  0.1794 -0.2789  0.1770
   31SAPC  H14A 4098   5.364   2.660   6.101  0.7475  0.2396 -1.7470
   31SAPC  H14B 4099   5.463   2.547   6.005  0.4334  0.5986 -0.0821
   31SAPC  H14C 4100   5.407   2.495   6.158  0.5188 -1.3493 -1.3332
   31SAPC   C15 4101   5.594   2.762   6.139  0.5725  0.0981 -0.0643
   31SAPC  H15A 4102   5.670   2.805   6.203 -0.7335  0.4672  1.2473
   31SAPC  H15B 4103   5.625   2.759   6.035 -2.0580 -2.8780 -0.8592
   31SAPC  H15C 4104   5.504   2.821   6.138  1.3717  1.3373 -0.2715
   31SAPC   C11 4105   5.546   2.478   6.394  0.4105 -0.4189 -0.0224
   31SAPC  H11A 4106   5.568   2.502   6.500  1.6816 -1.5641 -0.0023
   31SAPC  H11B 4107   5.632   2.414   6.363  1.6925 -0.0802  2.7370
   31SAPC     P 4108   5.301   2.461   6.467  0.0902 -0.1806  0.3197
   31SAPC   O13 4109   5.175   2.457   6.403 -0.6208 -0.3270  0.1216
   31SAPC   O14 4110   5.312   2.385   6.591 -0.1249 -0.0793 -0.4597
   31SAPC   O12 4111   5.422   2.414   6.379 -0.2086 -0.3723  0.3543
   31SAPC   O11 4112   5.341   2.610   6.499 -0.3392  0.1560 -0.6855
   31SAPC    C1 4113   5.348   2.670   6.626 -0.2920  0.6461 -0.3794
   31SAPC    HA 4114   5.378   2.595   6.703 -1.9565  0.7474  0.3739
   31SAPC    HB 4115   5.428   2.748   6.629  1.0193 -0.7235  2.6039
   31SAPC    C2 4116   5.219   2.747   6.645  0.3190 -0.4026 -0.6756
   31SAPC    HS 4117   5.240   2.800   6.741 -1.1710  3.0248 -2.1615
   31SAPC   O21 4118   5.101   2.665   6.657 -0.3950  0.6310 -0.1425
   31SAPC   C21 4119   5.083   2.598   6.765  0.1066 -0.1038 -0.4140
   31SAPC   O22 4120   5.153   2.601   6.864  0.4445  0.8696 -0.1705
   31SAPC   C22 4121   4.969   2.501   6.752 -0.0448 -0.0285  0.1702
   31SAPC   H2R 4122   4.895   2.548   6.684  0.6561  0.6463 -0.1413
   31SAPC   H2S 4123   5.022   2.419   6.699 -1.4411 -1.3696  0.8001
   31SAPC    C3 4124   5.192   2.851   6.529 -0.4107  0.1437 -0.6497
   31SAPC    HX 4125   5.164   2.797   6.436  1.5085  2.2464 -2.5194
   31SAPC    HY 4126   5.293   2.897   6.520  1.5133 -3.9275 -0.5917
   31SAPC   O31 4127   5.101   2.951   6.574 -0.1038  0.0439 -0.1443
   31SAPC   C31 4128   4.973   2.931   6.533 -0.2275  0.4466 -0.6484
   31SAPC   O32 4129   4.943   2.845   6.458 -0.0553  0.7167 -0.0372
   31SAPC   C32 4130   4.885   3.041   6.592  0.7329  0.9243 -0.0378
   31SAPC   H2X 4131   4.828   3.084   6.507  1.4902  0.6449 -0.6925
   31SAPC   H2Y 4132   4.955   3.122   6.621  1.3234  0.1888  0.6084
   31SAPC   C23 4133   4.905   2.467   6.889  0.3754 -0.5674 -0.0040
   31SAPC   H3R 4134   4.795   2.473   6.877  0.4964 -2.2415 -2.5196
   31SAPC   H3S 4135   4.928   2.553   6.955 -0.1184 -0.8578  0.5448
   31SAPC   C24 4136   4.952   2.330   6.942  0.3793 -0.2338  0.2366
   31SAPC   H4R 4137   5.062   2.334   6.959  0.6242 -0.4553 -1.2350
   31SAPC   H4S 4138   4.929   2.244   6.876  2.2426  0.7528 -1.7438
   31SAPC   C25 4139   4.883   2.314   7.074 -0.2492 -0.3633  0.2813
   31SAPC   H5R 4140   4.789   2.257   7.062 -0.4519 -0.5109  2.3977
   31SAPC   C26 4141   4.922   2.358   7.193 -0.1706  0.1606  0.2329
   31SAPC   H6R 4142   4.854   2.342   7.278  1.5469 -1.8565  1.2724
   31SAPC   C27 4143   5.049   2.438   7.221 -0.3532  0.3503 -0.1306
   31SAPC   H7R 4144   5.090   2.505   7.142 -0.2846  0.5119  0.0445
   31SAPC   H7S 4145   5.132   2.364   7.219 -1.5734 -1.0273 -1.8529
   31SAPC   C28 4146   5.063   2.501   7.356  0.2457 -0.1603 -0.1072
   31SAPC   H8R 4147   5.059   2.611   7.359 -3.9137 -0.2648  0.1147
   31SAPC   C29 4148   5.098   2.443   7.475 -0.0935  0.8648  1.0191
   31SAPC   H9R 4149   5.111   2.498   7.570  0.5141  1.2267  0.7300
   31SAPC  C210 4150   5.131   2.300   7.503  0.4251 -0.7062  0.2775
   31SAPC  H10R 4151   5.167   2.299   7.608  1.4266  0.7267 -0.0415
   31SAPC  H10S 4152   5.209   2.268   7.432 -1.4457 -2.8175 -0.8919
   31SAPC  C211 4153   5.020   2.206   7.490 -0.0545 -0.2965 -0.0813
   31SAPC  H11R 4154   4.996   2.186   7.384 -2.2558  1.9675 -0.0745
   31SAPC  C212 4155   4.937   2.158   7.584  0.2958  0.1724 -0.5582
   31SAPC  H12R 4156   4.847   2.099   7.560  0.1905  0.0726  0.0627
   31SAPC  C213 4157   4.938   2.193   7.727  0.4566 -0.9594  1.2070
   31SAPC  H13R 4158   5.036   2.193   7.780 -0.0763  0.6167  2.2009
   31SAPC  H13S 4159   4.884   2.109   7.776 -2.1714  0.1124  0.2055
   31SAPC  C214 4160   4.885   2.338   7.738  0.4531  0.2555  0.3037
   31SAPC  H14R 4161   4.871   2.396   7.645  0.0087  1.8853  1.3671
   31SAPC  C215 4162   4.852   2.403   7.851 -0.7661 -0.7013  0.1591
   31SAPC  H15R 4163   4.815   2.506   7.847 -1.9397 -1.1028  0.3980
   31SAPC  C216 4164   4.870   2.340   7.986  0.0867  0.0524 -0.4435
   31SAPC  H16R 4165   4.947   2.261   7.995 -0.5370 -0.6407 -1.1450
   31SAPC  H16S 4166   4.771   2.293   8.005 -0.1915  0.8605  0.1439
   31SAPC  C217 4167   4.907   2.443   8.084 -0.4437  0.2659 -0.2173
   31SAPC  H17R 4168   4.834   2.527   8.088 -0.7096  0.0138  0.3458
   31SAPC  H17S 4169   5.004   2.489   8.057  0.2375 -0.5722  0.7490
   31SAPC  C218 4170   4.906   2.379   8.226 -0.2970  0.4708 -0.3961
   31SAPC  H18R 4171   4.999   2.318   8.226  1.2682  2.7325  1.9425
   31SAPC  H18S 4172   4.815   2.317   8.246 -0.7780  1.3294  0.0901
   31SAPC  C219 4173   4.934   2.464   8.352 -0.2148 -0.8013  0.3904
   31SAPC  H19R 4174   4.918   2.407   8.446 -1.7125  0.6539  1.0397
   31SAPC  H19S 4175   4.856   2.543   8.357  0.9379  0.2805  1.9224
   31SAPC  C220 4176   5.081   2.518   8.357 -0.1706 -0.2683 -0.2233
   31SAPC  H20R 4177   5.161   2.442   8.346  0.2980  0.6213 -3.2411
   31SAPC  H20S 4178   5.094   2.582   8.447 -2.1137 -0.5139  0.2651
   31SAPC  H20T 4179   5.096   2.586   8.271 -0.9618 -0.5429 -0.5788
   31SAPC   C33 4180   4.794   2.990   6.707 -0.0570 -0.0509 -0.4878
   31SAPC   H3X 4181   4.721   3.067   6.740  1.5341  0.8285  1.0836
   31SAPC   H3Y 4182   4.857   2.971   6.796 -0.9869 -0.5535  0.0704
   31SAPC   C34 4183   4.721   2.861   6.682  0.5086 -0.2350  0.4866
   31SAPC   H4X 4184   4.800   2.784   6.688  0.5031 -0.4153 -1.4659
   31SAPC   H4Y 4185   4.672   2.868   6.582 -1.6282 -0.9269  1.4572
   31SAPC   C35 4186   4.619   2.813   6.786  0.2273  0.1915  0.0549
   31SAPC   H5X 4187   4.550   2.733   6.753  0.8562 -0.7408  0.9994
   31SAPC   H5Y 4188   4.546   2.893   6.812 -1.8231 -1.2561 -1.1158
   31SAPC   C36 4189   4.689   2.775   6.921  0.2817 -0.0477 -0.0376
   31SAPC   H6X 4190   4.769   2.845   6.955  0.9622 -1.2765  0.9489
   31SAPC   H6Y 4191   4.745   2.683   6.893 -0.5556 -0.5957  0.0808
   31SAPC   C37 4192   4.585   2.749   7.035  0.4034  1.1127 -0.0604
   31SAPC   H7X 4193   4.508   2.672   7.010  0.6158  0.6060  0.8349
   31SAPC   H7Y 4194   4.536   2.848   7.044 -0.9155  0.5970 -1.3202
   31SAPC   C38 4195   4.649   2.707   7.168  0.0051 -0.1117  0.1359
   31SAPC   H8X 4196   4.737   2.771   7.192  0.8020 -0.7629 -1.0316
   31SAPC   H8Y 4197   4.682   2.601   7.160  1.7995  0.3083  1.5494
   31SAPC   C39 4198   4.550   2.701   7.285  0.1769  0.2025  0.6294
   31SAPC   H9X 4199   4.481   2.615   7.267  0.7293 -0.2234  0.5273
   31SAPC   H9Y 4200   4.498   2.798   7.301 -0.4378 -0.1234  0.6529
   31SAPC  C310 4201   4.615   2.683   7.419 -0.7100 -0.5605 -0.6202
   31SAPC  H10X 4202   4.691   2.762   7.438  2.2811 -2.5815 -3.7717
   31SAPC  H10Y 4203   4.671   2.587   7.425  1.9248  0.8949 -1.0302
   31SAPC  C311 4204   4.515   2.693   7.531  0.1594 -0.3352  0.0449
   31SAPC  H11X 4205   4.442   2.610   7.542  0.4373 -0.6836 -0.6683
   31SAPC  H11Y 4206   4.455   2.786   7.520  0.5776  0.0381  0.8617
   31SAPC  C312 4207   4.575   2.675   7.675  0.0617  0.2905  0.5602
   31SAPC  H12X 4208   4.662   2.744   7.679 -0.9323  1.5563  1.0527
   31SAPC  H12Y 4209   4.610   2.570   7.679 -0.2626  0.1002 -1.2124
   31SAPC  C313 4210   4.488   2.693   7.809 -0.7037 -0.4595 -0.0419
   31SAPC  H13X 4211   4.400   2.626   7.795  0.9044 -2.5230 -0.5476
   31SAPC  H13Y 4212   4.457   2.798   7.824 -4.7288 -1.0760 -2.9985
   31SAPC  C314 4213   4.564   2.643   7.932 -0.1793  0.1221  0.3971
   31SAPC  H14X 4214   4.655   2.707   7.929 -0.0725 -0.1246 -2.4996
   31SAPC  H14Y 4215   4.599   2.541   7.908  0.3711  0.3633  0.1727
   31SAPC  C315 4216   4.481   2.663   8.061  0.0500 -1.0064  0.5182
   31SAPC  H15X 4217   4.386   2.610   8.041  0.5196 -1.4845 -0.4819
   31SAPC  H15Y 4218   4.466   2.771   8.084  1.4261 -0.6351 -0.2592
   31SAPC  C316 4219   4.548   2.606   8.187 -0.3932 -0.0854  0.2226
   31SAPC  H16X 4220   4.655   2.637   8.189  0.2588 -2.1714 -0.9191
   31SAPC  H16Y 4221   4.551   2.495   8.180  2.3018 -0.0216 -0.3329
   31SAPC  C317 4222   4.472   2.639   8.312  0.1270 -0.7895  0.0700
   31SAPC  H17X 4223   4.362   2.624   8.310 -0.0750  0.3720  1.9710
   31SAPC  H17Y 4224   4.483   2.747   8.336 -4.2009 -0.1885 -0.3413
   31SAPC  C318 4225   4.530   2.565   8.439  0.4336 -0.4216 -0.0315
   31SAPC  H18X 4226   4.484   2.593   8.536  2.3491  0.4906  0.6465
   31SAPC  H18Y 4227   4.637   2.596   8.450  0.0675  0.3870  1.3112
   31SAPC  H18Z 4228   4.527   2.455   8.424  2.1328 -0.3557 -1.0272
   32SAPC     N 4229   6.352   3.345   6.303 -0.1564 -0.0392  0.3050
   32SAPC   C12 4230   6.456   3.352   6.418  0.7656  0.0355  0.9176
   32SAPC  H12A 4231   6.548   3.300   6.394 -1.0739 -4.2260  2.5057
   32SAPC  H12B 4232   6.408   3.291   6.493 -1.7655  0.0321 -0.6165
   32SAPC   C13 4233   6.284   3.217   6.300  0.2991 -0.6842 -0.5615
   32SAPC  H13A 4234   6.251   3.186   6.398 -3.4700 -0.2189 -1.5959
   32SAPC  H13B 4235   6.194   3.225   6.240 -0.2686 -1.0790  0.2226
   32SAPC  H13C 4236   6.340   3.131   6.266  1.1702 -0.6281  0.7027
   32SAPC   C14 4237   6.242   3.447   6.325 -0.5900 -0.2791 -0.1706
   32SAPC  H14A 4238   6.285   3.544   6.304  2.4114 -1.4628  0.3246
   32SAPC  H14B 4239   6.169   3.423   6.250  0.5371 -2.2483 -0.6689
   32SAPC  H14C 4240   6.202   3.431   6.424  0.1798 -0.0612  0.1753
   32SAPC   C15 4241   6.410   3.371   6.165  0.2782  0.5438 -0.3101
   32SAPC  H15A 4242   6.480   3.300   6.125 -0.7911  1.4970 -4.0914
   32SAPC  H15B 4243   6.335   3.384   6.089  0.2427  1.3483 -0.1476
   32SAPC  H15C 4244   6.467   3.463   6.172 -0.5561  0.8686  2.7788
   32SAPC   C11 4245   6.489   3.488   6.478 -0.1959 -0.1467 -0.0481
   32SAPC  H11A 4246   6.588   3.466   6.524 -1.1329  0.3896  2.2684
   32SAPC  H11B 4247   6.410   3.521   6.548  1.4370 -0.0237  1.7715
   32SAPC     P 4248   6.640   3.627   6.319 -0.1435 -0.1531 -0.1362
   32SAPC   O13 4249   6.742   3.537   6.362  0.3887  0.3964 -0.5766
   32SAPC   O14 4250   6.625   3.649   6.174  0.0330 -0.9332 -0.3528
   32SAPC   O12 4251   6.504   3.591   6.379 -0.2653  0.6060  0.3365
   32SAPC   O11 4252   6.685   3.763   6.391  0.5757  0.3340 -0.3351
   32SAPC    C1 4253   6.657   3.808   6.524 -0.4483  0.1401 -0.6386
   32SAPC    HA 4254   6.628   3.913   6.504 -2.4447 -0.5313 -1.3465
   32SAPC    HB 4255   6.565   3.766   6.570  0.6160  0.6023  1.9630
   32SAPC    C2 4256   6.775   3.799   6.621  0.3658 -0.1631 -0.2357
   32SAPC    HS 4257   6.861   3.860   6.585  0.4233  1.3735  2.3186
   32SAPC   O21 4258   6.802   3.667   6.650  1.5549 -0.3957  0.5128
   32SAPC   C21 4259   6.932   3.634   6.667  0.3998  0.0230  0.1540
   32SAPC   O22 4260   7.023   3.709   6.657  0.7934  0.1377  0.4422
   32SAPC   C22 4261   6.949   3.490   6.702  0.1685  0.2378 -0.4615
   32SAPC   H2R 4262   6.916   3.431   6.614 -2.1670 -1.7118  1.6302
   32SAPC   H2S 4263   7.053   3.458   6.723 -0.5626 -0.1206  2.9092
   32SAPC    C3 4264   6.729   3.869   6.753 -0.0733  0.2822  0.2210
   32SAPC    HX 4265   6.628   3.827   6.771 -0.4006  0.6678 -0.7205
   32SAPC    HY 4266   6.710   3.975   6.727 -0.6542  0.2152  0.3791
   32SAPC   O31 4267   6.815   3.852   6.864  0.8247  0.9291  0.6897
   32SAPC   C31 4268   6.923   3.927   6.859 -0.1690  0.1109 -0.0768
   32SAPC   O32 4269   6.947   4.006   6.768  0.2085  0.1460 -0.0448
   32SAPC   C32 4270   7.013   3.880   6.970 -0.6635 -0.0965  0.2323
   32SAPC   H2X 4271   7.119   3.905   6.947 -0.6270  1.3172  1.7925
   32SAPC   H2Y 4272   6.994   3.771   6.978 -0.2673 -0.1043  1.1054
   32SAPC   C23 4273   6.868   3.438   6.822 -0.1240 -0.8025 -0.4762
   32SAPC   H3R 4274   6.761   3.461   6.803  0.1277  2.7394  1.9278
   32SAPC   H3S 4275   6.893   3.491   6.916  0.3549  1.6228 -1.9317
   32SAPC   C24 4276   6.873   3.288   6.848 -0.7291 -0.0767 -0.2431
   32SAPC   H4R 4277   6.821   3.254   6.941 -0.3763 -0.2638 -0.1117
   32SAPC   H4S 4278   6.980   3.262   6.865 -1.2233 -3.2276 -1.5818
   32SAPC   C25 4279   6.814   3.205   6.740  0.0302  0.1106 -0.1159
   32SAPC   H5R 4280   6.898   3.150   6.695  1.6735  2.0738  0.4900
   32SAPC   C26 4281   6.687   3.184   6.698 -0.0742 -0.4190 -0.1089
   32SAPC   H6R 4282   6.670   3.115   6.614 -0.5186  0.9200 -1.1365
   32SAPC   C27 4283   6.562   3.240   6.767  0.0868 -0.3171 -0.2840
   32SAPC   H7R 4284   6.578   3.350   6.763  0.5951 -0.4303 -1.4891
   32SAPC   H7S 4285   6.562   3.203   6.872  0.0672  0.8584  0.1419
   32SAPC   C28 4286   6.434   3.202   6.693 -0.2092  0.0050  0.4787
   32SAPC   H8R 4287   6.441   3.129   6.611 -0.4622  1.2088 -0.6456
   32SAPC   C29 4288   6.312   3.257   6.721 -0.1024  0.4508 -0.3112
   32SAPC   H9R 4289   6.221   3.220   6.671 -0.3858  0.2076  0.3725
   32SAPC  C210 4290   6.280   3.359   6.828 -0.1361  0.3535  0.1837
   32SAPC  H10R 4291   6.376   3.391   6.873 -0.2060  2.5092 -1.1438
   32SAPC  H10S 4292   6.223   3.306   6.908  0.7106  0.8010  1.1039
   32SAPC  C211 4293   6.199   3.484   6.787 -0.5335  0.1861  0.9340
   32SAPC  H11R 4294   6.092   3.465   6.767 -0.0831 -0.6358 -0.8223
   32SAPC  C212 4295   6.233   3.610   6.767 -0.2956  0.6390  0.1009
   32SAPC  H12R 4296   6.155   3.675   6.723 -1.1351  0.1003  0.7863
   32SAPC  C213 4297   6.374   3.667   6.786  0.1285  0.1873 -0.3649
   32SAPC  H13R 4298   6.422   3.708   6.695  0.3074 -0.2541 -0.4706
   32SAPC  H13S 4299   6.447   3.585   6.806  1.5291  2.0323  2.3781
   32SAPC  C214 4300   6.375   3.764   6.899 -0.6253 -0.2272 -0.8903
   32SAPC  H14R 4301   6.289   3.831   6.891  0.0043  0.3633 -3.1126
   32SAPC  C215 4302   6.455   3.779   7.012  0.1416  0.6755 -0.7733
   32SAPC  H15R 4303   6.432   3.853   7.090 -2.3716 -0.6711 -0.1913
   32SAPC  C216 4304   6.569   3.692   7.061 -0.2917 -1.0802  0.3957
   32SAPC  H16R 4305   6.659   3.756   7.049 -0.8046 -0.2708  0.8592
   32SAPC  H16S 4306   6.574   3.603   6.994  0.0735  0.7688 -2.0991
   32SAPC  C217 4307   6.561   3.656   7.207 -0.2733  0.7501 -0.0802
   32SAPC  H17R 4308   6.583   3.749   7.263  1.5117  0.5970 -0.5183
   32SAPC  H17S 4309   6.645   3.585   7.221 -0.5631  0.6119  1.0368
   32SAPC  C218 4310   6.434   3.593   7.256 -1.0770 -0.1813 -0.1779
   32SAPC  H18R 4311   6.351   3.666   7.263 -1.3434 -0.5973  1.1154
   32SAPC  H18S 4312   6.444   3.566   7.363  0.2420 -1.2617 -0.5524
   32SAPC  C219 4313   6.379   3.468   7.178  0.5544  0.7381  0.1671
   32SAPC  H19R 4314   6.456   3.388   7.173  1.1223  1.2370  0.8316
   32SAPC  H19S 4315   6.357   3.495   7.073 -0.5440 -0.2820  0.1231
   32SAPC  C220 4316   6.254   3.404   7.233  0.4030 -0.0288  0.0632
   32SAPC  H20R 4317   6.178   3.482   7.253 -0.2734  0.1512 -2.9609
   32SAPC  H20S 4318   6.290   3.362   7.329 -3.2189  0.0774  1.5474
   32SAPC  H20T 4319   6.211   3.321   7.173 -1.8036  0.1520  1.3672
   32SAPC   C33 4320   6.987   3.955   7.098 -0.8027 -0.6375 -0.7697
   32SAPC   H3X 4321   6.980   4.066   7.089 -0.6689 -0.4973  0.6911
   32SAPC   H3Y 4322   7.076   3.928   7.158 -0.6273  0.3232 -0.5776
   32SAPC   C34 4323   6.872   3.893   7.175  0.1982  0.1735 -0.6585
   32SAPC   H4X 4324   6.870   3.782   7.174 -1.6435  0.1817  0.1883
   32SAPC   H4Y 4325   6.782   3.927   7.120  0.4873  1.0547 -0.5921
   32SAPC   C35 4326   6.875   3.937   7.324  0.4432  0.3304 -0.3263
   32SAPC   H5X 4327   6.773   3.915   7.361 -0.2437  1.8825 -1.2680
   32SAPC   H5Y 4328   6.896   4.044   7.346 -1.4763  0.4456  1.0510
   32SAPC   C36 4329   6.935   3.844   7.434  0.5845  0.4593 -0.7470
   32SAPC   H6X 4330   6.888   3.744   7.427 -1.0234  1.1830 -0.4660
   32SAPC   H6Y 4331   6.911   3.889   7.532  0.4992  0.6253 -0.8435
   32SAPC   C37 4332   7.085   3.834   7.423 -0.2476  0.3106 -0.5052
   32SAPC   H7X 4333   7.125   3.936   7.406  1.4477  0.1544  2.2797
   32SAPC   H7Y 4334   7.117   3.763   7.344  0.8952  0.0242  0.1959
   32SAPC   C38 4335   7.147   3.780   7.554 -0.4835 -0.5563 -0.2560
   32SAPC   H8X 4336   7.133   3.840   7.647  1.6697 -0.4068 -0.0149
   32SAPC   H8Y 4337   7.254   3.780   7.526 -0.3699  2.3215  0.0144
   32SAPC   C39 4338   7.102   3.642   7.595  0.0659  0.2858 -0.2187
   32SAPC   H9X 4339   7.054   3.591   7.509  1.1215 -2.3711  0.7195
   32SAPC   H9Y 4340   7.018   3.656   7.667  0.4796  2.5035 -0.1031
   32SAPC  C310 4341   7.199   3.549   7.659 -0.8605 -0.2009  0.0770
   32SAPC  H10X 4342   7.260   3.608   7.731 -0.0069  1.1216 -1.7079
   32SAPC  H10Y 4343   7.270   3.498   7.590 -1.1854 -0.5225 -0.0203
   32SAPC  C311 4344   7.132   3.439   7.743  0.3657  0.0179 -0.1021
   32SAPC  H11X 4345   7.061   3.382   7.679 -0.3170  1.1258 -0.3603
   32SAPC  H11Y 4346   7.060   3.475   7.819 -0.1395 -0.2729 -0.4399
   32SAPC  C312 4347   7.232   3.346   7.809 -0.1582  0.2874 -0.0474
   32SAPC  H12X 4348   7.295   3.404   7.880 -1.4345  0.3199  1.0697
   32SAPC  H12Y 4349   7.298   3.314   7.725 -3.4737 -1.5842 -2.0212
   32SAPC  C313 4350   7.160   3.224   7.870 -0.3682  0.5555 -0.4833
   32SAPC  H13X 4351   7.126   3.151   7.793  2.0485 -0.5543 -0.5345
   32SAPC  H13Y 4352   7.070   3.274   7.911  0.3375  0.2349  1.4776
   32SAPC  C314 4353   7.235   3.161   7.978 -0.2039 -0.1847 -0.5788
   32SAPC  H14X 4354   7.344   3.155   7.956 -0.2065 -1.7682 -0.2586
   32SAPC  H14Y 4355   7.201   3.057   7.997  2.2957 -0.4577  2.9318
   32SAPC  C315 4356   7.221   3.235   8.109  0.2588  0.2919 -0.3205
   32SAPC  H15X 4357   7.113   3.258   8.122  0.1336 -0.5486  0.1180
   32SAPC  H15Y 4358   7.273   3.333   8.123 -0.0729  0.5078 -0.5741
   32SAPC  C316 4359   7.276   3.148   8.220 -0.1077 -0.5112 -0.4606
   32SAPC  H16X 4360   7.375   3.117   8.180 -0.9260 -2.7489 -0.7740
   32SAPC  H16Y 4361   7.215   3.056   8.220 -0.0466 -0.5548  0.2386
   32SAPC  C317 4362   7.283   3.217   8.359  0.3605  0.2020  0.1558
   32SAPC  H17X 4363   7.337   3.313   8.342  1.0928 -0.4597 -1.2757
   32SAPC  H17Y 4364   7.333   3.151   8.433 -0.9948 -1.1351 -0.0924
   32SAPC  C318 4365   7.143   3.247   8.410 -0.6976 -0.0612  1.0836
   32SAPC  H18X 4366   7.098   3.322   8.342  1.5576 -0.4922 -0.9124
   32SAPC  H18Y 4367   7.143   3.284   8.515 -0.8199  2.3539  0.2565
   32SAPC  H18Z 4368   7.078   3.157   8.421 -0.0579 -0.5314  1.0471
   33POPC     N 4369   4.308   4.644  11.101 -0.2550  0.0255 -0.7693
   33POPC   C12 4370   4.354   4.567  10.977 -0.1351  0.4224 -0.2154
   33POPC  H12A 4371   4.269   4.532  10.919  0.8214 -0.2234 -1.2407
   33POPC  H12B 4372   4.416   4.484  11.009 -1.9556 -0.1281  2.0682
   33POPC   C13 4373   4.437   4.674  11.169  0.2832  1.0096  0.4752
   33POPC  H13A 4374   4.476   4.581  11.206 -0.7622  0.2222 -0.3532
   33POPC  H13B 4375   4.520   4.712  11.110  1.1584  1.2891  1.8678
   33POPC  H13C 4376   4.421   4.741  11.252 -1.2217 -0.3546  1.3196
   33POPC   C14 4377   4.237   4.773  11.067  0.6216  0.0412 -0.4749
   33POPC  H14A 4378   4.224   4.840  11.150 -1.1173  0.4426 -1.0407
   33POPC  H14B 4379   4.287   4.822  10.985 -1.5217  0.8240 -1.3605
   33POPC  H14C 4380   4.137   4.762  11.028 -0.7663 -0.7522  3.1068
   33POPC   C15 4381   4.212   4.565  11.182 -0.2752 -0.3389 -0.6471
   33POPC  H15A 4382   4.130   4.535  11.119 -0.1665 -0.3669 -0.7773
   33POPC  H15B 4383   4.183   4.634  11.260 -1.3509 -1.2394 -0.2371
   33POPC  H15C 4384   4.262   4.477  11.220  0.1869  0.9466  1.8027
   33POPC   C11 4385   4.431   4.632  10.867  0.3385  0.2532 -0.1577
   33POPC  H11A 4386   4.473   4.551  10.805 -0.7826 -1.8802  1.7834
   33POPC  H11B 4387   4.517   4.694  10.900  0.7534 -0.7862  0.7444
   33POPC     P 4388   4.242   4.668  10.684 -0.1976  0.0731  0.2745
   33POPC   O13 4389   4.139   4.769  10.656 -0.0550 -0.0787  0.0391
   33POPC   O14 4390   4.189   4.536  10.732  0.9833  0.3043 -0.3143
   33POPC   O12 4391   4.349   4.721  10.792 -0.5594 -0.1550  0.3532
   33POPC   O11 4392   4.330   4.647  10.553  0.3509 -0.3776 -0.2919
   33POPC    C1 4393   4.363   4.774  10.480 -0.5727  0.4294 -0.3469
   33POPC    HA 4394   4.392   4.858  10.547  0.7730  0.6518 -1.2161
   33POPC    HB 4395   4.454   4.763  10.418 -1.2063  2.6617 -1.7399
   33POPC    C2 4396   4.258   4.817  10.371 -0.7809  1.0219 -0.6703
   33POPC    HS 4397   4.158   4.826  10.419 -0.6446  2.4504 -0.6300
   33POPC   O21 4398   4.276   4.719  10.264 -0.1266 -0.1325  0.0702
   33POPC   C21 4399   4.203   4.607  10.271 -0.2258 -0.3163  0.0773
   33POPC   O22 4400   4.119   4.586  10.354 -0.1371  0.2676 -0.1947
   33POPC   C22 4401   4.208   4.511  10.154  0.1277 -0.0441 -0.2359
   33POPC   H2R 4402   4.309   4.513  10.108  0.6844  2.0222  1.0033
   33POPC   H2S 4403   4.133   4.557  10.087 -2.2979 -1.5580  1.3462
   33POPC    C3 4404   4.293   4.962  10.323 -0.4372  0.2097  0.6610
   33POPC    HX 4405   4.393   4.960  10.274 -1.8669 -5.6912 -2.5344
   33POPC    HY 4406   4.304   5.023  10.415  3.5692  0.8521 -0.1615
   33POPC   O31 4407   4.178   5.010  10.254  0.0702  0.5818  0.1995
   33POPC   C31 4408   4.189   5.145  10.222  0.6595  0.2718 -0.3612
   33POPC   O32 4409   4.271   5.221  10.266 -0.5435 -0.2510  0.8569
   33POPC   C32 4410   4.075   5.178  10.133 -0.1222  1.0516  0.3842
   33POPC   H2X 4411   4.099   5.277  10.089  0.6478  0.4910 -0.4627
   33POPC   H2Y 4412   3.980   5.206  10.184 -0.2597  1.5926 -0.1696
   33POPC   C23 4413   4.161   4.367  10.196  0.5655  0.2679  0.7496
   33POPC   H3R 4414   4.058   4.363  10.236  0.0435 -0.7886 -0.6430
   33POPC   H3S 4415   4.221   4.327  10.280 -1.3831  0.4014  2.2406
   33POPC   C24 4416   4.178   4.274  10.073  0.1085  0.0658 -0.4943
   33POPC   H4R 4417   4.177   4.170  10.113 -3.5974  1.2147  2.6088
   33POPC   H4S 4418   4.282   4.289  10.035 -0.6619  0.9787 -2.3031
   33POPC   C25 4419   4.072   4.281   9.962  0.1911 -0.0513  0.6943
   33POPC   H5R 4420   4.134   4.277   9.870 -0.3226 -1.1819  0.3964
   33POPC   H5S 4421   4.027   4.383   9.968  1.7403  0.5961  1.6045
   33POPC   C26 4422   3.969   4.170   9.960 -0.2352 -0.3220 -0.0194
   33POPC   H6R 4423   3.896   4.193  10.040 -1.3871 -0.0293 -1.1485
   33POPC   H6S 4424   4.021   4.073   9.974  0.8103  0.3156  0.5758
   33POPC   C27 4425   3.895   4.162   9.823  0.6091  0.1284  0.1466
   33POPC   H7R 4426   3.816   4.085   9.835  1.4787 -0.5988  1.4107
   33POPC   H7S 4427   3.972   4.122   9.753 -1.1170 -1.1577 -1.0418
   33POPC   C28 4428   3.850   4.298   9.769  0.6420 -0.3599  0.3260
   33POPC   H8R 4429   3.943   4.352   9.742 -0.8383  1.5500 -1.1064
   33POPC   H8S 4430   3.800   4.359   9.847  1.0197  0.1978  0.1307
   33POPC   C29 4431   3.762   4.291   9.647  0.7036 -0.5527  0.3050
   33POPC   H91 4432   3.807   4.293   9.547  2.3130 -1.6385  0.9896
   33POPC  C210 4433   3.627   4.294   9.647  0.0747 -0.9092 -0.2983
   33POPC  H101 4434   3.576   4.298   9.550 -1.1413  1.4832  0.3926
   33POPC  C211 4435   3.528   4.315   9.757 -0.6677 -0.8304  0.4358
   33POPC  H11R 4436   3.483   4.417   9.760  0.0659 -0.4724 -0.4739
   33POPC  H11S 4437   3.581   4.306   9.854 -0.7908  0.6588  0.6497
   33POPC  C212 4438   3.414   4.211   9.737 -0.6149  0.6420 -0.4384
   33POPC  H12R 4439   3.343   4.226   9.821 -0.5272  0.1604 -0.2795
   33POPC  H12S 4440   3.459   4.111   9.723 -0.2335  0.8511 -0.7183
   33POPC  C213 4441   3.323   4.255   9.612  0.0682  0.0483  0.4442
   33POPC  H13R 4442   3.378   4.233   9.518  0.6330 -1.1071  1.0311
   33POPC  H13S 4443   3.305   4.364   9.612 -0.9499 -0.1131 -0.1141
   33POPC  C214 4444   3.190   4.177   9.611 -0.4500  0.3463 -0.2608
   33POPC  H14R 4445   3.153   4.181   9.716  1.1027 -1.0568  0.3598
   33POPC  H14S 4446   3.214   4.071   9.587  0.4959  0.6667 -0.7649
   33POPC  C215 4447   3.083   4.221   9.507  0.7828  0.0470 -0.3608
   33POPC  H15R 4448   3.132   4.226   9.407  1.5793 -1.4297 -0.0490
   33POPC  H15S 4449   3.047   4.324   9.527 -1.4781 -0.8305  0.1713
   33POPC  C216 4450   2.971   4.121   9.482  0.6733 -0.5751 -0.2562
   33POPC  H16R 4451   3.007   4.018   9.500  0.4436 -0.2635  2.2476
   33POPC  H16S 4452   2.951   4.125   9.373 -1.0405 -2.8683 -0.0709
   33POPC  C217 4453   2.853   4.163   9.574 -0.0634  0.2638 -0.5185
   33POPC  H17R 4454   2.759   4.136   9.521 -1.0215  2.0095  0.2776
   33POPC  H17S 4455   2.835   4.272   9.576 -0.3175  0.1956  1.4187
   33POPC  C218 4456   2.850   4.095   9.713  0.6584  0.1678 -0.3649
   33POPC  H18R 4457   2.916   4.151   9.782 -1.4071  0.5319  1.3483
   33POPC  H18S 4458   2.871   3.987   9.697 -2.1764 -0.1730 -2.1947
   33POPC  H18T 4459   2.749   4.096   9.760  0.2186 -2.3508 -1.1458
   33POPC   C33 4460   4.064   5.081  10.016  0.1275 -0.3081 -0.5461
   33POPC   H3X 4461   3.984   5.007  10.035 -1.3148  1.4940  0.4493
   33POPC   H3Y 4462   4.160   5.033   9.986  0.5499  0.2205 -0.0489
   33POPC   C34 4463   4.016   5.157   9.885 -0.3468  0.1041 -0.6043
   33POPC   H4X 4464   4.061   5.257   9.867  0.7405 -0.1238  0.6850
   33POPC   H4Y 4465   3.908   5.177   9.903 -0.2797  2.6670 -2.8114
   33POPC   C35 4466   4.020   5.071   9.754  0.0336 -0.0712  0.8576
   33POPC   H5X 4467   3.972   4.975   9.785 -2.1615  1.5128  2.4675
   33POPC   H5Y 4468   4.125   5.044   9.730 -0.1560  0.1339 -0.2418
   33POPC   C36 4469   3.948   5.129   9.629  0.0570  0.1493  0.5193
   33POPC   H6X 4470   3.999   5.221   9.594  0.7321 -0.5928 -0.4576
   33POPC   H6Y 4471   3.846   5.166   9.653  1.5191  3.0816  2.4840
   33POPC   C37 4472   3.952   5.044   9.498 -0.5060 -0.0991 -0.3698
   33POPC   H7X 4473   3.910   4.943   9.516 -1.1114  0.6670  2.8198
   33POPC   H7Y 4474   4.060   5.038   9.471 -0.4568 -0.8841 -0.0220
   33POPC   C38 4475   3.870   5.108   9.380 -0.6676  0.0160 -0.2303
   33POPC   H8X 4476   3.918   5.205   9.356 -1.9189  0.7922  0.3604
   33POPC   H8Y 4477   3.772   5.129   9.427 -1.5795 -1.8727 -1.2163
   33POPC   C39 4478   3.862   5.015   9.261 -0.3962  0.3283  0.4439
   33POPC   H9X 4479   3.805   4.922   9.281 -0.6856  0.5486  0.6393
   33POPC   H9Y 4480   3.966   4.992   9.226 -0.5548  0.2414  0.0225
   33POPC  C310 4481   3.790   5.075   9.140  0.5754 -0.1410 -0.3652
   33POPC  H10X 4482   3.856   5.156   9.103  2.1687 -1.3227 -0.1838
   33POPC  H10Y 4483   3.688   5.105   9.170  0.2853 -1.9181  0.4826
   33POPC  C311 4484   3.769   4.960   9.034 -0.1141  0.1725  0.4609
   33POPC  H11X 4485   3.718   4.874   9.082 -0.6312  0.8709  1.1731
   33POPC  H11Y 4486   3.873   4.940   9.001 -0.1795  1.8211 -0.8524
   33POPC  C312 4487   3.696   5.009   8.908  0.9798 -0.4592 -0.0693
   33POPC  H12X 4488   3.711   5.116   8.885  1.8273 -0.4832  0.3482
   33POPC  H12Y 4489   3.587   4.991   8.923  0.3061  2.0695 -1.6362
   33POPC  C313 4490   3.750   4.931   8.789  0.0751 -0.0656  0.0731
   33POPC  H13X 4491   3.745   4.821   8.801 -1.3282 -0.3903 -2.9509
   33POPC  H13Y 4492   3.856   4.952   8.765 -0.0536 -1.2527 -1.6239
   33POPC  C314 4493   3.658   4.955   8.655  0.7606 -0.2282 -0.1616
   33POPC  H14X 4494   3.642   5.062   8.634  2.6311  0.2391  0.6813
   33POPC  H14Y 4495   3.558   4.915   8.682  0.1788  1.1684 -0.2483
   33POPC  C315 4496   3.700   4.873   8.533  0.9087 -0.3256 -0.4659
   33POPC  H15X 4497   3.735   4.773   8.567  0.1608 -0.2942  0.4085
   33POPC  H15Y 4498   3.788   4.923   8.488  1.5120 -0.9888 -0.0487
   33POPC  C316 4499   3.598   4.842   8.433 -0.1897  0.1541 -0.3776
   33POPC  H16X 4500   3.521   4.777   8.480 -0.5149  0.8261  0.0167
   33POPC  H16Y 4501   3.644   4.784   8.350 -1.0230 -2.3530  0.8550
   33POPC  H16Z 4502   3.542   4.932   8.399  0.9834  1.2782  0.5985
   34POPC     N 4503   3.722   5.150  10.582 -0.1279  0.7879  0.1984
   34POPC   C12 4504   3.726   5.293  10.633 -0.2561 -0.1578 -0.1606
   34POPC  H12A 4505   3.825   5.325  10.660  0.3031  0.0802 -2.4246
   34POPC  H12B 4506   3.668   5.298  10.724  1.4523  2.6220  0.8474
   34POPC   C13 4507   3.816   5.134  10.465  0.0434  0.0123  0.4964
   34POPC  H13A 4508   3.801   5.042  10.410 -0.0263 -0.0572  0.6295
   34POPC  H13B 4509   3.800   5.210  10.391 -0.0414  1.3366  1.8453
   34POPC  H13C 4510   3.918   5.138  10.500  1.1283 -0.3467 -2.5074
   34POPC   C14 4511   3.789   5.054  10.678 -0.1298 -0.7204 -0.6123
   34POPC  H14A 4512   3.725   5.062  10.765 -0.8361  0.0197 -1.1926
   34POPC  H14B 4513   3.781   4.950  10.649  0.0544 -0.3972 -1.8159
   34POPC  H14C 4514   3.894   5.077  10.680 -0.7108  2.1942 -1.0570
   34POPC   C15 4515   3.573   5.114  10.557  0.2539  0.5847  0.2762
   34POPC  H15A 4516   3.532   5.193  10.497 -0.1198  1.5474  1.7854
   34POPC  H15B 4517   3.519   5.100  10.649 -1.5807 -0.7602 -0.9587
   34POPC  H15C 4518   3.575   5.020  10.502  0.8527 -0.2316  1.6697
   34POPC   C11 4519   3.662   5.397  10.537  0.3803 -0.1161  0.0786
   34POPC  H11A 4520   3.714   5.407  10.439 -0.4025  2.1624 -0.1362
   34POPC  H11B 4521   3.678   5.497  10.584  3.7166  0.5226 -2.2405
   34POPC     P 4522   3.415   5.437  10.629  0.2050 -0.2423  0.2393
   34POPC   O13 4523   3.432   5.584  10.640  0.4552 -0.7496 -0.0465
   34POPC   O14 4524   3.424   5.355  10.753 -0.4051  0.0630  0.0124
   34POPC   O12 4525   3.518   5.374  10.523 -0.3811  0.5301 -0.0764
   34POPC   O11 4526   3.271   5.424  10.560 -0.9560  0.5507 -0.5593
   34POPC    C1 4527   3.219   5.298  10.521 -0.2350  0.1563 -0.3571
   34POPC    HA 4528   3.121   5.293  10.572  0.3689  2.5652  1.1239
   34POPC    HB 4529   3.284   5.213  10.553  1.5033  0.7642 -2.1431
   34POPC    C2 4530   3.183   5.292  10.370 -0.3699 -0.2628  0.7146
   34POPC    HS 4531   3.150   5.187  10.355  0.7800 -0.7795  1.6810
   34POPC   O21 4532   3.302   5.317  10.286  0.4222  0.1059 -0.4340
   34POPC   C21 4533   3.388   5.217  10.278  0.8628 -0.2074 -0.9105
   34POPC   O22 4534   3.367   5.108  10.331 -0.2437 -0.7285  0.4921
   34POPC   C22 4535   3.501   5.243  10.183 -0.0435 -0.2396  0.2397
   34POPC   H2R 4536   3.590   5.275  10.241 -1.2050 -0.4690  2.1683
   34POPC   H2S 4537   3.474   5.332  10.123 -2.1721 -0.6189  0.6021
   34POPC    C3 4538   3.066   5.388  10.348 -0.1899  0.5523 -0.3661
   34POPC    HX 4539   3.096   5.486  10.389  1.2676  0.0820 -0.2819
   34POPC    HY 4540   2.982   5.348  10.410 -0.1717  3.0738  1.3682
   34POPC   O31 4541   3.034   5.401  10.208  0.0403 -0.0605  0.0908
   34POPC   C31 4542   3.098   5.499  10.145  0.7265 -0.7849  0.6187
   34POPC   O32 4543   3.182   5.569  10.193  0.8054 -0.2407  0.5390
   34POPC   C32 4544   3.044   5.501  10.002 -0.1741  0.4711  0.7749
   34POPC   H2X 4545   2.944   5.550  10.005  1.0302  3.0633 -0.1558
   34POPC   H2Y 4546   3.024   5.398   9.966  1.7531  0.2458  0.3205
   34POPC   C23 4547   3.550   5.128  10.092  0.0690  0.5670  0.5997
   34POPC   H3R 4548   3.452   5.102  10.047 -0.7623  2.4340  1.3010
   34POPC   H3S 4549   3.585   5.043  10.155  3.1629  0.8967 -0.6147
   34POPC   C24 4550   3.666   5.163  10.002  0.7734 -0.0436 -0.3596
   34POPC   H4R 4551   3.677   5.081   9.928  0.1260 -0.1513 -0.3332
   34POPC   H4S 4552   3.763   5.175  10.055  0.9523  1.8651 -1.0714
   34POPC   C25 4553   3.634   5.282   9.909  0.4019 -0.2609  0.2586
   34POPC   H5R 4554   3.718   5.297   9.838 -0.1468  2.4170  0.1158
   34POPC   H5S 4555   3.619   5.377   9.965  2.5267  0.0604  0.3120
   34POPC   C26 4556   3.504   5.272   9.814 -0.7042  0.3399  0.8187
   34POPC   H6R 4557   3.516   5.361   9.749  0.6855 -0.6668 -0.3257
   34POPC   H6S 4558   3.410   5.285   9.871  0.3221  0.5618  2.5236
   34POPC   C27 4559   3.513   5.141   9.730  0.3110 -0.4960 -0.5900
   34POPC   H7R 4560   3.550   5.052   9.785 -2.9335 -2.1965 -0.9868
   34POPC   H7S 4561   3.575   5.157   9.639 -0.0801 -0.7199 -0.8978
   34POPC   C28 4562   3.373   5.103   9.665 -0.1672  0.1235 -0.1874
   34POPC   H8R 4563   3.402   5.012   9.608 -0.6531  0.3153 -0.7411
   34POPC   H8S 4564   3.347   5.183   9.593 -0.4813 -0.2967 -0.5427
   34POPC   C29 4565   3.265   5.062   9.755  0.5089 -0.1495  0.6125
   34POPC   H91 4566   3.292   4.997   9.839 -0.2843 -0.0038  0.9897
   34POPC  C210 4567   3.134   5.100   9.748 -0.4807  0.3070 -0.0079
   34POPC  H101 4568   3.060   5.055   9.816  2.4466  0.6887  3.5517
   34POPC  C211 4569   3.075   5.193   9.642 -0.2134  0.2071 -0.0999
   34POPC  H11R 4570   3.108   5.152   9.544 -2.6917 -2.6009  0.1513
   34POPC  H11S 4571   3.108   5.299   9.652 -1.0512  0.4955 -0.3175
   34POPC  C212 4572   2.920   5.192   9.653  0.7741  0.2915  0.1900
   34POPC  H12R 4573   2.893   5.236   9.751 -0.7557  0.0523 -0.1119
   34POPC  H12S 4574   2.882   5.088   9.645  0.7184  0.2247  1.3046
   34POPC  C213 4575   2.843   5.266   9.541 -0.2771 -0.4606  0.8130
   34POPC  H13R 4576   2.889   5.367   9.542  0.6103 -0.8420 -0.2898
   34POPC  H13S 4577   2.740   5.277   9.582 -0.4577 -0.4107  0.3446
   34POPC  C214 4578   2.855   5.205   9.401  0.2837 -0.1589 -0.4856
   34POPC  H14R 4579   2.946   5.142   9.396  0.2883 -0.0943 -1.2626
   34POPC  H14S 4580   2.876   5.285   9.327  2.1862  0.0963  0.2957
   34POPC  C215 4581   2.749   5.110   9.342  0.1718  0.2002 -0.4363
   34POPC  H15R 4582   2.649   5.158   9.352  1.1194  2.3239 -1.0456
   34POPC  H15S 4583   2.746   5.023   9.412 -0.9135  0.7856  0.2703
   34POPC  C216 4584   2.788   5.058   9.200  0.3214 -0.3571 -0.1672
   34POPC  H16R 4585   2.897   5.041   9.191 -0.1761 -3.3057 -1.4031
   34POPC  H16S 4586   2.771   5.132   9.119 -1.1929 -1.1405 -0.5913
   34POPC  C217 4587   2.696   4.942   9.149  0.7512 -0.3786 -0.7871
   34POPC  H17R 4588   2.738   4.915   9.050  0.9634 -0.4506 -0.6762
   34POPC  H17S 4589   2.587   4.965   9.144  0.6203 -0.8508 -0.0906
   34POPC  C218 4590   2.705   4.812   9.235 -0.5826 -0.3661  0.1954
   34POPC  H18R 4591   2.641   4.728   9.199  2.1556 -1.7930 -1.5079
   34POPC  H18S 4592   2.694   4.831   9.343  1.6788  0.6170  0.2721
   34POPC  H18T 4593   2.806   4.773   9.211 -0.0326  0.2108  1.5489
   34POPC   C33 4594   3.135   5.585   9.908  0.2302  0.1000 -0.6243
   34POPC   H3X 4595   3.214   5.525   9.858  1.1962 -0.3148  1.3837
   34POPC   H3Y 4596   3.184   5.662   9.971  1.1358 -2.2038  1.5951
   34POPC   C34 4597   3.043   5.650   9.796 -0.5418 -0.0918  0.0607
   34POPC   H4X 4598   2.955   5.687   9.853  0.9418  2.1027  1.0191
   34POPC   H4Y 4599   3.004   5.580   9.720  1.3566  0.3618 -1.3622
   34POPC   C35 4600   3.122   5.764   9.730  0.0119 -0.3760  0.0016
   34POPC   H5X 4601   3.221   5.737   9.689  0.2279 -1.7307  1.3696
   34POPC   H5Y 4602   3.129   5.837   9.814  2.1179  0.0407 -0.5232
   34POPC   C36 4603   3.040   5.840   9.621 -0.3426  0.0229 -0.5442
   34POPC   H6X 4604   3.053   5.948   9.640 -0.6778  0.0461 -0.4353
   34POPC   H6Y 4605   2.930   5.822   9.632  0.0154 -0.8400  1.9640
   34POPC   C37 4606   3.071   5.815   9.479  0.6286  0.0980  0.5072
   34POPC   H7X 4607   3.180   5.800   9.461  0.1261 -2.3071 -0.8401
   34POPC   H7Y 4608   3.041   5.906   9.422  0.8179  0.5459  1.1227
   34POPC   C38 4609   3.003   5.677   9.431 -0.9495 -0.0889 -0.4124
   34POPC   H8X 4610   2.893   5.689   9.441 -0.5043  2.9616  1.4583
   34POPC   H8Y 4611   3.044   5.599   9.499  1.8334  0.0276 -1.8599
   34POPC   C39 4612   3.043   5.624   9.291 -0.4088  0.2856  0.2760
   34POPC   H9X 4613   3.003   5.520   9.294 -0.1319  0.1014 -1.5391
   34POPC   H9Y 4614   3.153   5.621   9.279 -0.5448  1.1477 -1.3215
   34POPC  C310 4615   2.978   5.718   9.183  0.0881  0.2684 -0.7069
   34POPC  H10X 4616   3.034   5.812   9.166  0.8257 -0.2414 -1.0753
   34POPC  H10Y 4617   2.873   5.734   9.218  0.2200 -0.7991  0.1917
   34POPC  C311 4618   2.965   5.635   9.052  0.2541  0.0344  0.3136
   34POPC  H11X 4619   2.905   5.543   9.066 -0.3022  0.2113 -0.8471
   34POPC  H11Y 4620   3.067   5.606   9.018  0.5295  1.9242 -0.5368
   34POPC  C312 4621   2.897   5.709   8.939  0.1480 -0.6903 -0.1334
   34POPC  H12X 4622   2.787   5.705   8.954  0.1920 -2.3229 -0.0877
   34POPC  H12Y 4623   2.914   5.670   8.836  0.0950 -0.6070 -0.1721
   34POPC  C313 4624   2.938   5.859   8.921 -0.2706  0.2299 -0.6305
   34POPC  H13X 4625   2.911   5.922   9.008  2.5065 -0.8173  1.0568
   34POPC  H13Y 4626   2.882   5.918   8.845 -0.6381  1.4958  0.5897
   34POPC  C314 4627   3.091   5.884   8.901 -0.7134 -0.1311 -0.5420
   34POPC  H14X 4628   3.143   5.834   8.985 -0.3246  0.5294 -0.3817
   34POPC  H14Y 4629   3.104   5.994   8.912  0.8435 -0.2102 -1.4628
   34POPC  C315 4630   3.141   5.834   8.758 -0.5985 -0.2056  0.6590
   34POPC  H15X 4631   3.120   5.727   8.741  1.0139 -0.1425 -2.0907
   34POPC  H15Y 4632   3.252   5.831   8.754 -0.6580  0.0518 -2.7147
   34POPC  C316 4633   3.093   5.912   8.636 -0.1125  0.0329 -0.4841
   34POPC  H16X 4634   3.161   5.889   8.552 -3.7238 -0.2291 -3.4389
   34POPC  H16Y 4635   3.082   6.019   8.663 -1.9756 -0.0715 -0.7410
   34POPC  H16Z 4636   2.984   5.889   8.631  0.0443 -0.8240 -0.0640
   35POPC     N 4637   2.460   3.092  11.131 -0.1392 -0.4197  0.2036
   35POPC   C12 4638   2.501   2.946  11.144  0.5525 -0.1911  0.2301
   35POPC  H12A 4639   2.411   2.887  11.157  1.3873 -1.2749  1.2556
   35POPC  H12B 4640   2.550   2.933  11.240 -1.8481  1.8090  1.7733
   35POPC   C13 4641   2.381   3.111  11.002  0.2516 -0.1177 -0.7325
   35POPC  H13A 4642   2.428   3.055  10.922  2.1346  1.7435 -0.9897
   35POPC  H13B 4643   2.287   3.061  11.018  1.2946 -2.1103 -0.7541
   35POPC  H13C 4644   2.366   3.213  10.970 -0.8942 -0.5052 -1.4663
   35POPC   C14 4645   2.380   3.138  11.254  0.0037 -0.2998 -0.1511
   35POPC  H14A 4646   2.349   3.238  11.229 -0.7031 -0.1962  1.1541
   35POPC  H14B 4647   2.294   3.076  11.273 -0.4287  0.3683  0.0901
   35POPC  H14C 4648   2.439   3.136  11.344  0.1320  0.2134 -0.2217
   35POPC   C15 4649   2.584   3.177  11.112  0.1414  0.1354 -0.0259
   35POPC  H15A 4650   2.650   3.147  11.032  1.2288 -0.4290  1.0712
   35POPC  H15B 4651   2.636   3.169  11.206  1.0353  0.3028 -0.5089
   35POPC  H15C 4652   2.552   3.278  11.093 -0.3403  0.1029  0.5911
   35POPC   C11 4653   2.574   2.877  11.025  0.3499  0.1269 -0.0412
   35POPC  H11A 4654   2.630   2.786  11.055 -0.7220 -0.6069 -0.2529
   35POPC  H11B 4655   2.646   2.957  10.998 -1.1749  1.2783 -0.8001
   35POPC     P 4656   2.403   2.726  10.893  0.1079 -0.4927  0.4459
   35POPC   O13 4657   2.285   2.734  10.982 -0.6899 -0.0535  0.5917
   35POPC   O14 4658   2.493   2.610  10.911  0.0355 -0.6767 -0.2144
   35POPC   O12 4659   2.487   2.862  10.908  0.1897 -0.2265  0.0982
   35POPC   O11 4660   2.365   2.737  10.738  0.0152  0.0292 -0.1199
   35POPC    C1 4661   2.360   2.872  10.679 -0.4721  0.1803 -0.2162
   35POPC    HA 4662   2.465   2.893  10.647 -1.0777 -0.7188 -2.9393
   35POPC    HB 4663   2.334   2.954  10.749 -1.8349  0.0272 -0.5333
   35POPC    C2 4664   2.269   2.878  10.561  0.5392  0.1560  0.0416
   35POPC    HS 4665   2.167   2.861  10.601 -0.1943 -1.1054 -2.2711
   35POPC   O21 4666   2.309   2.791  10.454 -0.2331 -0.2390 -0.7864
   35POPC   C21 4667   2.259   2.667  10.461  0.4280 -0.5002 -0.1300
   35POPC   O22 4668   2.170   2.635  10.538  0.4460  0.1259 -0.2952
   35POPC   C22 4669   2.346   2.577  10.380  0.3482  0.6053  0.5569
   35POPC   H2R 4670   2.343   2.473  10.418  3.5196 -0.2910 -1.4870
   35POPC   H2S 4671   2.448   2.621  10.374 -0.0439  1.7515  1.9517
   35POPC    C3 4672   2.263   3.028  10.517 -0.1520 -0.2625 -0.5350
   35POPC    HX 4673   2.367   3.038  10.479 -0.5392  2.1669 -0.9794
   35POPC    HY 4674   2.250   3.091  10.607  0.0592 -0.1615 -0.5756
   35POPC   O31 4675   2.175   3.070  10.404  0.5129  0.1085  0.0953
   35POPC   C31 4676   2.056   3.105  10.442 -0.0205 -1.2777  0.3688
   35POPC   O32 4677   2.011   3.097  10.555 -0.2821 -0.3067  0.0524
   35POPC   C32 4678   1.979   3.165  10.324 -0.2421  0.3858 -0.4687
   35POPC   H2X 4679   1.960   3.273  10.345  0.8296  0.7357 -1.2238
   35POPC   H2Y 4680   1.885   3.108  10.334 -0.3454  0.6065 -0.1730
   35POPC   C23 4681   2.291   2.577  10.237 -0.1513  0.0979  0.6192
   35POPC   H3R 4682   2.185   2.545  10.239 -0.3978  0.9535  1.4928
   35POPC   H3S 4683   2.336   2.494  10.178  0.9677  0.3616  1.0911
   35POPC   C24 4684   2.323   2.711  10.163 -0.5674  0.1380 -0.1826
   35POPC   H4R 4685   2.429   2.733  10.186 -0.1695 -0.7745 -1.1209
   35POPC   H4S 4686   2.258   2.792  10.204 -0.5675  0.8623 -1.5803
   35POPC   C25 4687   2.311   2.695  10.012  0.9946 -0.0634  0.1151
   35POPC   H5R 4688   2.214   2.649   9.983  1.0551  0.0283 -0.2340
   35POPC   H5S 4689   2.398   2.635   9.980  1.9013  2.4104 -2.2297
   35POPC   C26 4690   2.332   2.831   9.939  0.7360  0.7071  1.0237
   35POPC   H6R 4691   2.411   2.884   9.996  0.4355  2.5412 -0.2424
   35POPC   H6S 4692   2.240   2.891   9.952 -0.5706 -1.1519  0.6107
   35POPC   C27 4693   2.377   2.817   9.795  0.3208  0.1331  0.8460
   35POPC   H7R 4694   2.470   2.757   9.790  0.3428  0.3078 -1.2012
   35POPC   H7S 4695   2.403   2.920   9.764  0.6983 -0.0489  0.5526
   35POPC   C28 4696   2.276   2.756   9.690  0.1470 -0.4209 -0.5524
   35POPC   H8R 4697   2.252   2.657   9.733 -1.9508  1.5974  3.1632
   35POPC   H8S 4698   2.321   2.754   9.588  2.1741 -1.6982  0.3315
   35POPC   C29 4699   2.140   2.831   9.685 -0.0052 -0.5021  0.7441
   35POPC   H91 4700   2.079   2.794   9.769  0.5044 -0.0106  1.3397
   35POPC  C210 4701   2.098   2.924   9.596  0.2019 -0.3753  0.4642
   35POPC  H101 4702   1.991   2.949   9.596  0.5150  1.0230  0.1196
   35POPC  C211 4703   2.175   2.983   9.480  0.2970 -0.6954 -0.6536
   35POPC  H11R 4704   2.277   2.940   9.485 -0.2601 -2.1830 -1.7375
   35POPC  H11S 4705   2.178   3.094   9.482  0.1068 -0.6932 -0.0561
   35POPC  C212 4706   2.109   2.924   9.349  0.0224  0.0130 -0.1350
   35POPC  H12R 4707   2.003   2.956   9.347 -0.5594 -1.7835  1.3188
   35POPC  H12S 4708   2.113   2.813   9.354  0.6850  0.1014  1.7650
   35POPC  C213 4709   2.171   2.972   9.217  1.1670  0.4458  0.0149
   35POPC  H13R 4710   2.189   2.888   9.147 -0.2036 -0.0412  0.2282
   35POPC  H13S 4711   2.274   3.013   9.224  0.1175  3.1022  0.5151
   35POPC  C214 4712   2.080   3.070   9.137 -0.0544 -0.1274 -0.1442
   35POPC  H14R 4713   2.066   3.161   9.200  0.4924 -1.0065  1.2631
   35POPC  H14S 4714   1.979   3.030   9.115 -1.1238  2.1494  0.4629
   35POPC  C215 4715   2.133   3.100   9.001  0.2615  0.3034  0.7785
   35POPC  H15R 4716   2.230   3.154   8.998  0.4080  0.0729  1.4437
   35POPC  H15S 4717   2.057   3.164   8.951  0.8420 -0.1054 -0.6703
   35POPC  C216 4718   2.138   2.989   8.901 -0.4194 -0.4990 -0.6104
   35POPC  H16R 4719   2.042   2.933   8.900 -0.1871 -0.8978 -0.6329
   35POPC  H16S 4720   2.220   2.918   8.927 -0.5376 -0.5343 -0.3313
   35POPC  C217 4721   2.170   3.033   8.761  0.2963 -0.5565  0.2317
   35POPC  H17R 4722   2.252   3.108   8.757 -1.0108  0.8251 -0.7754
   35POPC  H17S 4723   2.083   3.093   8.727 -0.0096 -2.0046 -1.5980
   35POPC  C218 4724   2.182   2.913   8.669  1.5697  0.2627 -0.5848
   35POPC  H18R 4725   2.191   2.939   8.561  1.2929  1.9802 -0.2005
   35POPC  H18S 4726   2.094   2.846   8.681  2.1014 -0.2901  0.2467
   35POPC  H18T 4727   2.272   2.854   8.695  1.4626  1.1181  1.7968
   35POPC   C33 4728   2.045   3.135  10.184  0.1912  1.1162  0.0247
   35POPC   H3X 4729   2.075   3.029  10.175 -3.2195 -0.1759  2.7563
   35POPC   H3Y 4730   2.141   3.188  10.166  1.1792 -0.9039 -0.7723
   35POPC   C34 4731   1.940   3.161  10.071  0.1084  0.4395  0.2471
   35POPC   H4X 4732   1.911   3.268  10.068 -0.1891  0.3786  0.9613
   35POPC   H4Y 4733   1.843   3.107  10.078 -0.1363  0.5250 -1.9259
   35POPC   C35 4734   1.997   3.122   9.930  0.3413  0.2350  0.4019
   35POPC   H5X 4735   2.012   3.012   9.930  1.0849  0.3364 -0.3732
   35POPC   H5Y 4736   2.101   3.159   9.928  0.4032  0.0513  0.1831
   35POPC   C36 4737   1.910   3.166   9.810 -0.3674  0.3832 -0.2924
   35POPC   H6X 4738   1.956   3.129   9.716 -2.5096 -1.7884 -0.5361
   35POPC   H6Y 4739   1.909   3.277   9.819 -0.5757  0.5576 -2.2160
   35POPC   C37 4740   1.767   3.110   9.812 -0.2879  0.7696 -0.3826
   35POPC   H7X 4741   1.714   3.150   9.902  0.5856 -0.0086  0.4976
   35POPC   H7Y 4742   1.757   3.000   9.807  2.4910  0.4644  0.1524
   35POPC   C38 4743   1.690   3.168   9.693  0.2751 -0.2255  0.5386
   35POPC   H8X 4744   1.690   3.279   9.703  1.5515 -0.1860  0.1767
   35POPC   H8Y 4745   1.582   3.144   9.696  0.7261 -2.1608  1.8358
   35POPC   C39 4746   1.746   3.134   9.554 -0.3392  0.2946  0.6563
   35POPC   H9X 4747   1.767   3.025   9.567 -0.8961  0.3473  2.1143
   35POPC   H9Y 4748   1.839   3.191   9.538 -0.0933 -0.8522 -2.3055
   35POPC  C310 4749   1.652   3.156   9.435  0.1488 -0.1924 -1.1573
   35POPC  H10X 4750   1.618   3.262   9.439 -3.0016 -1.2231  0.6165
   35POPC  H10Y 4751   1.564   3.088   9.442 -2.0751  2.5972 -1.1177
   35POPC  C311 4752   1.718   3.127   9.295  0.3019  0.4373 -0.5129
   35POPC  H11X 4753   1.774   3.032   9.309  0.1141  0.0830 -2.0786
   35POPC  H11Y 4754   1.793   3.206   9.276 -3.1211  3.6464 -1.2272
   35POPC  C312 4755   1.626   3.119   9.177 -0.4744 -0.0297  0.3904
   35POPC  H12X 4756   1.572   3.214   9.157  0.7213  0.9281  1.6819
   35POPC  H12Y 4757   1.555   3.034   9.192  0.5563 -0.9746  0.0128
   35POPC  C313 4758   1.687   3.080   9.042  0.2058 -0.5048  0.1997
   35POPC  H13X 4759   1.758   2.996   9.058 -0.4323 -1.0917 -0.0529
   35POPC  H13Y 4760   1.748   3.170   9.015 -3.3487  1.6498 -0.9512
   35POPC  C314 4761   1.594   3.050   8.929 -0.4222  0.2479 -0.3869
   35POPC  H14X 4762   1.562   3.145   8.881  2.6538  0.7876 -1.4431
   35POPC  H14Y 4763   1.499   3.006   8.968  0.7955 -3.0509 -1.0159
   35POPC  C315 4764   1.654   2.950   8.819 -0.1718  0.1639 -0.2313
   35POPC  H15X 4765   1.575   2.903   8.757  1.0762  0.1427 -1.8564
   35POPC  H15Y 4766   1.701   2.864   8.872 -1.3289 -0.9872 -1.0323
   35POPC  C316 4767   1.757   3.018   8.734 -0.5852 -0.2468 -0.7442
   35POPC  H16X 4768   1.711   3.087   8.661 -1.7350  1.0141  1.1414
   35POPC  H16Y 4769   1.828   2.946   8.687  0.4378 -0.8112  1.6080
   35POPC  H16Z 4770   1.832   3.081   8.786 -1.1820  0.0049 -0.1864
   36POPC     N 4771   2.763   1.789  10.918  0.3586 -0.8264  0.1184
   36POPC   C12 4772   2.698   1.682  10.825 -0.7461 -0.3684 -0.8699
   36POPC  H12A 4773   2.704   1.704  10.719 -3.8823 -0.8161 -1.1698
   36POPC  H12B 4774   2.592   1.687  10.843 -0.7097 -0.2610 -0.6769
   36POPC   C13 4775   2.722   1.927  10.885  0.3047  0.3922  0.2276
   36POPC  H13A 4776   2.779   2.004  10.934  1.8320 -0.4077 -0.2738
   36POPC  H13B 4777   2.739   1.943  10.779  0.1768 -0.5603  0.0621
   36POPC  H13C 4778   2.617   1.945  10.901 -0.1631 -0.6874 -1.4079
   36POPC   C14 4779   2.731   1.756  11.060  0.1368 -0.3128 -0.2098
   36POPC  H14A 4780   2.777   1.817  11.136 -0.3437  1.0327 -0.9708
   36POPC  H14B 4781   2.625   1.767  11.079  0.3196 -1.5613  1.6391
   36POPC  H14C 4782   2.762   1.655  11.083  0.7000 -0.4240 -1.3945
   36POPC   C15 4783   2.907   1.782  10.901  0.3520 -0.1702 -0.2953
   36POPC  H15A 4784   2.954   1.686  10.917  0.0220 -0.5047 -1.2830
   36POPC  H15B 4785   2.950   1.850  10.972 -1.8136  0.3095  0.6051
   36POPC  H15C 4786   2.946   1.818  10.807  0.1203 -1.0036 -0.7216
   36POPC   C11 4787   2.743   1.533  10.839 -0.0212  0.8295  0.0683
   36POPC  H11A 4788   2.854   1.525  10.834 -0.0604 -0.6328  1.1748
   36POPC  H11B 4789   2.707   1.476  10.751  4.4542 -0.6527 -0.9446
   36POPC     P 4790   2.534   1.451  10.984  0.2118  0.1314  0.1264
   36POPC   O13 4791   2.481   1.590  11.005  0.0213 -0.1172 -0.4086
   36POPC   O14 4792   2.497   1.343  11.082 -0.6319 -0.3063  0.4085
   36POPC   O12 4793   2.694   1.470  10.961 -0.1715 -0.2079 -0.6304
   36POPC   O11 4794   2.478   1.403  10.844  0.4579  0.4991 -0.1167
   36POPC    C1 4795   2.489   1.261  10.809 -0.2025  0.2322  0.6881
   36POPC    HA 4796   2.396   1.205  10.834 -0.6997  1.6289  2.0323
   36POPC    HB 4797   2.576   1.206  10.851  1.2540  4.0656  2.9447
   36POPC    C2 4798   2.503   1.243  10.662  0.5240 -0.1349 -0.7296
   36POPC    HS 4799   2.607   1.261  10.628 -0.1078  2.3400 -1.4380
   36POPC   O21 4800   2.420   1.333  10.587 -0.3293  0.3116  0.4182
   36POPC   C21 4801   2.485   1.433  10.517 -0.4249 -0.7482  0.5399
   36POPC   O22 4802   2.605   1.457  10.513  0.0994  0.1353  0.3517
   36POPC   C22 4803   2.376   1.501  10.435 -0.2636 -0.0603 -0.5140
   36POPC   H2R 4804   2.414   1.601  10.403 -1.1601  0.4720  0.0580
   36POPC   H2S 4805   2.286   1.508  10.500 -0.1936  0.1496 -0.4388
   36POPC    C3 4806   2.462   1.103  10.628 -0.7382  0.2420  0.0969
   36POPC    HX 4807   2.353   1.100  10.652 -0.3013  0.3575  2.2458
   36POPC    HY 4808   2.498   1.025  10.699 -0.1550 -0.7780 -1.3059
   36POPC   O31 4809   2.490   1.065  10.490  0.4031 -0.0379 -0.4799
   36POPC   C31 4810   2.382   1.022  10.421 -0.8643  0.2590 -0.4382
   36POPC   O32 4811   2.266   1.044  10.450 -0.6652 -0.3184 -0.0099
   36POPC   C32 4812   2.430   0.940  10.307  0.7157 -0.3799  0.3457
   36POPC   H2X 4813   2.483   0.847  10.336 -0.2652 -1.6754 -1.8956
   36POPC   H2Y 4814   2.506   1.004  10.257  0.2881 -0.4902 -0.4605
   36POPC   C23 4815   2.358   1.424  10.308  0.1377 -0.2707  0.0660
   36POPC   H3R 4816   2.291   1.489  10.248 -2.1352 -1.0962  1.6727
   36POPC   H3S 4817   2.309   1.325  10.316 -1.8065  0.7395  0.8945
   36POPC   C24 4818   2.498   1.391  10.232  0.6593 -0.5847  0.6073
   36POPC   H4R 4819   2.570   1.328  10.287  1.5726 -1.1136 -1.1430
   36POPC   H4S 4820   2.550   1.484  10.199  0.8644 -0.8366  0.2100
   36POPC   C25 4821   2.464   1.301  10.113  0.2931  0.1727 -0.1633
   36POPC   H5R 4822   2.399   1.220  10.152 -0.9914  1.4548  0.3707
   36POPC   H5S 4823   2.549   1.239  10.075  0.6429  0.3796  0.2737
   36POPC   C26 4824   2.413   1.378   9.990  0.5682 -0.0954  0.0607
   36POPC   H6R 4825   2.486   1.456   9.960  1.5449 -0.7719  0.6509
   36POPC   H6S 4826   2.332   1.444  10.026 -1.9610 -1.2513 -3.2191
   36POPC   C27 4827   2.374   1.281   9.877  0.9493  0.1317 -0.0623
   36POPC   H7R 4828   2.300   1.327   9.809  2.5837  2.4116 -0.3669
   36POPC   H7S 4829   2.329   1.183   9.905  1.3640  0.2362  1.0070
   36POPC   C28 4830   2.489   1.249   9.784  0.0270  0.2790  0.0054
   36POPC   H8R 4831   2.466   1.162   9.719 -0.3393 -1.6079  2.6033
   36POPC   H8S 4832   2.575   1.205   9.839 -1.5338 -0.8665  1.5924
   36POPC   C29 4833   2.535   1.371   9.707 -0.2949 -0.3095 -0.2927
   36POPC   H91 4834   2.555   1.464   9.763  0.3547 -0.4183 -0.3382
   36POPC  C210 4835   2.551   1.372   9.574 -0.1860 -0.0446  0.2897
   36POPC  H101 4836   2.566   1.465   9.519 -2.0420  0.7272  1.0538
   36POPC  C211 4837   2.525   1.254   9.482  0.2364 -0.3854  0.1626
   36POPC  H11R 4838   2.437   1.275   9.417 -1.9424 -0.9400  2.8456
   36POPC  H11S 4839   2.500   1.155   9.525 -2.2494  0.1575  0.0118
   36POPC  C212 4840   2.637   1.213   9.393 -0.6739  0.2042  0.1158
   36POPC  H12R 4841   2.717   1.175   9.461 -0.9637  0.6907  0.7374
   36POPC  H12S 4842   2.689   1.302   9.352 -0.5737  0.2432  0.3229
   36POPC  C213 4843   2.595   1.108   9.284  0.7645  0.8911 -0.4659
   36POPC  H13R 4844   2.513   1.158   9.227  0.1441 -0.4250 -0.7679
   36POPC  H13S 4845   2.553   1.013   9.325  1.1017  0.2019 -1.6657
   36POPC  C214 4846   2.712   1.062   9.201  0.0195 -0.0926  0.7948
   36POPC  H14R 4847   2.685   0.963   9.159 -1.9291  1.2114 -1.1665
   36POPC  H14S 4848   2.799   1.045   9.267  1.4428  1.5258 -0.6260
   36POPC  C215 4849   2.751   1.154   9.081 -0.6246 -0.2117  0.2149
   36POPC  H15R 4850   2.848   1.107   9.057 -1.6559 -1.7221 -1.1010
   36POPC  H15S 4851   2.771   1.263   9.094 -0.1625 -0.0217 -1.8635
   36POPC  C216 4852   2.655   1.139   8.959  0.6764  0.0270  0.3832
   36POPC  H16R 4853   2.564   1.193   8.994 -0.5762 -1.8050 -0.0013
   36POPC  H16S 4854   2.627   1.034   8.940 -0.1934  0.1804  0.8054
   36POPC  C217 4855   2.705   1.203   8.824  0.2760 -0.4127 -0.5554
   36POPC  H17R 4856   2.798   1.152   8.791 -0.8879 -2.4526 -0.8076
   36POPC  H17S 4857   2.724   1.312   8.831  0.5690 -0.4456 -0.8470
   36POPC  C218 4858   2.603   1.200   8.706  0.0364  0.9364  0.3284
   36POPC  H18R 4859   2.504   1.229   8.748 -0.4732  0.9654 -0.8836
   36POPC  H18S 4860   2.597   1.097   8.666  0.5767  0.7512  0.7178
   36POPC  H18T 4861   2.632   1.273   8.628  3.7504  0.2384  0.9613
   36POPC   C33 4862   2.317   0.911  10.210  0.3368  0.4618 -0.2768
   36POPC   H3X 4863   2.244   0.994  10.202 -0.0076  0.0345 -1.6734
   36POPC   H3Y 4864   2.247   0.830  10.241  0.0055  1.0287  0.4649
   36POPC   C34 4865   2.359   0.881  10.068 -0.2501 -0.7374 -0.4134
   36POPC   H4X 4866   2.402   0.780  10.051 -1.4378 -1.5821  1.4029
   36POPC   H4Y 4867   2.434   0.955  10.033  1.0276 -3.2814 -3.2493
   36POPC   C35 4868   2.238   0.892   9.968  1.2259  0.2066  0.4481
   36POPC   H5X 4869   2.204   0.997   9.970 -2.5930 -0.9388 -0.4573
   36POPC   H5Y 4870   2.154   0.831  10.007 -0.2031  0.8713 -1.5040
   36POPC   C36 4871   2.261   0.860   9.818  0.4543  0.0729 -1.2976
   36POPC   H6X 4872   2.303   0.758   9.807  0.7946  0.0687 -0.0134
   36POPC   H6Y 4873   2.341   0.929   9.785  1.3396  0.0833  0.7975
   36POPC   C37 4874   2.132   0.875   9.730 -0.0643  0.2421 -0.3690
   36POPC   H7X 4875   2.084   0.975   9.729 -0.0114  0.2646 -0.7250
   36POPC   H7Y 4876   2.058   0.801   9.767 -0.0860  0.7367  0.5881
   36POPC   C38 4877   2.160   0.811   9.590  0.1927 -0.1904  0.3972
   36POPC   H8X 4878   2.066   0.783   9.539 -1.1179 -0.5175  2.9314
   36POPC   H8Y 4879   2.211   0.716   9.613  1.6591  0.1835 -1.1597
   36POPC   C39 4880   2.242   0.889   9.493 -0.1218  0.3103 -0.2313
   36POPC   H9X 4881   2.286   0.819   9.419  0.5006  0.7212 -0.2471
   36POPC   H9Y 4882   2.334   0.915   9.548 -0.0073 -2.0927  0.7816
   36POPC  C310 4883   2.170   1.019   9.446  0.8368  0.0071  0.0070
   36POPC  H10X 4884   2.231   1.064   9.364  1.6789  1.4048  1.3780
   36POPC  H10Y 4885   2.177   1.095   9.526  0.5068 -0.9938  0.9911
   36POPC  C311 4886   2.025   0.995   9.403 -0.6201  0.3767  0.0284
   36POPC  H11X 4887   1.977   1.091   9.375  0.8962  0.9353 -0.6901
   36POPC  H11Y 4888   1.977   0.959   9.497  0.1915 -1.2608 -0.1627
   36POPC  C312 4889   1.995   0.900   9.290 -0.3946  0.3373  0.6177
   36POPC  H12X 4890   2.016   0.794   9.316 -0.5263 -0.3341 -1.8334
   36POPC  H12Y 4891   2.058   0.920   9.201 -0.8791 -1.0977 -0.0609
   36POPC  C313 4892   1.850   0.895   9.243  0.4053 -0.3829  0.0596
   36POPC  H13X 4893   1.779   0.895   9.328  0.8083  1.9877  0.4451
   36POPC  H13Y 4894   1.847   0.801   9.184 -0.2059 -1.5099  1.8489
   36POPC  C314 4895   1.807   1.016   9.159  0.7079 -0.4240  0.3132
   36POPC  H14X 4896   1.762   0.966   9.071 -0.5650  0.6428  0.3445
   36POPC  H14Y 4897   1.894   1.075   9.122 -0.3350  0.3193 -1.0060
   36POPC  C315 4898   1.704   1.097   9.236 -0.1109 -0.0559  0.2737
   36POPC  H15X 4899   1.751   1.145   9.324  1.4618 -3.1572  1.1919
   36POPC  H15Y 4900   1.616   1.041   9.277 -1.6173  1.5680 -0.6799
   36POPC  C316 4901   1.641   1.203   9.150  0.2387 -0.2324 -0.4275
   36POPC  H16X 4902   1.592   1.147   9.067 -0.4314 -0.7845  0.3339
   36POPC  H16Y 4903   1.718   1.271   9.110  0.7371 -0.8442 -0.5070
   36POPC  H16Z 4904   1.564   1.263   9.203  0.8086 -0.3635  0.5416
   37POPC     N 4905   1.007   4.136   6.283 -0.1851 -0.1749 -0.5884
   37POPC   C12 4906   0.993   4.012   6.361  0.4779  0.0337  0.6791
   37POPC  H12A 4907   1.059   3.932   6.328 -0.1026  1.5146 -4.6109
   37POPC  H12B 4908   0.902   3.962   6.330 -0.8712  1.1041  2.7940
   37POPC   C13 4909   0.976   4.113   6.139 -0.3246  0.9846  0.6902
   37POPC  H13A 4910   0.885   4.059   6.115  0.1875 -0.3729  1.7058
   37POPC  H13B 4911   0.974   4.207   6.087  0.8678  1.3709  1.3086
   37POPC  H13C 4912   1.056   4.048   6.107 -1.1148  0.6764 -0.6890
   37POPC   C14 4913   0.903   4.237   6.331 -0.1646  0.9232 -0.1073
   37POPC  H14A 4914   0.916   4.327   6.274  0.1621 -1.8418 -4.6366
   37POPC  H14B 4915   0.801   4.206   6.317  0.2759  0.0797 -1.6115
   37POPC  H14C 4916   0.921   4.254   6.436 -1.6867  0.3626  0.2447
   37POPC   C15 4917   1.134   4.203   6.299 -0.2214  0.1180  0.4573
   37POPC  H15A 4918   1.158   4.219   6.403 -1.5061  1.1513  0.5940
   37POPC  H15B 4919   1.134   4.301   6.254 -1.0787 -0.0301  0.1334
   37POPC  H15C 4920   1.214   4.147   6.253 -0.0947  1.4643 -1.0199
   37POPC   C11 4921   0.988   4.015   6.512 -0.5018 -0.4251  0.6904
   37POPC  H11A 4922   0.986   3.909   6.546 -3.4057  0.6815  4.3531
   37POPC  H11B 4923   0.890   4.060   6.541  1.0720  3.7063 -0.0486
   37POPC     P 4924   1.197   4.051   6.676  0.3969 -0.2017 -0.0091
   37POPC   O13 4925   1.283   4.172   6.699  0.0563 -0.3420  0.9585
   37POPC   O14 4926   1.263   3.931   6.617 -0.1322 -0.2113  0.1051
   37POPC   O12 4927   1.078   4.101   6.576  0.1244  0.1739 -0.0577
   37POPC   O11 4928   1.108   4.022   6.807  0.2901 -0.2109  0.9783
   37POPC    C1 4929   0.991   4.096   6.845 -0.4017 -0.0172 -0.8875
   37POPC    HA 4930   0.945   4.157   6.764 -2.7067 -0.1788  0.2534
   37POPC    HB 4931   1.023   4.180   6.911  1.1617 -2.6755  1.8613
   37POPC    C2 4932   0.890   4.009   6.913  0.1026 -0.5350  0.4100
   37POPC    HS 4933   0.813   4.072   6.963 -0.5749 -0.7539 -0.3566
   37POPC   O21 4934   0.948   3.915   7.007  0.5610  0.1689 -0.0149
   37POPC   C21 4935   1.009   3.975   7.112  0.8653 -0.2961 -0.1312
   37POPC   O22 4936   1.025   4.094   7.130  0.0462  0.3388  0.4515
   37POPC   C22 4937   1.074   3.862   7.186 -0.2211  0.0512 -0.2882
   37POPC   H2R 4938   1.177   3.857   7.145 -0.7580  0.7240 -1.7645
   37POPC   H2S 4939   1.017   3.767   7.173  2.9013 -1.8901 -0.4315
   37POPC    C3 4940   0.801   3.925   6.816 -0.4347 -0.4058 -0.4542
   37POPC    HX 4941   0.864   3.847   6.767  1.2683  1.1989 -0.8949
   37POPC    HY 4942   0.761   3.993   6.739 -0.8027 -0.0746  0.0285
   37POPC   O31 4943   0.690   3.876   6.882  0.3520  0.1075 -0.1170
   37POPC   C31 4944   0.686   3.744   6.897  0.4910 -1.0738  0.0570
   37POPC   O32 4945   0.775   3.663   6.869 -0.4811 -0.5147 -0.4006
   37POPC   C32 4946   0.556   3.716   6.970  0.1761  0.2238  0.0086
   37POPC   H2X 4947   0.472   3.742   6.901 -0.2153  0.9627  0.7460
   37POPC   H2Y 4948   0.543   3.796   7.046  2.0666 -0.1475  0.7385
   37POPC   C23 4949   1.094   3.882   7.339  0.4677 -0.1558 -0.4119
   37POPC   H3R 4950   1.145   3.786   7.363  0.7166  0.0374 -0.1678
   37POPC   H3S 4951   1.002   3.888   7.400  0.3064 -0.6415 -0.6032
   37POPC   C24 4952   1.180   4.002   7.375 -0.0843  0.0592  0.2575
   37POPC   H4R 4953   1.169   4.085   7.303 -1.3243  0.5891  1.0577
   37POPC   H4S 4954   1.283   3.968   7.348 -0.0775  0.1851  0.1271
   37POPC   C25 4955   1.183   4.034   7.526 -0.4240  0.0415  0.0797
   37POPC   H5R 4956   1.076   4.028   7.555 -0.5439 -2.9965 -0.8790
   37POPC   H5S 4957   1.202   4.143   7.536 -0.6795 -0.2076  4.1059
   37POPC   C26 4958   1.280   3.959   7.614 -0.0145 -0.4777  0.3571
   37POPC   H6R 4959   1.385   3.957   7.577 -0.0953  1.0396  0.0112
   37POPC   H6S 4960   1.241   3.858   7.642 -2.1389  0.2933  0.2550
   37POPC   C27 4961   1.294   4.040   7.751 -0.5373  0.1304 -0.3562
   37POPC   H7R 4962   1.202   4.086   7.794  0.2093  1.2253  0.0907
   37POPC   H7S 4963   1.355   4.130   7.727 -0.4594  0.4594  0.9936
   37POPC   C28 4964   1.355   3.942   7.855 -0.5049 -0.4340 -0.7603
   37POPC   H8R 4965   1.440   3.894   7.802 -0.8301 -0.0897 -1.6071
   37POPC   H8S 4966   1.286   3.859   7.879 -0.1604 -0.7854 -0.9678
   37POPC   C29 4967   1.401   4.025   7.974  0.7786  1.0483  0.4627
   37POPC   H91 4968   1.503   4.065   7.961  1.7989 -1.3771  0.7707
   37POPC  C210 4969   1.351   4.049   8.098 -0.0533  0.5854  0.9698
   37POPC  H101 4970   1.411   4.102   8.173  1.0751 -0.4364  0.8079
   37POPC  C211 4971   1.225   3.981   8.156  0.8964  0.1317 -0.0736
   37POPC  H11R 4972   1.173   3.912   8.087  1.3961 -0.7791  0.4565
   37POPC  H11S 4973   1.156   4.064   8.182 -1.3555 -2.0692  1.1457
   37POPC  C212 4974   1.253   3.891   8.278  0.1704  0.3268 -1.2196
   37POPC  H12R 4975   1.306   3.950   8.356 -2.8302  2.5310 -0.7110
   37POPC  H12S 4976   1.302   3.798   8.245  1.1690 -0.7414  3.0571
   37POPC  C213 4977   1.117   3.863   8.353 -0.4446  0.3849 -0.1097
   37POPC  H13R 4978   1.048   3.814   8.281 -0.4073 -0.4976  0.4476
   37POPC  H13S 4979   1.068   3.957   8.387  0.0457  0.0048  1.7021
   37POPC  C214 4980   1.133   3.763   8.473 -0.4086  0.1901 -0.0021
   37POPC  H14R 4981   1.235   3.777   8.514  0.2291  0.0657 -1.5281
   37POPC  H14S 4982   1.133   3.666   8.421 -0.2864  0.0877  0.1885
   37POPC  C215 4983   1.024   3.762   8.583 -0.3148  0.7084 -0.3327
   37POPC  H15R 4984   1.029   3.665   8.636 -1.4850 -0.7538 -2.8410
   37POPC  H15S 4985   0.932   3.769   8.521  0.0832 -0.2917 -1.0410
   37POPC  C216 4986   1.033   3.869   8.688  0.4514 -0.2445 -0.0746
   37POPC  H16R 4987   1.018   3.976   8.661 -1.8623 -0.5810 -0.2388
   37POPC  H16S 4988   1.137   3.864   8.725  0.5777 -0.4467 -0.4621
   37POPC  C217 4989   0.932   3.841   8.806  0.2337 -0.3090  0.0650
   37POPC  H17R 4990   0.969   3.894   8.896 -1.7352  2.4195 -0.6709
   37POPC  H17S 4991   0.944   3.733   8.831  0.2852 -0.4510 -0.5680
   37POPC  C218 4992   0.782   3.868   8.771 -0.1863  0.3240  0.6510
   37POPC  H18R 4993   0.775   3.970   8.727 -0.5185 -1.1609 -2.9177
   37POPC  H18S 4994   0.729   3.864   8.868 -0.4965  0.0844  0.4743
   37POPC  H18T 4995   0.732   3.798   8.701 -0.0565  0.5900  0.2862
   37POPC   C33 4996   0.544   3.576   7.031 -0.4224 -0.1051 -0.9607
   37POPC   H3X 4997   0.642   3.551   7.078 -1.2414 -2.2145 -0.2992
   37POPC   H3Y 4998   0.521   3.493   6.961 -2.4788 -2.0823  1.9292
   37POPC   C34 4999   0.443   3.572   7.147  0.9422 -0.2286  0.2501
   37POPC   H4X 5000   0.426   3.675   7.184 -2.1649 -0.9162  0.8243
   37POPC   H4Y 5001   0.486   3.518   7.235 -2.8240  0.9396  2.9204
   37POPC   C35 5002   0.311   3.502   7.109 -0.2246  0.6721 -0.5927
   37POPC   H5X 5003   0.332   3.397   7.078  2.1941  1.8611 -3.1570
   37POPC   H5Y 5004   0.256   3.551   7.027  0.1643  2.5544  0.2502
   37POPC   C36 5005   0.224   3.486   7.240  0.5875  0.3189  0.1524
   37POPC   H6X 5006   0.184   3.589   7.257 -1.3229 -0.5781  1.2890
   37POPC   H6Y 5007   0.280   3.456   7.330 -0.1513 -1.4770  0.0332
   37POPC   C37 5008   0.097   3.401   7.229 -0.3510 -0.4381 -0.0066
   37POPC   H7X 5009   0.124   3.303   7.185  1.4004 -0.2375  0.5727
   37POPC   H7Y 5010   0.032   3.451   7.154 -0.8064 -0.7889  0.1525
   37POPC   C38 5011   0.022   3.392   7.360  0.0368  0.7153  0.6039
   37POPC   H8X 5012  -0.008   3.495   7.390  1.3796  0.1146  4.2645
   37POPC   H8Y 5013   0.079   3.358   7.449  1.1565  3.1200  0.8533
   37POPC   C39 5014  -0.107   3.303   7.358 -0.3506  0.2395  0.3797
   37POPC   H9X 5015  -0.067   3.201   7.344 -1.5210 -0.2315  0.4524
   37POPC   H9Y 5016  -0.176   3.334   7.276  1.0663 -0.1564 -0.9906
   37POPC  C310 5017  -0.196   3.305   7.485 -0.0120 -0.2757 -0.5200
   37POPC  H10X 5018  -0.258   3.396   7.476  0.3037 -0.0924 -0.8746
   37POPC  H10Y 5019  -0.131   3.304   7.575 -1.2865 -4.5027  0.4816
   37POPC  C311 5020  -0.286   3.185   7.517  0.2657  0.5110 -0.2179
   37POPC  H11X 5021  -0.224   3.093   7.513  1.0982  0.9486  1.8893
   37POPC  H11Y 5022  -0.357   3.179   7.432 -1.9305  2.8912  1.3929
   37POPC  C312 5023  -0.353   3.186   7.651 -0.3787 -0.3350  0.1195
   37POPC  H12X 5024  -0.421   3.272   7.671  0.6871  0.5413 -0.0029
   37POPC  H12Y 5025  -0.273   3.202   7.726  0.6915  4.9402 -1.9466
   37POPC  C313 5026  -0.440   3.057   7.679 -0.1193  0.0846  0.1850
   37POPC  H13X 5027  -0.466   3.065   7.786 -0.3589 -1.3730  0.2451
   37POPC  H13Y 5028  -0.372   2.969   7.681 -0.4913 -0.3250 -2.4953
   37POPC  C314 5029  -0.570   3.045   7.598 -0.6544 -0.0625 -0.6705
   37POPC  H14X 5030  -0.560   3.027   7.488 -0.7901 -1.9463 -0.3928
   37POPC  H14Y 5031  -0.617   3.146   7.596 -0.8861 -0.1354  0.8792
   37POPC  C315 5032  -0.663   2.940   7.644 -1.0509  0.3136 -0.4594
   37POPC  H15X 5033  -0.694   2.952   7.750  1.1561 -0.7319  0.3353
   37POPC  H15Y 5034  -0.613   2.841   7.644  0.0529  0.8375 -3.4741
   37POPC  C316 5035  -0.784   2.938   7.554 -0.1226 -0.1789 -0.4601
   37POPC  H16X 5036  -0.848   2.848   7.563 -2.5294  1.6582  1.4651
   37POPC  H16Y 5037  -0.758   2.943   7.446 -1.9366 -0.5523 -0.9293
   37POPC  H16Z 5038  -0.858   3.014   7.588  0.2695  0.8744 -1.9085
   38POPC     N 5039   1.884   0.828   6.060  0.9157 -0.2845  0.0986
   38POPC   C12 5040   2.008   0.876   6.130  0.1400 -1.0590 -0.1253
   38POPC  H12A 5041   1.999   0.983   6.147  1.1507 -1.2590  1.7967
   38POPC  H12B 5042   2.088   0.857   6.060  0.7575  1.5448 -0.2072
   38POPC   C13 5043   1.770   0.823   6.154  0.0279  0.0351  0.3529
   38POPC  H13A 5044   1.686   0.763   6.121 -0.2161  0.2389  0.6017
   38POPC  H13B 5045   1.809   0.771   6.240  1.1962  0.5657  0.1543
   38POPC  H13C 5046   1.743   0.921   6.191  0.2850  0.1672  0.1896
   38POPC   C14 5047   1.851   0.926   5.948 -0.6701 -0.3940  0.4201
   38POPC  H14A 5048   1.834   1.024   5.990  0.1489 -0.3656  0.6733
   38POPC  H14B 5049   1.940   0.936   5.889 -1.3174  0.5056 -0.4204
   38POPC  H14C 5050   1.771   0.887   5.886  1.8644 -1.6671 -2.1142
   38POPC   C15 5051   1.903   0.692   6.002  0.2132  0.3972  0.0562
   38POPC  H15A 5052   1.820   0.659   5.941  2.1303 -0.9664 -1.8747
   38POPC  H15B 5053   1.931   0.626   6.083  1.6504  0.2395 -0.5481
   38POPC  H15C 5054   1.977   0.700   5.924 -0.8846  0.8995 -0.9369
   38POPC   C11 5055   2.042   0.794   6.253 -0.0342  0.1896  0.0080
   38POPC  H11A 5056   2.147   0.825   6.271  0.3296 -0.0129 -1.7676
   38POPC  H11B 5057   2.047   0.686   6.228  0.4984  0.6651 -1.9938
   38POPC     P 5058   2.008   0.787   6.509  0.4472 -0.2060 -0.0493
   38POPC   O13 5059   1.889   0.720   6.573 -0.5661  0.4481 -0.3958
   38POPC   O14 5060   2.061   0.908   6.575 -0.2033  0.2609 -0.0414
   38POPC   O12 5061   1.961   0.823   6.367 -0.1696 -0.0925  0.4407
   38POPC   O11 5062   2.130   0.684   6.498  0.0917  0.0820 -1.1801
   38POPC    C1 5063   2.109   0.545   6.502 -0.7259 -0.4686 -0.6219
   38POPC    HA 5064   2.082   0.506   6.402 -1.0739  1.8820 -1.4692
   38POPC    HB 5065   2.030   0.520   6.576 -0.8936 -0.5611 -0.8312
   38POPC    C2 5066   2.233   0.473   6.557  0.1137  0.3580 -0.4537
   38POPC    HS 5067   2.212   0.368   6.586 -1.8600  1.1189  0.9429
   38POPC   O21 5068   2.287   0.535   6.675  0.0074 -0.1268 -0.6902
   38POPC   C21 5069   2.223   0.504   6.796 -0.0726  0.2203  0.0194
   38POPC   O22 5070   2.123   0.433   6.804  0.2746 -0.1882 -0.0964
   38POPC   C22 5071   2.281   0.584   6.908  0.2806 -0.6528 -0.1642
   38POPC   H2R 5072   2.331   0.679   6.878  0.4012 -1.0876 -1.3384
   38POPC   H2S 5073   2.355   0.528   6.969  1.5535  1.7269  0.5571
   38POPC    C3 5074   2.343   0.462   6.445 -0.0720 -0.8097 -0.1634
   38POPC    HX 5075   2.363   0.560   6.397  0.5225 -0.0351  1.5991
   38POPC    HY 5076   2.289   0.405   6.367  0.3774  0.0057 -1.0859
   38POPC   O31 5077   2.468   0.398   6.471  0.1556  0.0056 -0.9170
   38POPC   C31 5078   2.564   0.476   6.522 -0.1716  0.3328  0.6092
   38POPC   O32 5079   2.565   0.594   6.505 -0.1873 -0.8544 -0.0794
   38POPC   C32 5080   2.677   0.394   6.575  0.0836  0.3192 -0.0267
   38POPC   H2X 5081   2.764   0.435   6.519  0.7360  1.4648  1.7651
   38POPC   H2Y 5082   2.654   0.288   6.550 -0.4865  0.0411  1.6088
   38POPC   C23 5083   2.157   0.623   6.996 -1.3790 -0.0688 -0.2369
   38POPC   H3R 5084   2.137   0.545   7.072  1.5477 -1.0705 -0.4339
   38POPC   H3S 5085   2.061   0.627   6.941 -2.5239 -0.0497  1.7248
   38POPC   C24 5086   2.165   0.754   7.090 -0.5039  0.6805 -0.0659
   38POPC   H4R 5087   2.079   0.773   7.158 -1.0494  1.1493 -0.8645
   38POPC   H4S 5088   2.167   0.841   7.020 -2.9551  0.6890 -0.1842
   38POPC   C25 5089   2.297   0.760   7.171 -0.6330 -0.0734  0.5006
   38POPC   H5R 5090   2.305   0.862   7.214 -2.0909 -0.3621  1.5135
   38POPC   H5S 5091   2.381   0.750   7.099 -0.8201  1.1074  0.1062
   38POPC   C26 5092   2.307   0.638   7.263  0.5771  0.3912  0.4118
   38POPC   H6R 5093   2.348   0.554   7.203  2.2138  0.4549  1.4060
   38POPC   H6S 5094   2.208   0.599   7.295  0.9535  0.4826  1.6961
   38POPC   C27 5095   2.382   0.661   7.393  0.2765  0.2160  0.1360
   38POPC   H7R 5096   2.328   0.713   7.474 -1.4111  0.5180 -1.1517
   38POPC   H7S 5097   2.466   0.725   7.357  2.5820 -2.5377  0.4062
   38POPC   C28 5098   2.458   0.533   7.442  0.1397 -0.0168  0.1372
   38POPC   H8R 5099   2.507   0.481   7.358  0.8898  0.6894  0.1285
   38POPC   H8S 5100   2.379   0.461   7.471  0.0150 -0.8011 -2.0986
   38POPC   C29 5101   2.553   0.580   7.549 -0.4111 -0.2482  0.6926
   38POPC   H91 5102   2.649   0.623   7.516 -0.2505 -0.0021  1.4903
   38POPC  C210 5103   2.531   0.584   7.679  0.0588 -0.2648 -0.5289
   38POPC  H101 5104   2.602   0.647   7.734 -0.9058 -0.5814  1.1215
   38POPC  C211 5105   2.407   0.538   7.751  0.2088 -0.0606  0.5762
   38POPC  H11R 5106   2.398   0.427   7.756 -3.3069  0.1815  1.4246
   38POPC  H11S 5107   2.319   0.566   7.689 -0.5795  0.1621  1.7804
   38POPC  C212 5108   2.390   0.607   7.890  0.1965 -0.5208 -0.1017
   38POPC  H12R 5109   2.359   0.713   7.876 -2.3125 -1.3206 -0.8519
   38POPC  H12S 5110   2.490   0.611   7.939 -0.2995 -0.1910  0.9023
   38POPC  C213 5111   2.295   0.527   7.980  0.4035 -0.2848 -0.1915
   38POPC  H13R 5112   2.314   0.420   7.956 -1.3333 -0.7679  0.5165
   38POPC  H13S 5113   2.192   0.553   7.947  0.2058  0.5029  1.0318
   38POPC  C214 5114   2.313   0.555   8.125  0.8523 -0.0810 -1.3819
   38POPC  H14R 5115   2.407   0.517   8.172  1.4853  4.6589  1.4669
   38POPC  H14S 5116   2.234   0.493   8.173 -0.1761  3.7320  2.2297
   38POPC  C215 5117   2.309   0.702   8.163  0.0927 -0.0892  0.2546
   38POPC  H15R 5118   2.265   0.764   8.082 -1.1924 -1.7462 -0.3422
   38POPC  H15S 5119   2.414   0.739   8.164 -0.1304  0.8662 -3.9354
   38POPC  C216 5120   2.223   0.725   8.298 -0.1298 -0.0723 -0.0500
   38POPC  H16R 5121   2.268   0.658   8.375  2.0818  0.3806 -0.9117
   38POPC  H16S 5122   2.118   0.695   8.278  0.2020 -1.4226  0.1716
   38POPC  C217 5123   2.229   0.865   8.345  0.5877 -0.3490 -0.1452
   38POPC  H17R 5124   2.149   0.866   8.422  0.8433 -1.2066  0.1406
   38POPC  H17S 5125   2.213   0.941   8.266  2.4051 -0.1287 -0.3275
   38POPC  C218 5126   2.357   0.893   8.418  0.0054 -0.3526 -0.4902
   38POPC  H18R 5127   2.370   0.817   8.498  3.1810  0.2881 -0.3337
   38POPC  H18S 5128   2.346   0.990   8.470 -1.1007 -1.3468  1.1824
   38POPC  H18T 5129   2.449   0.895   8.355 -0.0838 -0.8599 -0.6434
   38POPC   C33 5130   2.690   0.404   6.733  0.4624 -0.3877 -0.3989
   38POPC   H3X 5131   2.672   0.512   6.751 -1.7593 -0.5340 -1.5427
   38POPC   H3Y 5132   2.797   0.390   6.760  0.4105  0.2146  0.1219
   38POPC   C34 5133   2.590   0.323   6.812 -0.2578 -0.1215 -0.6903
   38POPC   H4X 5134   2.583   0.221   6.768 -2.3285  0.4616 -1.7921
   38POPC   H4Y 5135   2.495   0.380   6.805  0.9771  2.1999  0.8525
   38POPC   C35 5136   2.640   0.300   6.956 -0.0976 -0.1284 -0.1127
   38POPC   H5X 5137   2.630   0.400   7.003  0.8713  1.4052 -3.0280
   38POPC   H5Y 5138   2.747   0.268   6.954 -0.5258 -1.7316  1.0108
   38POPC   C36 5139   2.561   0.192   7.038  0.2284 -0.3465 -0.1806
   38POPC   H6X 5140   2.576   0.091   6.995  0.6673 -0.4680  0.2494
   38POPC   H6Y 5141   2.454   0.211   7.018 -0.0610 -2.5324 -0.7942
   38POPC   C37 5142   2.590   0.215   7.180 -0.1629  0.1696  0.2532
   38POPC   H7X 5143   2.595   0.323   7.205 -0.4017  0.5043 -1.1357
   38POPC   H7Y 5144   2.695   0.182   7.194  0.1427  0.6634 -0.8256
   38POPC   C38 5145   2.521   0.126   7.288  0.5552  0.4466  0.8717
   38POPC   H8X 5146   2.532   0.018   7.263 -1.6182  0.6324 -1.0878
   38POPC   H8Y 5147   2.411   0.142   7.277 -0.2755 -4.3401  1.2205
   38POPC   C39 5148   2.566   0.159   7.433  0.1424  0.3422 -0.1542
   38POPC   H9X 5149   2.556   0.269   7.447  2.7178  0.5647  0.2714
   38POPC   H9Y 5150   2.674   0.134   7.436 -1.0063 -5.2611 -1.1241
   38POPC  C310 5151   2.496   0.080   7.546 -0.1094  0.6453 -0.0201
   38POPC  H10X 5152   2.513  -0.028   7.528 -2.2110  0.3263 -0.2000
   38POPC  H10Y 5153   2.387   0.100   7.541 -0.6953 -1.6523  2.3272
   38POPC  C311 5154   2.566   0.101   7.680 -0.7401  0.4320 -0.7385
   38POPC  H11X 5155   2.571   0.208   7.710  0.2579  0.1970 -0.0454
   38POPC  H11Y 5156   2.666   0.054   7.672 -1.0773 -1.0989  2.8616
   38POPC  C312 5157   2.494   0.038   7.798 -0.3404 -0.3429  0.0929
   38POPC  H12X 5158   2.453  -0.063   7.774 -0.5744 -0.5268  1.2312
   38POPC  H12Y 5159   2.414   0.111   7.819  0.4259  0.1083  1.5065
   38POPC  C313 5160   2.585   0.023   7.927  0.2134  0.0525 -0.6217
   38POPC  H13X 5161   2.683  -0.017   7.894  1.1922 -0.1889  2.4616
   38POPC  H13Y 5162   2.547  -0.068   7.977 -0.8505  1.8371  1.8990
   38POPC  C314 5163   2.583   0.143   8.013 -0.3365  0.2334  0.3210
   38POPC  H14X 5164   2.486   0.165   8.063 -1.6564 -1.7086 -1.3129
   38POPC  H14Y 5165   2.603   0.228   7.946  1.1021  2.1779  3.1048
   38POPC  C315 5166   2.704   0.154   8.110 -0.4659 -0.7194 -0.1004
   38POPC  H15X 5167   2.797   0.130   8.054 -1.6604 -1.3878 -1.8221
   38POPC  H15Y 5168   2.699   0.072   8.185  1.7445 -0.4171  0.4084
   38POPC  C316 5169   2.711   0.288   8.186 -0.2385  0.1354 -0.2570
   38POPC  H16X 5170   2.780   0.293   8.273  2.3994 -1.2766 -2.2135
   38POPC  H16Y 5171   2.611   0.328   8.213  0.5763  0.6818  2.0444
   38POPC  H16Z 5172   2.755   0.360   8.113 -0.9428  1.4220  0.5551
   39POPC     N 5173   6.730   4.050   6.204  1.3387  0.0735 -0.4708
   39POPC   C12 5174   6.586   4.072   6.249  0.4551 -0.1304 -0.2256
   39POPC  H12A 5175   6.549   3.974   6.276 -2.9748  1.4018  0.9472
   39POPC  H12B 5176   6.524   4.072   6.160 -0.4356 -3.0013  0.3605
   39POPC   C13 5177   6.784   4.174   6.131  0.4400  0.4673 -0.3452
   39POPC  H13A 5178   6.885   4.168   6.095  0.5062  1.8345 -0.4015
   39POPC  H13B 5179   6.746   4.193   6.031  0.5200  0.6429 -0.3428
   39POPC  H13C 5180   6.793   4.255   6.202 -0.6140 -0.7783  1.2381
   39POPC   C14 5181   6.818   4.012   6.321 -0.2578  0.0249 -0.1587
   39POPC  H14A 5182   6.788   3.916   6.361 -2.9322  0.6503 -0.5507
   39POPC  H14B 5183   6.920   4.009   6.287 -0.7273 -2.1185 -1.4586
   39POPC  H14C 5184   6.810   4.096   6.388  2.1295  1.1375 -1.2179
   39POPC   C15 5185   6.739   3.936   6.108  0.8668 -0.1067 -0.1469
   39POPC  H15A 5186   6.718   3.840   6.153 -0.3711  0.9417  1.6145
   39POPC  H15B 5187   6.829   3.931   6.049  0.3203  0.8336 -1.0745
   39POPC  H15C 5188   6.662   3.945   6.033  2.4870 -1.6803 -2.0498
   39POPC   C11 5189   6.555   4.192   6.339  0.3982  0.2459  0.2749
   39POPC  H11A 5190   6.625   4.195   6.424  0.9507  0.5126 -0.1885
   39POPC  H11B 5191   6.450   4.173   6.370 -0.1348  1.1649 -0.9312
   39POPC     P 5192   6.429   4.401   6.234 -0.6315 -0.0192  0.3142
   39POPC   O13 5193   6.324   4.309   6.197  0.6401  0.1933 -0.0653
   39POPC   O14 5194   6.470   4.504   6.133  0.2587 -0.3948 -0.8990
   39POPC   O12 5195   6.556   4.316   6.265 -0.7752  0.5766 -0.1489
   39POPC   O11 5196   6.392   4.486   6.363  0.1918  0.4987  0.7992
   39POPC    C1 5197   6.479   4.542   6.464  0.4278 -0.2016 -0.1682
   39POPC    HA 5198   6.461   4.650   6.485  0.3422  0.0641 -1.5485
   39POPC    HB 5199   6.585   4.525   6.435  0.2150 -0.6514 -0.7019
   39POPC    C2 5200   6.450   4.471   6.595  0.4904  0.1330  0.9292
   39POPC    HS 5201   6.467   4.362   6.588  0.2679  0.1563 -0.1564
   39POPC   O21 5202   6.313   4.501   6.637 -0.5120  0.1318 -0.5713
   39POPC   C21 5203   6.252   4.399   6.685 -1.0092  0.0971  0.1975
   39POPC   O22 5204   6.308   4.293   6.719  0.0400  0.2850 -0.1662
   39POPC   C22 5205   6.102   4.431   6.706 -0.8061  0.1762  0.1619
   39POPC   H2R 5206   6.066   4.332   6.742 -3.0106  0.6037 -0.8105
   39POPC   H2S 5207   6.050   4.442   6.608 -0.4007 -0.5739 -0.1419
   39POPC    C3 5208   6.556   4.525   6.699 -0.9891 -0.1852 -1.1767
   39POPC    HX 5209   6.541   4.634   6.713  1.4327 -0.0689  1.0861
   39POPC    HY 5210   6.662   4.507   6.671 -1.0963 -2.0427 -0.4583
   39POPC   O31 5211   6.536   4.479   6.832 -0.8620  0.3470  0.4375
   39POPC   C31 5212   6.598   4.359   6.861  0.1564 -0.3325  0.0507
   39POPC   O32 5213   6.676   4.302   6.793 -0.3095  0.4109 -0.1285
   39POPC   C32 5214   6.555   4.309   6.997 -0.2058 -0.4219 -0.4540
   39POPC   H2X 5215   6.639   4.306   7.069 -1.4418 -1.2334  0.9956
   39POPC   H2Y 5216   6.486   4.387   7.034  0.5520  0.4135 -0.7903
   39POPC   C23 5217   6.079   4.560   6.784  0.7339 -0.1701  0.2190
   39POPC   H3R 5218   5.976   4.598   6.767  0.4189 -1.2133 -0.2667
   39POPC   H3S 5219   6.135   4.642   6.734  1.1286 -0.4448  0.2099
   39POPC   C24 5220   6.110   4.547   6.932 -0.0472 -1.2246  0.9586
   39POPC   H4R 5221   6.217   4.577   6.943 -0.4538  1.7366 -2.2766
   39POPC   H4S 5222   6.105   4.444   6.972 -1.6569 -1.5998 -0.1932
   39POPC   C25 5223   6.028   4.641   7.025 -0.0868 -0.5232 -0.1843
   39POPC   H5R 5224   5.920   4.628   7.006 -0.1044  2.4139 -2.3690
   39POPC   H5S 5225   6.060   4.746   7.005  0.2762 -1.1883 -3.3173
   39POPC   C26 5226   6.043   4.617   7.178 -0.1982 -0.3056  0.2040
   39POPC   H6R 5227   5.978   4.528   7.193 -0.1137 -0.4191 -0.1161
   39POPC   H6S 5228   5.993   4.688   7.248 -0.1397 -0.0315 -0.0294
   39POPC   C27 5229   6.182   4.590   7.222  0.0813  0.6690 -0.1564
   39POPC   H7R 5230   6.248   4.676   7.195  0.3343  0.0728 -1.4649
   39POPC   H7S 5231   6.228   4.510   7.161 -1.1841  0.6115 -1.0488
   39POPC   C28 5232   6.184   4.536   7.368  0.2519 -0.6200 -0.0678
   39POPC   H8R 5233   6.143   4.616   7.433 -0.0416 -0.5209 -0.3751
   39POPC   H8S 5234   6.290   4.524   7.401  0.1670 -1.1093  0.0232
   39POPC   C29 5235   6.106   4.412   7.406 -0.0207 -0.1098  0.2986
   39POPC   H91 5236   6.088   4.345   7.320  3.1300  0.9850 -1.3207
   39POPC  C210 5237   6.069   4.379   7.529 -0.5715 -0.2202  0.0758
   39POPC  H101 5238   6.004   4.291   7.542 -2.1566  1.0797  1.1188
   39POPC  C211 5239   6.079   4.457   7.656 -0.1534 -0.9559 -0.0013
   39POPC  H11R 5240   5.979   4.494   7.686 -0.3612 -1.9120  0.4696
   39POPC  H11S 5241   6.149   4.544   7.653  0.0228 -0.8876  3.7928
   39POPC  C212 5242   6.128   4.382   7.778 -0.4342  0.2834 -0.2045
   39POPC  H12R 5243   6.097   4.427   7.874  0.7901 -0.9976  0.8025
   39POPC  H12S 5244   6.237   4.397   7.788 -0.1972 -0.9696 -0.8397
   39POPC  C213 5245   6.087   4.239   7.803  0.2541  0.6002 -0.1595
   39POPC  H13R 5246   6.146   4.172   7.736  3.3648  1.5735  1.5057
   39POPC  H13S 5247   5.981   4.231   7.772 -0.0477 -1.7246  1.3387
   39POPC  C214 5248   6.103   4.211   7.954  0.1179  0.0883 -0.0259
   39POPC  H14R 5249   6.072   4.296   8.018 -2.4854 -0.1746 -0.8833
   39POPC  H14S 5250   6.213   4.198   7.970  0.4486  2.7243 -0.0156
   39POPC  C215 5251   6.012   4.096   8.008 -0.5296  0.2490  0.2728
   39POPC  H15R 5252   6.043   3.997   7.970 -0.0645  0.9411 -1.1967
   39POPC  H15S 5253   5.912   4.117   7.965  0.4079 -1.7229 -3.0006
   39POPC  C216 5254   5.992   4.099   8.159 -0.0606 -0.4405 -0.7488
   39POPC  H16R 5255   5.969   4.203   8.191 -1.1393 -1.0647  0.5586
   39POPC  H16S 5256   6.085   4.074   8.216  0.2577  2.1432 -0.0440
   39POPC  C217 5257   5.888   4.000   8.209  0.4086 -0.1875 -0.3186
   39POPC  H17R 5258   5.914   3.901   8.165 -1.6005  0.2032 -2.4794
   39POPC  H17S 5259   5.802   4.041   8.152 -0.4031 -0.2198  0.8598
   39POPC  C218 5260   5.861   3.994   8.356 -0.2257  0.4039  0.5789
   39POPC  H18R 5261   5.948   3.943   8.404 -0.0514 -1.4475 -1.6469
   39POPC  H18S 5262   5.770   3.939   8.388  1.2063 -1.9237  0.7811
   39POPC  H18T 5263   5.838   4.096   8.394 -0.2827 -0.0325  1.7492
   39POPC   C33 5264   6.491   4.169   6.992 -0.0563  0.4783 -0.0583
   39POPC   H3X 5265   6.562   4.092   6.956 -0.4864  1.3654 -2.9436
   39POPC   H3Y 5266   6.411   4.177   6.915  1.1461 -0.5125 -1.4134
   39POPC   C34 5267   6.423   4.122   7.119 -0.3186  0.8367  0.1352
   39POPC   H4X 5268   6.356   4.034   7.112 -1.6364  1.8942 -0.9161
   39POPC   H4Y 5269   6.356   4.206   7.147 -2.3673 -0.7819  0.1867
   39POPC   C35 5270   6.521   4.095   7.229  0.5849 -0.2329 -0.1788
   39POPC   H5X 5271   6.595   4.177   7.234  0.0896  0.1934  0.3050
   39POPC   H5Y 5272   6.581   4.005   7.204  1.1349 -0.0273  0.4150
   39POPC   C36 5273   6.460   4.085   7.372  0.3270  0.7675 -0.2439
   39POPC   H6X 5274   6.401   4.177   7.390 -2.0487 -0.3021 -2.2941
   39POPC   H6Y 5275   6.539   4.082   7.450  0.9988 -0.5098 -0.9629
   39POPC   C37 5276   6.383   3.954   7.388 -0.3876  0.7373 -0.1287
   39POPC   H7X 5277   6.452   3.869   7.370 -1.5868 -0.2008 -0.3430
   39POPC   H7Y 5278   6.313   3.944   7.302 -0.6991  2.2231 -0.0583
   39POPC   C38 5279   6.312   3.941   7.515 -0.3231  0.0606 -0.6159
   39POPC   H8X 5280   6.213   3.991   7.513  0.0800  0.9150  0.5366
   39POPC   H8Y 5281   6.372   3.979   7.601 -1.6123  2.8877 -0.9249
   39POPC   C39 5282   6.286   3.796   7.567  0.5165  0.3435  0.2062
   39POPC   H9X 5283   6.375   3.735   7.538 -1.7222 -2.5351 -0.8151
   39POPC   H9Y 5284   6.204   3.743   7.515  1.0628 -0.0186 -0.3028
   39POPC  C310 5285   6.250   3.782   7.716 -0.1676  0.2070  0.1088
   39POPC  H10X 5286   6.167   3.851   7.742 -1.1778 -1.5186  1.5059
   39POPC  H10Y 5287   6.330   3.820   7.784 -0.0133  0.3731 -0.1670
   39POPC  C311 5288   6.212   3.640   7.756 -0.1659  0.1682 -0.2858
   39POPC  H11X 5289   6.140   3.600   7.682 -2.0614  0.8157  1.1720
   39POPC  H11Y 5290   6.156   3.645   7.852  2.1912  0.9442  1.0928
   39POPC  C312 5291   6.337   3.550   7.770 -0.5454  0.0058 -0.2549
   39POPC  H12X 5292   6.386   3.534   7.672 -0.5702  1.5080 -0.5301
   39POPC  H12Y 5293   6.296   3.456   7.814 -2.1932  1.6625  1.8502
   39POPC  C313 5294   6.448   3.602   7.875  0.0432 -0.5483  0.9121
   39POPC  H13X 5295   6.382   3.612   7.964  0.3519 -0.2278  1.1021
   39POPC  H13Y 5296   6.499   3.696   7.847 -1.0239 -0.3689 -0.5178
   39POPC  C314 5297   6.562   3.504   7.911 -0.2570 -0.3278  0.2812
   39POPC  H14X 5298   6.504   3.410   7.919 -1.0021  0.0528 -0.5249
   39POPC  H14Y 5299   6.608   3.527   8.010 -2.6447  0.3605  1.2617
   39POPC  C315 5300   6.667   3.487   7.800 -0.3862  0.0099 -0.1477
   39POPC  H15X 5301   6.708   3.585   7.770 -2.4590  0.5794 -1.1717
   39POPC  H15Y 5302   6.621   3.457   7.704 -3.2070  0.3547  1.0358
   39POPC  C316 5303   6.778   3.400   7.830 -0.3288 -0.2087 -0.0018
   39POPC  H16X 5304   6.734   3.310   7.878 -0.4281  0.1214  0.5321
   39POPC  H16Y 5305   6.859   3.436   7.897 -0.7993 -0.3834  0.6820
   39POPC  H16Z 5306   6.827   3.359   7.740  1.8145  0.3582  0.8698
   40POPC     N 5307   5.034   1.741   6.266 -0.0394 -0.6576 -0.6782
   40POPC   C12 5308   5.051   1.807   6.400  0.4318 -0.2184  0.0643
   40POPC  H12A 5309   4.963   1.782   6.458  0.0614 -0.2238 -0.4953
   40POPC  H12B 5310   5.052   1.914   6.389  0.5907 -0.1735  0.4928
   40POPC   C13 5311   4.907   1.792   6.197 -0.3124 -0.0748  0.0435
   40POPC  H13A 5312   4.905   1.750   6.098 -0.2800 -1.9856  0.8430
   40POPC  H13B 5313   4.822   1.765   6.258 -1.6420  0.4537 -1.5334
   40POPC  H13C 5314   4.908   1.900   6.194 -1.2884 -0.0918 -4.7721
   40POPC   C14 5315   5.147   1.785   6.180  0.6423 -0.8652 -0.7553
   40POPC  H14A 5316   5.163   1.891   6.176 -2.2429 -0.3920 -0.5076
   40POPC  H14B 5317   5.230   1.751   6.241 -0.7823  1.5404  2.6842
   40POPC  H14C 5318   5.166   1.742   6.083  1.8334  1.5930 -1.6381
   40POPC   C15 5319   5.024   1.593   6.267 -0.0504 -0.3233  0.0871
   40POPC  H15A 5320   5.117   1.547   6.295 -0.9241 -2.5247 -0.5716
   40POPC  H15B 5321   4.991   1.545   6.176  0.5175 -0.2713 -0.1475
   40POPC  H15C 5322   4.950   1.570   6.342  0.0057 -2.2609 -0.4466
   40POPC   C11 5323   5.182   1.766   6.485 -0.3321  0.2622 -0.2765
   40POPC  H11A 5324   5.186   1.656   6.472  1.6840  0.2989 -0.1353
   40POPC  H11B 5325   5.175   1.787   6.594 -0.4887 -3.0550  0.4066
   40POPC     P 5326   5.323   1.974   6.471 -0.1202  0.1728 -0.0416
   40POPC   O13 5327   5.212   2.073   6.438 -0.1558  0.3841 -0.0468
   40POPC   O14 5328   5.456   2.010   6.420  0.0282  0.1634  0.2164
   40POPC   O12 5329   5.292   1.829   6.423 -0.0606  0.1258  0.3312
   40POPC   O11 5330   5.334   1.958   6.630 -0.3219  0.1350 -0.4945
   40POPC    C1 5331   5.430   1.887   6.706 -0.1022 -0.1555 -1.2174
   40POPC    HA 5332   5.509   1.961   6.733 -1.7650  1.1270  0.1783
   40POPC    HB 5333   5.475   1.805   6.647 -0.6604 -0.4169 -1.2814
   40POPC    C2 5334   5.370   1.821   6.829  0.8124 -0.2691 -0.0097
   40POPC    HS 5335   5.290   1.748   6.805  1.6118 -0.8686 -0.8960
   40POPC   O21 5336   5.318   1.919   6.921 -0.2429  0.6341 -0.8971
   40POPC   C21 5337   5.190   1.911   6.958  0.3816  0.2236 -0.4303
   40POPC   O22 5338   5.109   1.823   6.936  0.0034 -0.4706  0.0061
   40POPC   C22 5339   5.153   2.025   7.061 -0.0700 -0.1753  0.8006
   40POPC   H2R 5340   5.115   2.109   6.999 -0.1345  0.5188  1.7705
   40POPC   H2S 5341   5.254   2.050   7.101  0.8521 -1.3145 -0.7751
   40POPC    C3 5342   5.477   1.736   6.898  0.6861 -0.3223  0.3290
   40POPC    HX 5343   5.553   1.814   6.920  0.9622 -0.6947  0.7024
   40POPC    HY 5344   5.528   1.660   6.836  1.9283 -0.5194  1.5630
   40POPC   O31 5345   5.418   1.683   7.013  0.3997  0.0749 -0.3810
   40POPC   C31 5346   5.361   1.563   6.983  0.4002  0.7707 -0.6160
   40POPC   O32 5347   5.367   1.513   6.874  0.1798 -0.5295 -0.1794
   40POPC   C32 5348   5.289   1.504   7.104  0.3865 -0.1120 -0.0341
   40POPC   H2X 5349   5.269   1.395   7.089  2.6308 -0.9244  2.5887
   40POPC   H2Y 5350   5.187   1.547   7.118 -0.4221 -1.1476 -2.3933
   40POPC   C23 5351   5.041   1.980   7.157 -0.0159  0.2200  0.2464
   40POPC   H3R 5352   4.963   1.926   7.100 -0.5867  1.3623 -0.0636
   40POPC   H3S 5353   4.981   2.056   7.211 -0.8140 -0.6308  0.5723
   40POPC   C24 5354   5.111   1.903   7.276 -0.3557  0.0962  0.2045
   40POPC   H4R 5355   5.161   1.979   7.340  0.0015  0.0735 -0.0458
   40POPC   H4S 5356   5.188   1.833   7.236  1.6586  1.1525  2.1300
   40POPC   C25 5357   5.012   1.821   7.373 -0.3676  0.2556  0.0871
   40POPC   H5R 5358   4.970   1.732   7.320 -0.7246 -0.4575  1.5439
   40POPC   H5S 5359   4.929   1.894   7.380  0.0933  0.6483  1.5361
   40POPC   C26 5360   5.063   1.780   7.511 -0.1932 -0.8807 -0.2109
   40POPC   H6R 5361   5.132   1.862   7.540 -1.9224 -0.0359  1.6811
   40POPC   H6S 5362   5.132   1.694   7.514  0.7442 -0.1167  2.8102
   40POPC   C27 5363   4.949   1.766   7.609  0.7803  0.1707 -0.2063
   40POPC   H7R 5364   4.903   1.667   7.587 -1.6283  1.2347 -0.1479
   40POPC   H7S 5365   4.869   1.842   7.594  1.5243  1.3994  1.8019
   40POPC   C28 5366   4.986   1.767   7.756  0.3180 -0.1430 -0.3828
   40POPC   H8R 5367   5.045   1.857   7.781  0.2970 -0.1116 -0.4464
   40POPC   H8S 5368   5.047   1.675   7.769 -0.4148 -0.7105 -0.8601
   40POPC   C29 5369   4.868   1.748   7.841 -0.4791 -0.2067  0.7325
   40POPC   H91 5370   4.804   1.667   7.803  0.7395 -0.9314  0.2384
   40POPC  C210 5371   4.829   1.823   7.948 -0.0567  0.3929 -0.6137
   40POPC  H101 5372   4.737   1.794   8.000  0.3204 -0.6235 -0.4954
   40POPC  C211 5373   4.899   1.948   8.010  0.2983 -0.1177  0.0929
   40POPC  H11R 5374   4.831   2.036   8.011  0.6136  0.1280  0.0759
   40POPC  H11S 5375   4.987   1.965   7.944 -1.3805 -0.4284 -2.2562
   40POPC  C212 5376   4.953   1.917   8.149 -0.2968  0.0809 -0.6116
   40POPC  H12R 5377   5.029   1.992   8.178  0.8419 -1.8326  1.5200
   40POPC  H12S 5378   5.000   1.818   8.133  0.7648  0.6158 -0.8014
   40POPC  C213 5379   4.849   1.896   8.259  0.6589  0.1681  0.6262
   40POPC  H13R 5380   4.749   1.865   8.222  0.5627 -0.5266  1.4389
   40POPC  H13S 5381   4.840   1.992   8.314  0.1977 -0.4522  1.6662
   40POPC  C214 5382   4.882   1.783   8.360 -0.2908  0.9016  0.5348
   40POPC  H14R 5383   4.992   1.768   8.370  0.0667  3.7611  1.3671
   40POPC  H14S 5384   4.835   1.693   8.316 -0.8291  1.6898 -0.5288
   40POPC  C215 5385   4.837   1.805   8.505  0.6581 -0.0248 -0.0787
   40POPC  H15R 5386   4.838   1.704   8.552 -0.0258  0.4974  1.0941
   40POPC  H15S 5387   4.734   1.847   8.505  0.2611 -0.9862 -1.0813
   40POPC  C216 5388   4.914   1.902   8.589 -0.3975 -0.1326 -0.2430
   40POPC  H16R 5389   4.922   2.003   8.545  0.7324  1.1475  2.7874
   40POPC  H16S 5390   5.014   1.856   8.600 -0.3784 -0.0162  0.0616
   40POPC  C217 5391   4.856   1.913   8.731 -0.6289  0.5031  0.3055
   40POPC  H17R 5392   4.944   1.923   8.797  0.7903  0.4811 -1.5251
   40POPC  H17S 5393   4.803   1.820   8.762 -0.6846  1.5056  3.3330
   40POPC  C218 5394   4.760   2.029   8.750 -0.8160  0.0838 -0.2130
   40POPC  H18R 5395   4.660   2.016   8.704  0.2523 -4.3307 -1.5055
   40POPC  H18S 5396   4.795   2.117   8.691 -0.4659 -1.4507 -2.3592
   40POPC  H18T 5397   4.749   2.052   8.858 -1.3064  3.1424 -0.8881
   40POPC   C33 5398   5.362   1.513   7.238  0.4582 -0.2313 -0.0028
   40POPC   H3X 5399   5.311   1.582   7.308  0.3061  2.0860 -2.3286
   40POPC   H3Y 5400   5.469   1.543   7.230  0.0499  0.8224 -1.6478
   40POPC   C34 5401   5.370   1.376   7.310 -0.1145 -0.0948 -0.6795
   40POPC   H4X 5402   5.429   1.301   7.251  3.0467  3.2122 -1.8986
   40POPC   H4Y 5403   5.267   1.336   7.323  0.0271 -0.0889  0.5033
   40POPC   C35 5404   5.441   1.392   7.445 -0.1103 -0.0911  0.1587
   40POPC   H5X 5405   5.405   1.487   7.490  0.9699  0.4523 -0.1039
   40POPC   H5Y 5406   5.549   1.404   7.424  0.3102  0.2688  2.3493
   40POPC   C36 5407   5.404   1.280   7.543 -0.4120  0.8100 -0.0503
   40POPC   H6X 5408   5.445   1.186   7.499  1.9274  1.3955  0.8115
   40POPC   H6Y 5409   5.297   1.268   7.567 -0.5987 -4.3526 -2.6720
   40POPC   C37 5410   5.483   1.298   7.676 -0.2434 -0.1267  0.3007
   40POPC   H7X 5411   5.580   1.348   7.653  0.3167 -0.8431  1.1052
   40POPC   H7Y 5412   5.490   1.202   7.731 -0.8052  0.3612  1.2325
   40POPC   C38 5413   5.411   1.394   7.769  0.7853  1.1145 -0.6270
   40POPC   H8X 5414   5.314   1.350   7.802 -0.4043  2.7717 -1.8599
   40POPC   H8Y 5415   5.387   1.493   7.724 -2.5988  2.1551  3.1127
   40POPC   C39 5416   5.490   1.427   7.890 -0.1991  0.2509 -0.6052
   40POPC   H9X 5417   5.574   1.497   7.870  0.2857  0.5708  2.3219
   40POPC   H9Y 5418   5.536   1.333   7.929 -0.6519 -0.7731 -2.4450
   40POPC  C310 5419   5.410   1.495   8.008 -0.3430 -0.0691 -1.3935
   40POPC  H10X 5420   5.323   1.431   8.036 -0.9072  0.0554 -2.8040
   40POPC  H10Y 5421   5.353   1.585   7.977 -0.4545  0.4455  0.2567
   40POPC  C311 5422   5.492   1.542   8.129  0.1068 -0.1543 -0.2116
   40POPC  H11X 5423   5.583   1.594   8.091 -1.1046  0.9403 -1.7124
   40POPC  H11Y 5424   5.539   1.455   8.180 -0.4023  0.0409  0.5909
   40POPC  C312 5425   5.413   1.623   8.234 -0.7795  0.4738  0.3727
   40POPC  H12X 5426   5.331   1.567   8.284 -0.1164 -0.4357  0.4632
   40POPC  H12Y 5427   5.372   1.714   8.185  1.0063  0.2167 -1.6794
   40POPC  C313 5428   5.499   1.673   8.351  0.1271  0.3219 -0.3229
   40POPC  H13X 5429   5.561   1.761   8.327  0.4277 -0.1172 -1.1791
   40POPC  H13Y 5430   5.569   1.596   8.388  0.6174  1.0888  0.3453
   40POPC  C314 5431   5.412   1.700   8.471 -0.6120 -0.1194  0.0083
   40POPC  H14X 5432   5.363   1.605   8.502  1.0198 -0.7371  0.7516
   40POPC  H14Y 5433   5.329   1.771   8.447 -1.4493 -0.3866  2.0312
   40POPC  C315 5434   5.488   1.764   8.589 -0.1119  0.2102 -0.6265
   40POPC  H15X 5435   5.576   1.698   8.603  0.1750  0.4695 -1.1772
   40POPC  H15Y 5436   5.422   1.760   8.679  0.0750 -2.6819 -0.5725
   40POPC  C316 5437   5.533   1.907   8.557  0.4598  0.2066  0.3498
   40POPC  H16X 5438   5.602   1.902   8.470  0.0179  1.4777 -0.0946
   40POPC  H16Y 5439   5.603   1.941   8.636  0.6187  1.5262 -0.3315
   40POPC  H16Z 5440   5.454   1.985   8.557  0.0736 -0.1750 -0.8817
   41CHL1    C3 5441   4.546   5.364   9.935  0.2753  0.1814  0.2382
   41CHL1    H3 5442   4.653   5.395   9.932 -0.1298  1.5479 -0.8285
   41CHL1    O3 5443   4.496   5.373  10.068  0.0623  0.0659  0.2707
   41CHL1   H3' 5444   4.438   5.448  10.053  0.2327 -0.2252 -1.9397
   41CHL1    C4 5445   4.466   5.452   9.846 -0.0561  0.1090 -0.2706
   41CHL1   H4A 5446   4.362   5.417   9.862 -0.1315  0.5884  0.3557
   41CHL1   H4B 5447   4.461   5.558   9.881 -0.0802 -0.1885  0.6571
   41CHL1    C5 5448   4.496   5.431   9.701  0.2834  0.0657 -0.5010
   41CHL1    C6 5449   4.535   5.535   9.628  0.0799 -0.5333  0.8668
   41CHL1    H6 5450   4.541   5.635   9.673  1.0302 -0.1554 -0.0752
   41CHL1    C7 5451   4.540   5.526   9.475  0.2759 -0.2503 -0.6492
   41CHL1   H7A 5452   4.487   5.612   9.429 -1.1037 -0.1734  1.0855
   41CHL1   H7B 5453   4.645   5.546   9.442  1.2057 -1.0641  1.7270
   41CHL1    C8 5454   4.496   5.384   9.428 -0.2664  0.6841  1.0642
   41CHL1    H8 5455   4.385   5.392   9.420 -0.0229  0.9859 -3.2833
   41CHL1   C14 5456   4.546   5.368   9.276  0.2775 -0.1250  0.0231
   41CHL1   H14 5457   4.657   5.357   9.278  0.7500  3.4769 -2.1703
   41CHL1   C15 5458   4.524   5.485   9.183  0.1136 -0.7598 -0.1708
   41CHL1  H15A 5459   4.418   5.515   9.191  0.1300  0.2477 -3.3534
   41CHL1  H15B 5460   4.589   5.574   9.199 -0.9019 -0.0152 -0.1743
   41CHL1   C16 5461   4.559   5.421   9.048 -0.2031  0.0511 -0.3791
   41CHL1  H16A 5462   4.469   5.451   8.990 -1.1793  1.0900  1.6442
   41CHL1  H16B 5463   4.645   5.470   8.997  0.2999  0.7795  1.1542
   41CHL1   C17 5464   4.569   5.268   9.062 -0.3308 -0.4809  0.3402
   41CHL1   H17 5465   4.676   5.238   9.068 -0.4232 -1.3049 -1.8453
   41CHL1   C13 5466   4.507   5.234   9.206  0.3869 -0.4660  0.6194
   41CHL1   C18 5467   4.355   5.218   9.197 -0.1658  0.1067  0.2977
   41CHL1  H18A 5468   4.330   5.120   9.151  0.4966  1.1280 -2.2981
   41CHL1  H18B 5469   4.307   5.218   9.298 -0.1164 -1.0336  0.3341
   41CHL1  H18C 5470   4.306   5.298   9.137 -1.4791 -1.6429 -1.0243
   41CHL1   C12 5471   4.576   5.118   9.289  0.0909 -0.0081 -0.7480
   41CHL1  H12A 5472   4.573   5.016   9.247  4.2237 -0.7781  0.5979
   41CHL1  H12B 5473   4.683   5.149   9.281  0.3715 -0.9195 -0.5487
   41CHL1   C11 5474   4.536   5.126   9.439 -0.1339  0.4812  0.7329
   41CHL1  H11A 5475   4.427   5.105   9.441  0.0401 -0.9425 -2.2479
   41CHL1  H11B 5476   4.593   5.056   9.504  2.1252  0.9610 -0.6733
   41CHL1    C9 5477   4.546   5.267   9.507  0.2642 -0.6513 -0.6970
   41CHL1    H9 5478   4.655   5.286   9.520 -0.3936  1.7051  1.9179
   41CHL1   C10 5479   4.491   5.283   9.649  0.4652 -0.1359  0.7195
   41CHL1   C19 5480   4.336   5.244   9.643  0.1079 -0.2247 -0.6014
   41CHL1  H19A 5481   4.284   5.313   9.573  2.2130  1.4866 -0.5382
   41CHL1  H19B 5482   4.321   5.141   9.605  1.5658 -0.4136 -0.7004
   41CHL1  H19C 5483   4.293   5.257   9.744 -1.3142  1.4731 -1.4021
   41CHL1    C1 5484   4.565   5.185   9.744 -0.4166  0.4395  0.2025
   41CHL1   H1A 5485   4.526   5.084   9.718  0.2537  0.3879 -0.6300
   41CHL1   H1B 5486   4.673   5.186   9.720 -1.0715 -1.2420 -3.1976
   41CHL1    C2 5487   4.526   5.212   9.890  0.6720  0.6671 -0.9585
   41CHL1   H2A 5488   4.589   5.142   9.948 -1.3061 -0.1752  0.2107
   41CHL1   H2B 5489   4.420   5.179   9.899  1.2456 -0.9398 -0.1232
   41CHL1   C20 5490   4.514   5.200   8.942  0.3878 -0.1254  0.4702
   41CHL1   H20 5491   4.405   5.220   8.945  0.4535  0.2873  0.1940
   41CHL1   C21 5492   4.541   5.045   8.951  0.3373  0.4661  0.2592
   41CHL1  H21A 5493   4.486   4.995   8.868  0.7042 -0.6084  0.6486
   41CHL1  H21B 5494   4.502   5.002   9.045  0.0392 -0.5064 -0.2960
   41CHL1  H21C 5495   4.651   5.029   8.949  0.6612  2.3133  1.9285
   41CHL1   C22 5496   4.555   5.262   8.809  0.0138  0.0300 -0.0095
   41CHL1  H22A 5497   4.513   5.210   8.721  1.7255  1.8983 -1.9971
   41CHL1  H22B 5498   4.521   5.368   8.809 -0.8625 -0.2253  1.7878
   41CHL1   C23 5499   4.710   5.259   8.777  0.5318  0.3074 -0.7226
   41CHL1  H23A 5500   4.768   5.284   8.868 -2.4971  1.4408  0.9945
   41CHL1  H23B 5501   4.732   5.158   8.736 -0.2033  0.0242 -0.4472
   41CHL1   C24 5502   4.759   5.366   8.681  0.8843  0.7379 -0.6641
   41CHL1  H24A 5503   4.762   5.468   8.725  1.5602  0.7615 -0.7555
   41CHL1  H24B 5504   4.866   5.341   8.661  0.8998  0.3521 -0.1026
   41CHL1   C25 5505   4.686   5.373   8.545 -0.3044  0.4193  0.2505
   41CHL1   H25 5506   4.583   5.405   8.573 -0.8505 -0.5248 -0.6809
   41CHL1   C26 5507   4.739   5.468   8.435  0.3346  0.2373  0.6734
   41CHL1  H26A 5508   4.848   5.462   8.415  0.0733 -0.0167 -0.6867
   41CHL1  H26B 5509   4.688   5.446   8.339  2.5319 -0.8822 -0.2688
   41CHL1  H26C 5510   4.718   5.574   8.462  0.8312  0.3391  0.6643
   41CHL1   C27 5511   4.683   5.234   8.481  0.1827 -0.1195  0.3416
   41CHL1  H27A 5512   4.788   5.199   8.470  0.4185  0.8794 -0.6018
   41CHL1  H27B 5513   4.627   5.161   8.544 -1.2803  1.4024  0.8513
   41CHL1  H27C 5514   4.628   5.234   8.385  2.6336 -0.0356 -1.0889
   42CHL1    C3 5515   4.203   4.748   9.801  0.0609  0.5815 -0.3446
   42CHL1    H3 5516   4.100   4.790   9.795 -0.7186 -1.6349 -3.1895
   42CHL1    O3 5517   4.241   4.732   9.939 -0.0383 -0.1886 -1.0706
   42CHL1   H3' 5518   4.335   4.714   9.938  0.3467  1.5155  0.5799
   42CHL1    C4 5519   4.179   4.618   9.739 -0.4659  0.7025 -0.1427
   42CHL1   H4A 5520   4.266   4.549   9.750 -0.3646  0.7122 -0.9070
   42CHL1   H4B 5521   4.096   4.567   9.794 -0.7310 -0.0352 -1.2212
   42CHL1    C5 5522   4.144   4.630   9.588 -0.5530 -0.1304  0.6020
   42CHL1    C6 5523   4.039   4.571   9.530  0.3665  0.1059 -0.5505
   42CHL1    H6 5524   3.986   4.488   9.580  1.5445 -0.9262 -1.0163
   42CHL1    C7 5525   4.000   4.576   9.384  0.2803  0.3009 -0.1330
   42CHL1   H7A 5526   3.979   4.472   9.349 -2.9698 -0.2681  3.1476
   42CHL1   H7B 5527   3.905   4.629   9.365 -0.2761 -0.6243  0.0197
   42CHL1    C8 5528   4.117   4.627   9.296 -0.7996 -1.2216 -0.5000
   42CHL1    H8 5529   4.188   4.542   9.300 -0.0557 -0.5489  1.0231
   42CHL1   C14 5530   4.072   4.654   9.153 -0.3489  0.5161  0.2374
   42CHL1   H14 5531   4.004   4.742   9.155  0.5771  1.2416  0.0049
   42CHL1   C15 5532   3.978   4.557   9.079  0.1659 -0.5190 -0.1711
   42CHL1  H15A 5533   4.008   4.453   9.102  0.1838 -0.5056 -0.1329
   42CHL1  H15B 5534   3.876   4.549   9.120  0.2061 -1.9743 -0.3382
   42CHL1   C16 5535   3.978   4.599   8.935  0.3683 -0.0503 -0.4232
   42CHL1  H16A 5536   3.996   4.508   8.874 -0.7042  0.1166 -1.0013
   42CHL1  H16B 5537   3.884   4.649   8.904 -0.1045  0.4996  1.8515
   42CHL1   C17 5538   4.103   4.697   8.924  0.2768  0.3454 -0.1814
   42CHL1   H17 5539   4.058   4.797   8.942 -1.1893 -0.0221 -1.6460
   42CHL1   C13 5540   4.186   4.687   9.051  0.2066  0.7141  0.4071
   42CHL1   C18 5541   4.290   4.567   9.033 -1.0541  0.2005 -0.6404
   42CHL1  H18A 5542   4.237   4.475   9.001 -0.0341 -1.1240  1.3451
   42CHL1  H18B 5543   4.367   4.598   8.959 -0.5282  0.6614  0.0903
   42CHL1  H18C 5544   4.339   4.542   9.129 -1.0517 -0.5228 -0.8278
   42CHL1   C12 5545   4.240   4.819   9.105  0.5846 -0.0106  0.0013
   42CHL1  H12A 5546   4.311   4.866   9.034  1.3239  0.4349  1.0147
   42CHL1  H12B 5547   4.151   4.885   9.109  0.4773 -0.2020  1.0242
   42CHL1   C11 5548   4.294   4.803   9.250  0.1598 -0.1434 -0.7283
   42CHL1  H11A 5549   4.377   4.729   9.250 -1.2388 -1.7448 -1.6120
   42CHL1  H11B 5550   4.341   4.897   9.286  0.3437 -0.9887  1.2991
   42CHL1    C9 5551   4.188   4.747   9.359 -0.0958 -1.1068  0.0420
   42CHL1    H9 5552   4.112   4.827   9.372  1.6538  0.2489  2.2395
   42CHL1   C10 5553   4.242   4.717   9.503 -0.0105 -0.1975 -0.1790
   42CHL1   C19 5554   4.370   4.622   9.493  0.6480 -0.1854  0.5439
   42CHL1  H19A 5555   4.330   4.529   9.446 -0.4647  0.2468  0.6088
   42CHL1  H19B 5556   4.448   4.666   9.426 -1.5113 -1.2548 -2.8219
   42CHL1  H19C 5557   4.411   4.594   9.592  2.4025 -2.5846 -0.8091
   42CHL1    C1 5558   4.282   4.846   9.579  0.3277 -0.3028  0.5324
   42CHL1   H1A 5559   4.361   4.887   9.513 -1.1115  0.1620 -0.9363
   42CHL1   H1B 5560   4.199   4.920   9.582  0.1837 -0.4298 -0.2225
   42CHL1    C2 5561   4.314   4.823   9.727 -0.5353 -0.0136 -0.0452
   42CHL1   H2A 5562   4.311   4.928   9.763  0.7738  0.0953 -0.2305
   42CHL1   H2B 5563   4.420   4.792   9.736 -0.7165 -0.4510  0.6413
   42CHL1   C20 5564   4.179   4.706   8.787  0.3677  0.2239 -0.0944
   42CHL1   H20 5565   4.272   4.764   8.802 -1.0860  2.2892  1.1782
   42CHL1   C21 5566   4.090   4.789   8.702 -0.8457  1.0772  0.3525
   42CHL1  H21A 5567   4.098   4.896   8.730  0.5905  1.1985 -0.4729
   42CHL1  H21B 5568   3.984   4.756   8.698 -0.2181 -1.0608  0.4088
   42CHL1  H21C 5569   4.133   4.792   8.599 -0.2843  1.5729  0.6017
   42CHL1   C22 5570   4.217   4.569   8.720  0.1400  0.0161 -0.7330
   42CHL1  H22A 5571   4.276   4.496   8.780 -0.5786 -2.0042 -2.4589
   42CHL1  H22B 5572   4.129   4.506   8.696 -0.2249  0.8447 -1.6346
   42CHL1   C23 5573   4.315   4.591   8.603 -0.2838 -0.2269 -0.1999
   42CHL1  H23A 5574   4.326   4.492   8.554  0.2805 -0.5856  0.6532
   42CHL1  H23B 5575   4.287   4.677   8.538 -1.1922 -0.1350  0.3038
   42CHL1   C24 5576   4.456   4.636   8.649  0.0033  0.5668 -0.9695
   42CHL1  H24A 5577   4.452   4.745   8.668 -1.4500  0.4988 -0.8545
   42CHL1  H24B 5578   4.481   4.595   8.749  1.8776  2.0010 -0.8237
   42CHL1   C25 5579   4.570   4.608   8.556 -0.0932  0.0804  0.5650
   42CHL1   H25 5580   4.539   4.627   8.451  0.8054 -1.7255 -0.0531
   42CHL1   C26 5581   4.683   4.705   8.598 -0.7007  0.5638  0.2704
   42CHL1  H26A 5582   4.768   4.704   8.527  0.2565 -1.1956  1.3912
   42CHL1  H26B 5583   4.655   4.812   8.606  0.0672  0.8929 -1.3142
   42CHL1  H26C 5584   4.730   4.679   8.696 -2.1454  0.2186  0.8752
   42CHL1   C27 5585   4.602   4.448   8.566  0.4956  0.1345  0.6098
   42CHL1  H27A 5586   4.624   4.422   8.672  2.7548 -1.5249 -0.2343
   42CHL1  H27B 5587   4.510   4.398   8.531 -1.2401  2.5091  1.6547
   42CHL1  H27C 5588   4.683   4.418   8.496 -1.3026 -1.1431 -0.9721
   43CHL1    C3 5589   4.993   4.869   9.944 -0.6958 -0.4402 -0.2877
   43CHL1    H3 5590   5.096   4.863   9.903  0.1304 -2.8093  2.0223
   43CHL1    O3 5591   4.996   4.910  10.079 -0.4887 -0.4450  0.1195
   43CHL1   H3' 5592   4.921   4.880  10.130 -0.3442 -0.1570  0.5097
   43CHL1    C4 5593   4.896   4.955   9.879 -0.5136 -0.4381  0.4676
   43CHL1   H4A 5594   4.798   4.942   9.930  0.0183 -0.4891  1.4720
   43CHL1   H4B 5595   4.922   5.062   9.892  3.0094 -1.0783 -0.7194
   43CHL1    C5 5596   4.889   4.916   9.734 -0.2658  1.4412 -0.3580
   43CHL1    C6 5597   4.914   5.011   9.645  0.3919 -0.4063  0.5662
   43CHL1    H6 5598   4.936   5.113   9.682 -0.7793 -0.6412  1.9075
   43CHL1    C7 5599   4.916   4.987   9.498 -0.2219  0.3291  0.3164
   43CHL1   H7A 5600   4.859   5.072   9.452  1.7330  1.0755 -0.7845
   43CHL1   H7B 5601   5.020   4.993   9.461  0.1979  1.4439  1.6192
   43CHL1    C8 5602   4.856   4.842   9.455 -0.1217 -0.4429  0.8598
   43CHL1    H8 5603   4.746   4.850   9.447  0.0765  1.5067 -0.3606
   43CHL1   C14 5604   4.908   4.806   9.319  0.8230 -0.5165  0.4232
   43CHL1   H14 5605   5.017   4.785   9.316  1.3737  2.1664  0.2706
   43CHL1   C15 5606   4.903   4.913   9.205  0.3551  0.5821  0.5014
   43CHL1  H15A 5607   4.801   4.952   9.184  0.8386  1.0672 -1.0455
   43CHL1  H15B 5608   4.971   4.995   9.236 -0.7519  1.1994  1.3799
   43CHL1   C16 5609   4.939   4.825   9.092 -0.0744 -0.4756 -0.0351
   43CHL1  H16A 5610   4.868   4.850   9.010 -0.6637 -0.1795  0.5598
   43CHL1  H16B 5611   5.042   4.846   9.056  0.6390  0.2360  2.3061
   43CHL1   C17 5612   4.915   4.673   9.122 -0.6310 -0.6129  0.2493
   43CHL1   H17 5613   5.013   4.625   9.140 -0.6565 -1.7771 -2.4105
   43CHL1   C13 5614   4.844   4.673   9.258  0.2405  0.4156  0.4980
   43CHL1   C18 5615   4.688   4.682   9.239  0.3486  0.0671 -0.6043
   43CHL1  H18A 5616   4.655   4.584   9.199 -0.1628  0.0119 -0.0402
   43CHL1  H18B 5617   4.650   4.706   9.341  0.3380 -2.3871 -0.0153
   43CHL1  H18C 5618   4.663   4.764   9.168 -3.3371 -1.7491 -1.4857
   43CHL1   C12 5619   4.887   4.560   9.353  0.6693  0.6893 -0.3110
   43CHL1  H12A 5620   4.837   4.466   9.321 -0.3320  0.8703  0.6888
   43CHL1  H12B 5621   4.997   4.544   9.362  0.5817  0.1127 -0.2118
   43CHL1   C11 5622   4.840   4.596   9.501 -0.2675 -0.9059  0.1855
   43CHL1  H11A 5623   4.729   4.593   9.495 -0.1561 -3.1788 -1.5486
   43CHL1  H11B 5624   4.871   4.515   9.570  0.9448  0.7468  1.6193
   43CHL1    C9 5625   4.886   4.733   9.550  0.3430  0.2204  0.2697
   43CHL1    H9 5626   4.997   4.727   9.539  0.3197  1.2446 -0.5979
   43CHL1   C10 5627   4.856   4.766   9.701  0.3652 -0.0976 -0.7154
   43CHL1   C19 5628   4.702   4.751   9.725  0.1899 -0.4075 -0.4338
   43CHL1  H19A 5629   4.650   4.829   9.665  0.8971 -0.8485 -1.6281
   43CHL1  H19B 5630   4.674   4.648   9.693 -0.1898 -0.5579  0.3688
   43CHL1  H19C 5631   4.682   4.754   9.834 -0.5519  1.3526 -0.5925
   43CHL1    C1 5632   4.939   4.675   9.794  0.2707  0.1018 -0.0229
   43CHL1   H1A 5633   4.893   4.575   9.783  0.4297  0.2659 -2.5295
   43CHL1   H1B 5634   5.038   4.667   9.744  0.1695 -1.0903 -0.0508
   43CHL1    C2 5635   4.954   4.727   9.937  0.4231 -0.1852 -0.3207
   43CHL1   H2A 5636   5.035   4.667   9.983  2.2486  3.4040  1.3338
   43CHL1   H2B 5637   4.864   4.702   9.999  0.4103 -0.1773 -0.3363
   43CHL1   C20 5638   4.861   4.594   9.003 -0.0021 -0.3954  0.0921
   43CHL1   H20 5639   4.756   4.627   8.986  1.0971  2.0595 -2.3906
   43CHL1   C21 5640   4.861   4.440   9.033  1.3437 -0.3156  0.2831
   43CHL1  H21A 5641   4.821   4.381   8.948  2.0118 -1.2641  0.6254
   43CHL1  H21B 5642   4.801   4.433   9.126 -1.9302  1.1664 -1.6363
   43CHL1  H21C 5643   4.963   4.399   9.047  0.7626 -1.9773 -0.2917
   43CHL1   C22 5644   4.939   4.623   8.873 -0.5285  0.7548  0.6483
   43CHL1  H22A 5645   4.879   4.553   8.810 -0.6406  1.5369 -0.1278
   43CHL1  H22B 5646   4.928   4.730   8.844 -1.7812  0.8293  1.3503
   43CHL1   C23 5647   5.086   4.581   8.868 -0.0272  0.7578 -0.2456
   43CHL1  H23A 5648   5.129   4.595   8.970  0.9675  0.3876 -0.6102
   43CHL1  H23B 5649   5.081   4.471   8.858  0.0265  0.7005  0.2907
   43CHL1   C24 5650   5.190   4.645   8.776 -0.0872 -0.1770 -0.3312
   43CHL1  H24A 5651   5.162   4.636   8.669 -0.9115  0.0679 -0.1372
   43CHL1  H24B 5652   5.200   4.754   8.796 -0.1793  0.1216 -1.8353
   43CHL1   C25 5653   5.335   4.596   8.803 -0.3126 -0.0649  0.3266
   43CHL1   H25 5654   5.399   4.666   8.745  1.6878 -2.5371 -0.5470
   43CHL1   C26 5655   5.384   4.617   8.950 -0.1901  0.6605  0.5265
   43CHL1  H26A 5656   5.370   4.720   8.988 -0.2241  0.3862  1.2569
   43CHL1  H26B 5657   5.344   4.538   9.018 -1.0046  0.1531 -0.4995
   43CHL1  H26C 5658   5.490   4.589   8.936  0.0208  1.3553  0.7653
   43CHL1   C27 5659   5.363   4.460   8.744  0.4482  0.5105 -0.9675
   43CHL1  H27A 5660   5.470   4.430   8.753  0.1364  0.2951  2.6575
   43CHL1  H27B 5661   5.304   4.383   8.797 -0.4763 -1.2624 -4.4299
   43CHL1  H27C 5662   5.318   4.455   8.643 -1.9020 -1.9390  0.1429
   44CHL1    C3 5663   5.055   5.386  10.120  0.4582  0.7341 -0.0094
   44CHL1    H3 5664   5.128   5.304  10.102 -0.3106 -0.3240  1.5879
   44CHL1    O3 5665   5.045   5.410  10.260  0.5174  0.2010 -0.2770
   44CHL1   H3' 5666   5.013   5.333  10.307  2.1375 -0.7711 -0.7401
   44CHL1    C4 5667   5.098   5.515  10.052 -1.0750 -0.2791  0.1029
   44CHL1   H4A 5668   5.019   5.588  10.079  0.5197  1.8308 -0.8272
   44CHL1   H4B 5669   5.194   5.547  10.099  0.4566 -5.7503  1.0889
   44CHL1    C5 5670   5.117   5.505   9.906  0.2917  0.0366  0.5511
   44CHL1    C6 5671   5.234   5.533   9.848  0.0946 -0.6416 -0.5259
   44CHL1    H6 5672   5.314   5.572   9.912 -2.5135 -0.3046  2.6771
   44CHL1    C7 5673   5.266   5.538   9.701 -0.2592 -0.1441  0.4634
   44CHL1   H7A 5674   5.321   5.632   9.677  2.2557 -1.0302  2.4866
   44CHL1   H7B 5675   5.340   5.456   9.688  0.0381  0.2246 -0.2099
   44CHL1    C8 5676   5.129   5.533   9.622  0.4053  0.8215 -0.0902
   44CHL1    H8 5677   5.082   5.634   9.620  1.1552  1.1908  0.5157
   44CHL1   C14 5678   5.155   5.498   9.473 -0.0262 -0.3105 -0.4946
   44CHL1   H14 5679   5.197   5.396   9.477  0.9454 -0.1803 -4.8877
   44CHL1   C15 5680   5.265   5.591   9.406  0.0174 -0.0211 -0.5555
   44CHL1  H15A 5681   5.257   5.695   9.444  0.4075 -0.9032  2.0382
   44CHL1  H15B 5682   5.365   5.556   9.440  0.4787  1.5044 -0.2820
   44CHL1   C16 5683   5.238   5.563   9.254  0.1116  0.8529  0.4555
   44CHL1  H16A 5684   5.244   5.650   9.186 -0.4704  0.0404 -0.6430
   44CHL1  H16B 5685   5.319   5.507   9.203  0.8136  2.4679 -0.2374
   44CHL1   C17 5686   5.106   5.477   9.247 -0.1117 -0.1089  0.2581
   44CHL1   H17 5687   5.142   5.372   9.244 -1.7588 -0.6570 -1.3261
   44CHL1   C13 5688   5.032   5.492   9.387  0.2498  0.0135  0.0868
   44CHL1   C18 5689   4.963   5.638   9.377 -0.0855 -0.0697  0.1332
   44CHL1  H18A 5690   4.865   5.633   9.324  0.5872 -2.8742 -0.9513
   44CHL1  H18B 5691   4.939   5.668   9.481 -1.4118  0.1389 -0.2235
   44CHL1  H18C 5692   5.020   5.715   9.320  1.7298 -0.9513  0.7424
   44CHL1   C12 5693   4.944   5.381   9.439  0.0526 -0.4760 -0.3896
   44CHL1  H12A 5694   4.844   5.372   9.392 -0.4743  0.9730  0.4341
   44CHL1  H12B 5695   4.998   5.285   9.423 -0.3747 -0.5193 -1.6042
   44CHL1   C11 5696   4.910   5.407   9.588  0.0478  0.2184  0.2160
   44CHL1  H11A 5697   4.840   5.492   9.600 -1.2653 -1.0911  2.1231
   44CHL1  H11B 5698   4.853   5.320   9.627 -0.7367  0.4588 -0.3602
   44CHL1    C9 5699   5.030   5.426   9.686 -0.1802  0.0250  0.2720
   44CHL1    H9 5700   5.088   5.331   9.689  2.0255  1.3263  0.0576
   44CHL1   C10 5701   4.992   5.468   9.828 -0.1366  0.1882 -0.3279
   44CHL1   C19 5702   4.893   5.590   9.833  0.6493  0.6126  0.1073
   44CHL1  H19A 5703   4.948   5.681   9.799  2.6725 -0.5841  0.0853
   44CHL1  H19B 5704   4.793   5.580   9.786  1.6617 -2.3585 -1.5489
   44CHL1  H19C 5705   4.864   5.617   9.937  1.4880  0.9530  0.2593
   44CHL1    C1 5706   4.926   5.341   9.905 -0.1995  0.1830  0.2198
   44CHL1   H1A 5707   4.832   5.303   9.859  0.7934  1.4201 -2.9717
   44CHL1   H1B 5708   4.990   5.256   9.874  2.0184  2.4063 -1.4428
   44CHL1    C2 5709   4.917   5.337  10.059  0.4020  0.7990 -0.5530
   44CHL1   H2A 5710   4.888   5.237  10.098  0.3417  1.1177  0.2263
   44CHL1   H2B 5711   4.831   5.397  10.099  2.3603  1.2779  3.1862
   44CHL1   C20 5712   5.034   5.512   9.113 -0.0060 -0.1794 -0.0346
   44CHL1   H20 5713   5.001   5.618   9.111 -0.4848 -0.3165  0.4862
   44CHL1   C21 5714   4.908   5.430   9.090 -0.8135  0.6987  0.4986
   44CHL1  H21A 5715   4.863   5.459   8.993  2.7518  0.7761 -1.2064
   44CHL1  H21B 5716   4.840   5.450   9.176 -0.1322  4.1161  0.3126
   44CHL1  H21C 5717   4.924   5.320   9.088 -1.6783  0.5570  0.9217
   44CHL1   C22 5718   5.131   5.497   8.986  0.2859  0.4705  0.2716
   44CHL1  H22A 5719   5.202   5.583   8.988  0.5175  0.3076 -0.7815
   44CHL1  H22B 5720   5.196   5.408   8.971  0.3065  0.5856 -0.3226
   44CHL1   C23 5721   5.065   5.531   8.850 -0.6548 -0.2564  0.1086
   44CHL1  H23A 5722   4.996   5.446   8.833 -1.0776  0.0713  0.1753
   44CHL1  H23B 5723   5.017   5.631   8.853  1.0199  0.6030 -0.5968
   44CHL1   C24 5724   5.178   5.545   8.745  0.9355  0.9742  0.2807
   44CHL1  H24A 5725   5.237   5.625   8.793  1.2487  1.4850 -0.9513
   44CHL1  H24B 5726   5.244   5.457   8.761  0.7622  1.2355  2.6697
   44CHL1   C25 5727   5.127   5.571   8.598 -0.0390 -0.1826  0.3230
   44CHL1   H25 5728   5.068   5.492   8.546  1.3916 -0.5766 -0.7367
   44CHL1   C26 5729   5.040   5.693   8.601 -0.6070 -0.1678 -0.0943
   44CHL1  H26A 5730   4.942   5.657   8.640 -0.0068 -0.9799  0.6860
   44CHL1  H26B 5731   5.077   5.776   8.665  1.7372 -0.1503 -1.4364
   44CHL1  H26C 5732   5.021   5.736   8.500 -0.9748 -1.6150 -0.6457
   44CHL1   C27 5733   5.246   5.599   8.504  0.1385 -0.7746 -0.3277
   44CHL1  H27A 5734   5.321   5.517   8.510 -1.6668 -2.4959 -0.7728
   44CHL1  H27B 5735   5.218   5.617   8.397 -2.7394 -1.9108  0.1912
   44CHL1  H27C 5736   5.308   5.681   8.545 -0.3310 -0.8808  0.5975
   45CHL1    C3 5737   1.616   4.234  10.205 -0.1530 -0.0335 -0.2637
   45CHL1    H3 5738   1.525   4.292  10.179 -1.2240 -0.2880  2.6664
   45CHL1    O3 5739   1.628   4.199  10.344 -0.2894  0.1483  0.5246
   45CHL1   H3' 5740   1.606   4.275  10.399  1.6681  0.3313  1.0922
   45CHL1    C4 5741   1.637   4.109  10.120 -0.0063  0.3915 -0.3222
   45CHL1   H4A 5742   1.731   4.058  10.150 -0.4131  0.1756  0.5882
   45CHL1   H4B 5743   1.557   4.041  10.158  1.6256 -0.9425  0.8330
   45CHL1    C5 5744   1.619   4.144   9.980  1.1285  0.7250  0.3142
   45CHL1    C6 5745   1.511   4.100   9.908  0.5477 -0.1343 -0.3859
   45CHL1    H6 5746   1.440   4.033   9.958 -1.6389  1.8812 -0.6863
   45CHL1    C7 5747   1.500   4.126   9.761 -0.3344  0.4826  0.2281
   45CHL1   H7A 5748   1.471   4.037   9.701  1.0551  1.7209 -2.3882
   45CHL1   H7B 5749   1.414   4.192   9.736 -2.3102 -0.1600  4.8844
   45CHL1    C8 5750   1.627   4.179   9.696 -0.1594  0.4551  0.3543
   45CHL1    H8 5751   1.584   4.234   9.610  1.6102  0.3816 -0.6150
   45CHL1   C14 5752   1.730   4.072   9.640 -0.4846  0.0531 -0.7749
   45CHL1   H14 5753   1.762   4.013   9.729  1.0200 -0.5083 -1.6622
   45CHL1   C15 5754   1.677   3.978   9.533 -0.6936 -0.1174  0.1308
   45CHL1  H15A 5755   1.717   3.874   9.540  2.4661  0.8406 -2.3913
   45CHL1  H15B 5756   1.567   3.964   9.543 -0.7748  2.2954  3.5023
   45CHL1   C16 5757   1.720   4.032   9.392  0.1008 -0.7233 -0.2387
   45CHL1  H16A 5758   1.768   3.952   9.332  1.1662 -1.7608  1.9748
   45CHL1  H16B 5759   1.632   4.082   9.344  0.5824 -1.9448 -2.4702
   45CHL1   C17 5760   1.803   4.162   9.423 -0.3277  0.9516  0.1047
   45CHL1   H17 5761   1.725   4.240   9.433 -0.6188  0.7893 -0.8674
   45CHL1   C13 5762   1.848   4.143   9.572  0.5628 -0.1247  0.3176
   45CHL1   C18 5763   1.963   4.041   9.573  0.2112  0.6817 -0.4901
   45CHL1  H18A 5764   1.940   3.951   9.513 -1.4894  1.6960 -1.3970
   45CHL1  H18B 5765   2.054   4.094   9.538  1.5408 -0.5789  0.9405
   45CHL1  H18C 5766   1.994   4.014   9.677  1.3882  2.6414 -0.2960
   45CHL1   C12 5767   1.905   4.275   9.628  0.1364 -0.7860  0.2057
   45CHL1  H12A 5768   1.991   4.248   9.692  1.7813  0.3549 -1.4775
   45CHL1  H12B 5769   1.949   4.337   9.548 -0.5234  1.9409  1.8627
   45CHL1   C11 5770   1.801   4.362   9.704  0.6470 -1.1347 -0.1020
   45CHL1  H11A 5771   1.850   4.440   9.765 -2.4776 -0.6630  1.8908
   45CHL1  H11B 5772   1.749   4.424   9.627  3.8035  0.5102 -0.9722
   45CHL1    C9 5773   1.689   4.293   9.785 -0.1188 -0.4552  0.0817
   45CHL1    H9 5774   1.607   4.366   9.797  2.2058  2.0869  0.8709
   45CHL1   C10 5775   1.727   4.246   9.922 -0.8818 -0.1438 -0.0462
   45CHL1   C19 5776   1.867   4.177   9.927 -0.6582 -0.2937  0.7135
   45CHL1  H19A 5777   1.951   4.250   9.921 -0.4586 -0.6837 -1.5023
   45CHL1  H19B 5778   1.880   4.145  10.033  1.5429 -0.4684  0.4150
   45CHL1  H19C 5779   1.877   4.090   9.859  2.1500  0.5580 -0.0522
   45CHL1    C1 5780   1.725   4.371  10.031 -0.1847  0.6646  0.2243
   45CHL1   H1A 5781   1.812   4.434  10.000  0.6006 -0.6091 -0.2101
   45CHL1   H1B 5782   1.630   4.427  10.017  0.4355  1.6137 -0.2366
   45CHL1    C2 5783   1.729   4.329  10.183  0.2026 -0.0840  0.3513
   45CHL1   H2A 5784   1.719   4.420  10.247 -2.7528 -1.9608  2.7137
   45CHL1   H2B 5785   1.824   4.283  10.219  2.7467  3.3441 -1.7065
   45CHL1   C20 5786   1.908   4.213   9.319  0.2085  0.6335  0.2448
   45CHL1   H20 5787   1.999   4.248   9.372 -0.3145 -0.2654  1.7835
   45CHL1   C21 5788   1.831   4.317   9.236  0.0782 -0.0656 -0.8015
   45CHL1  H21A 5789   1.899   4.362   9.161 -0.4267 -2.0311 -2.4776
   45CHL1  H21B 5790   1.799   4.397   9.307  1.5137 -0.6940  0.5989
   45CHL1  H21C 5791   1.751   4.270   9.175  0.3334 -1.6317  0.0573
   45CHL1   C22 5792   1.960   4.100   9.217  0.4983  0.2643  0.2104
   45CHL1  H22A 5793   1.977   4.007   9.276  0.6390  1.5392  2.2552
   45CHL1  H22B 5794   1.880   4.088   9.141  1.4240  1.0881 -0.9020
   45CHL1   C23 5795   2.098   4.137   9.166  1.0468  0.3920  0.4301
   45CHL1  H23A 5796   2.098   4.219   9.091  2.9647  0.3732  0.3826
   45CHL1  H23B 5797   2.173   4.153   9.246 -0.7219  2.2254  1.7568
   45CHL1   C24 5798   2.156   4.017   9.077  0.1338  0.0483  1.0217
   45CHL1  H24A 5799   2.159   3.920   9.132  2.4047 -0.8706 -0.6666
   45CHL1  H24B 5800   2.094   3.996   8.987  1.4989  1.1716 -0.1861
   45CHL1   C25 5801   2.299   4.048   9.022 -0.1566  0.7872  0.5048
   45CHL1   H25 5802   2.371   4.026   9.104  0.5870 -1.2152 -0.6434
   45CHL1   C26 5803   2.346   3.950   8.911  0.2567 -0.6370 -0.0240
   45CHL1  H26A 5804   2.271   3.959   8.830  0.0937 -0.0983  0.1849
   45CHL1  H26B 5805   2.440   3.994   8.872 -1.3076  0.3943 -2.6892
   45CHL1  H26C 5806   2.363   3.841   8.927 -0.4984 -0.5199  1.7153
   45CHL1   C27 5807   2.329   4.189   8.972 -0.6163 -0.0621  0.4919
   45CHL1  H27A 5808   2.432   4.195   8.931 -1.2652  0.0988 -1.1627
   45CHL1  H27B 5809   2.267   4.215   8.884 -1.5238 -1.7804  0.5972
   45CHL1  H27C 5810   2.320   4.275   9.041 -0.3276 -1.5316  2.4129
   46CHL1    C3 5811   4.841   1.659  10.054 -0.6912 -0.4630 -0.4130
   46CHL1    H3 5812   4.874   1.554  10.067 -0.7151 -0.2471  1.4708
   46CHL1    O3 5813   4.873   1.720  10.182  0.4560 -0.3882 -0.1906
   46CHL1   H3' 5814   4.832   1.661  10.246  0.5614 -1.5882 -1.1994
   46CHL1    C4 5815   4.923   1.731   9.953  0.6432  0.0961  0.4396
   46CHL1   H4A 5816   4.902   1.839   9.960 -3.2258 -0.4369 -1.7023
   46CHL1   H4B 5817   5.030   1.719   9.981  0.7872  2.2573  0.8587
   46CHL1    C5 5818   4.898   1.702   9.806  0.1950  0.3958  0.0672
   46CHL1    C6 5819   4.998   1.674   9.721 -0.1437 -0.3450 -0.0064
   46CHL1    H6 5820   5.103   1.673   9.752 -0.5701 -1.1464  1.4535
   46CHL1    C7 5821   4.982   1.627   9.581 -0.1593 -0.7018  0.0569
   46CHL1   H7A 5822   5.036   1.695   9.512 -1.6676 -0.0696 -0.5127
   46CHL1   H7B 5823   5.014   1.521   9.565  2.2586 -0.4166  2.5944
   46CHL1    C8 5824   4.837   1.641   9.521 -0.4309  0.1038 -0.0391
   46CHL1    H8 5825   4.824   1.746   9.487 -3.6842 -0.4672 -0.6984
   46CHL1   C14 5826   4.822   1.556   9.396  0.3154 -0.1682 -1.0520
   46CHL1   H14 5827   4.817   1.454   9.440 -1.7567  0.2313 -0.2919
   46CHL1   C15 5828   4.917   1.550   9.267  0.5453 -0.2857 -0.5810
   46CHL1  H15A 5829   4.953   1.653   9.247 -1.1573  0.1340 -1.5069
   46CHL1  H15B 5830   4.999   1.485   9.306 -0.0681  0.9528  2.9604
   46CHL1   C16 5831   4.840   1.494   9.152  0.2102  0.1716 -0.0713
   46CHL1  H16A 5832   4.845   1.561   9.063 -1.1865 -0.3631 -0.5677
   46CHL1  H16B 5833   4.880   1.395   9.120 -0.8062  0.4462 -2.2644
   46CHL1   C17 5834   4.698   1.464   9.206 -0.0598  0.7644  0.0121
   46CHL1   H17 5835   4.709   1.366   9.257  1.6769  1.4944  1.1015
   46CHL1   C13 5836   4.686   1.572   9.325  0.4923  0.2417 -0.6743
   46CHL1   C18 5837   4.664   1.716   9.271 -0.1763  0.4873  0.4287
   46CHL1  H18A 5838   4.566   1.727   9.220 -0.0002  0.5440  0.1062
   46CHL1  H18B 5839   4.671   1.780   9.362  0.4371 -0.0889  0.7930
   46CHL1  H18C 5840   4.737   1.743   9.192  0.5421 -0.7241  0.6670
   46CHL1   C12 5841   4.570   1.542   9.429 -0.1402 -0.1762 -0.5768
   46CHL1  H12A 5842   4.477   1.576   9.379 -1.0721 -0.3953  1.0000
   46CHL1  H12B 5843   4.556   1.432   9.438 -4.0431  0.2927 -0.2448
   46CHL1   C11 5844   4.591   1.619   9.563 -0.1253  0.7885 -0.0937
   46CHL1  H11A 5845   4.561   1.723   9.541  0.2770  0.7963 -0.5988
   46CHL1  H11B 5846   4.515   1.580   9.635 -0.1621 -0.2683 -0.6900
   46CHL1    C9 5847   4.729   1.610   9.627  0.8783 -0.1779 -0.3128
   46CHL1    H9 5848   4.755   1.504   9.651 -0.1583 -0.4053 -0.1666
   46CHL1   C10 5849   4.744   1.694   9.768  0.5070 -0.4285 -0.4689
   46CHL1   C19 5850   4.697   1.839   9.750  0.0653 -1.0292  0.2519
   46CHL1  H19A 5851   4.587   1.833   9.739  0.2124  0.1653 -1.9843
   46CHL1  H19B 5852   4.734   1.905   9.832  1.8910 -0.3040 -1.1206
   46CHL1  H19C 5853   4.732   1.873   9.650  0.2703 -0.4590  0.5130
   46CHL1    C1 5854   4.666   1.619   9.879  0.4353  0.0561 -0.5937
   46CHL1   H1A 5855   4.558   1.623   9.855  0.4451  2.7255 -0.2983
   46CHL1   H1B 5856   4.695   1.511   9.877  0.8389  0.1444  0.1111
   46CHL1    C2 5857   4.692   1.659  10.022 -0.0829 -0.6803 -0.6115
   46CHL1   H2A 5858   4.633   1.591  10.088 -0.0693 -1.0287 -0.9588
   46CHL1   H2B 5859   4.645   1.759  10.037 -0.0376 -0.9154  1.2738
   46CHL1   C20 5860   4.581   1.458   9.113  0.1477 -0.3535  0.1926
   46CHL1   H20 5861   4.488   1.493   9.163 -1.2992 -1.5535 -1.5713
   46CHL1   C21 5862   4.549   1.307   9.074  0.0130  0.0471  0.5081
   46CHL1  H21A 5863   4.459   1.302   9.009  0.0756  0.5241  0.3813
   46CHL1  H21B 5864   4.534   1.253   9.170  0.5862  0.8667  1.0708
   46CHL1  H21C 5865   4.642   1.262   9.034 -0.0793  1.4649 -1.3654
   46CHL1   C22 5866   4.597   1.537   8.980  0.1356  0.3689  0.0471
   46CHL1  H22A 5867   4.658   1.628   9.000 -0.6245  0.8591  0.1624
   46CHL1  H22B 5868   4.659   1.479   8.909 -1.2098  0.9244 -1.6147
   46CHL1   C23 5869   4.463   1.566   8.914 -0.3158 -0.3587  0.1226
   46CHL1  H23A 5870   4.418   1.467   8.892  1.9624 -1.5361  0.6416
   46CHL1  H23B 5871   4.410   1.616   8.997 -2.9090 -0.5186 -1.3956
   46CHL1   C24 5872   4.479   1.672   8.806  0.3987 -0.6697  0.3634
   46CHL1  H24A 5873   4.551   1.747   8.844  0.5500  0.2795 -1.6979
   46CHL1  H24B 5874   4.532   1.638   8.714  1.4984 -1.8037  1.3978
   46CHL1   C25 5875   4.351   1.759   8.769 -0.2555  0.6718  0.1244
   46CHL1   H25 5876   4.318   1.820   8.856 -1.8877 -0.9929  0.7291
   46CHL1   C26 5877   4.384   1.841   8.646 -0.2716  0.2009  0.5761
   46CHL1  H26A 5878   4.490   1.873   8.659 -0.0491 -0.4639  0.4008
   46CHL1  H26B 5879   4.379   1.790   8.548 -1.4791  1.9806 -0.3224
   46CHL1  H26C 5880   4.318   1.930   8.641 -2.2308 -1.2409  0.3462
   46CHL1   C27 5881   4.226   1.663   8.747  0.2233  0.1650 -0.5290
   46CHL1  H27A 5882   4.263   1.605   8.660  0.3172 -1.7927  0.7706
   46CHL1  H27B 5883   4.195   1.592   8.827  0.4699 -0.0615 -0.6335
   46CHL1  H27C 5884   4.130   1.715   8.727 -0.5884 -1.0949  0.0232
   47CHL1    C3 5885   5.347   4.913  10.170  0.3223 -0.6254 -0.1292
   47CHL1    H3 5886   5.243   4.892  10.138  0.0834  4.2545 -3.0123
   47CHL1    O3 5887   5.378   4.896  10.306  0.4509 -0.0794 -0.7712
   47CHL1   H3' 5888   5.410   4.806  10.312 -1.0899 -0.4568  2.6722
   47CHL1    C4 5889   5.433   4.823  10.088  0.0560 -1.1711 -0.5549
   47CHL1   H4A 5890   5.538   4.851  10.112 -1.2612  0.7000  3.4717
   47CHL1   H4B 5891   5.417   4.716  10.112  1.5898 -1.0745  0.9645
   47CHL1    C5 5892   5.407   4.846   9.936 -0.0601  0.0334  0.0113
   47CHL1    C6 5893   5.366   4.747   9.862  0.0823  0.1702  0.1004
   47CHL1    H6 5894   5.339   4.653   9.914  1.5908  0.5788  1.6779
   47CHL1    C7 5895   5.345   4.755   9.713  0.1508 -0.6477 -0.1134
   47CHL1   H7A 5896   5.407   4.674   9.668  0.5707  0.0092 -0.7232
   47CHL1   H7B 5897   5.238   4.735   9.690  0.5450 -2.4520 -0.4958
   47CHL1    C8 5898   5.389   4.889   9.654 -0.0216 -0.9806  0.6752
   47CHL1    H8 5899   5.498   4.875   9.638  0.2388  2.3040 -0.8480
   47CHL1   C14 5900   5.314   4.912   9.516 -0.0216 -0.3736  0.1305
   47CHL1   H14 5901   5.209   4.921   9.552  0.3278  0.4488  0.9638
   47CHL1   C15 5902   5.315   4.796   9.411  0.7557 -0.3062  0.2701
   47CHL1  H15A 5903   5.407   4.735   9.403  1.5830  0.9368  0.1114
   47CHL1  H15B 5904   5.234   4.721   9.427 -0.9885  1.2767 -0.8733
   47CHL1   C16 5905   5.305   4.875   9.280  0.2825 -0.5119  0.8791
   47CHL1  H16A 5906   5.403   4.857   9.231 -1.0790 -0.1520 -2.0334
   47CHL1  H16B 5907   5.221   4.829   9.224  1.5123 -2.0757  0.2937
   47CHL1   C17 5908   5.282   5.032   9.319  1.2398  0.2190 -0.2681
   47CHL1   H17 5909   5.174   5.045   9.341  1.1802 -0.4977 -0.1185
   47CHL1   C13 5910   5.361   5.038   9.456 -0.6432  0.3264  0.9003
   47CHL1   C18 5911   5.514   5.033   9.422 -0.5551 -0.8907 -0.8863
   47CHL1  H18A 5912   5.576   5.033   9.514 -1.2794  2.0578 -0.3240
   47CHL1  H18B 5913   5.540   4.946   9.359  1.0611 -1.8854  1.0891
   47CHL1  H18C 5914   5.545   5.125   9.368  0.1408  0.5965  1.9652
   47CHL1   C12 5915   5.327   5.159   9.547  1.3197  0.4218  0.8404
   47CHL1  H12A 5916   5.367   5.247   9.494  1.5967  1.0954  2.1410
   47CHL1  H12B 5917   5.218   5.164   9.569  0.7693 -0.9843 -1.4126
   47CHL1   C11 5918   5.390   5.149   9.681 -0.1114 -0.0343 -0.5305
   47CHL1  H11A 5919   5.500   5.151   9.663  0.1153  0.9743  0.8729
   47CHL1  H11B 5920   5.369   5.235   9.747  0.2681 -0.9114  0.7508
   47CHL1    C9 5921   5.363   5.010   9.743  0.6348 -1.1334 -0.8503
   47CHL1    H9 5922   5.252   5.010   9.753  0.6401  1.3841 -0.5321
   47CHL1   C10 5923   5.428   4.992   9.887  0.6664 -0.7350  0.4952
   47CHL1   C19 5924   5.577   5.032   9.890 -0.6537 -0.1418  0.1078
   47CHL1  H19A 5925   5.613   5.015   9.994  0.6299 -0.6263 -0.4188
   47CHL1  H19B 5926   5.648   4.984   9.820 -0.6832 -2.6124  1.7167
   47CHL1  H19C 5927   5.591   5.139   9.864  1.2911 -0.0887  1.2826
   47CHL1    C1 5928   5.340   5.078   9.979 -0.0290  0.0425  0.1011
   47CHL1   H1A 5929   5.356   5.186   9.957 -1.9661  0.6470  1.5705
   47CHL1   H1B 5930   5.236   5.042   9.962  0.3316 -1.3979  0.8452
   47CHL1    C2 5931   5.366   5.060  10.133  0.2677 -0.8034  0.7926
   47CHL1   H2A 5932   5.288   5.117  10.188  0.2787 -0.3370  0.3277
   47CHL1   H2B 5933   5.464   5.098  10.170 -0.6831  1.8346  0.7390
   47CHL1   C20 5934   5.316   5.125   9.202 -0.2293  0.8864  0.4033
   47CHL1   H20 5935   5.327   5.226   9.247  1.9072  0.8691 -0.0200
   47CHL1   C21 5936   5.189   5.122   9.111  0.5501  0.5606  0.3371
   47CHL1  H21A 5937   5.105   5.152   9.177  1.6579  1.6758  1.2570
   47CHL1  H21B 5938   5.177   5.032   9.047 -0.7532  0.9295  0.0620
   47CHL1  H21C 5939   5.205   5.201   9.035  0.3773  1.5925  1.3607
   47CHL1   C22 5940   5.435   5.086   9.114  0.2413 -0.4713  0.1835
   47CHL1  H22A 5941   5.528   5.053   9.165  0.2487 -0.1675  0.3660
   47CHL1  H22B 5942   5.403   5.000   9.051  0.0324 -0.5798  0.4367
   47CHL1   C23 5943   5.481   5.191   9.014 -0.4116 -0.3220 -0.4097
   47CHL1  H23A 5944   5.539   5.135   8.938 -2.0119 -0.9518 -1.1890
   47CHL1  H23B 5945   5.394   5.226   8.955 -0.7693 -1.0805 -0.3270
   47CHL1   C24 5946   5.542   5.319   9.074 -0.0631  0.4458  0.3341
   47CHL1  H24A 5947   5.489   5.341   9.169 -0.0272  1.3860  0.1424
   47CHL1  H24B 5948   5.651   5.305   9.089  0.1064  1.2712 -0.0849
   47CHL1   C25 5949   5.518   5.444   8.980 -0.8842  0.6125  0.1592
   47CHL1   H25 5950   5.410   5.462   8.967 -1.2336 -0.5381  1.3143
   47CHL1   C26 5951   5.587   5.567   9.045 -0.6103 -0.5481 -0.2993
   47CHL1  H26A 5952   5.584   5.663   8.989 -0.6086 -1.3816 -1.7424
   47CHL1  H26B 5953   5.692   5.538   9.067  0.0780  2.0474 -0.0477
   47CHL1  H26C 5954   5.540   5.592   9.142  0.5953 -0.4703  0.2758
   47CHL1   C27 5955   5.575   5.418   8.849  0.1515  0.1145  0.0131
   47CHL1  H27A 5956   5.572   5.510   8.787  3.1943  1.6628  1.9933
   47CHL1  H27B 5957   5.679   5.382   8.866 -0.3662 -0.9806  0.8921
   47CHL1  H27C 5958   5.518   5.339   8.796 -0.4365  0.6120 -0.0924
   48CHL1    C3 5959   6.031   5.847   9.972 -0.2989  0.2147  0.2057
   48CHL1    H3 5960   5.940   5.823   9.913  0.9298 -3.9208 -0.1839
   48CHL1    O3 5961   6.018   5.809  10.109  0.2316 -0.1214 -0.5170
   48CHL1   H3' 5962   5.925   5.817  10.132  0.3643 -0.7854  0.3281
   48CHL1    C4 5963   6.153   5.763   9.927  0.8154  0.4267 -0.5417
   48CHL1   H4A 5964   6.236   5.792   9.996  1.2590 -2.0414  0.0100
   48CHL1   H4B 5965   6.129   5.657   9.948  1.8739  0.5722  1.6022
   48CHL1    C5 5966   6.189   5.797   9.784  0.1336  0.0019 -0.2075
   48CHL1    C6 5967   6.181   5.697   9.696  0.5016 -0.2264  0.1753
   48CHL1    H6 5968   6.156   5.596   9.730  0.8067 -0.1177  0.7245
   48CHL1    C7 5969   6.199   5.714   9.546 -0.2447 -0.0300  0.4433
   48CHL1   H7A 5970   6.264   5.633   9.507 -0.8831 -1.1632  1.7261
   48CHL1   H7B 5971   6.108   5.708   9.482  1.0059 -0.2265 -1.3816
   48CHL1    C8 5972   6.267   5.844   9.510  0.2051 -0.0656  0.4331
   48CHL1    H8 5973   6.375   5.833   9.535  0.1047 -1.5683  0.2936
   48CHL1   C14 5974   6.240   5.875   9.365  0.0445 -0.0847  0.3804
   48CHL1   H14 5975   6.130   5.891   9.367 -0.2666 -2.2315  2.9172
   48CHL1   C15 5976   6.269   5.761   9.262  0.1740 -0.7545  0.0115
   48CHL1  H15A 5977   6.369   5.717   9.282  0.4767  0.1716  0.5405
   48CHL1  H15B 5978   6.201   5.673   9.274  1.7740 -1.8063  1.6328
   48CHL1   C16 5979   6.257   5.843   9.129 -0.5557  0.9524 -0.1628
   48CHL1  H16A 5980   6.338   5.817   9.059 -1.6395 -1.3837 -0.5840
   48CHL1  H16B 5981   6.162   5.810   9.081 -1.0904  1.7369  0.3282
   48CHL1   C17 5982   6.241   5.997   9.155 -0.6255 -0.4733  0.2943
   48CHL1   H17 5983   6.133   6.021   9.157 -0.5679  0.0230 -1.5708
   48CHL1   C13 5984   6.291   6.005   9.304 -0.3275 -0.1969  0.1720
   48CHL1   C18 5985   6.452   6.002   9.313  0.5463  0.2904 -0.0046
   48CHL1  H18A 5986   6.495   5.903   9.287  1.0738  0.5957 -0.3092
   48CHL1  H18B 5987   6.501   6.075   9.244 -2.1494  1.3239 -0.8988
   48CHL1  H18C 5988   6.484   6.028   9.416 -0.3688  1.8315 -0.0894
   48CHL1   C12 5989   6.236   6.126   9.382  0.1684 -0.3304 -0.2924
   48CHL1  H12A 5990   6.283   6.223   9.356 -2.1916  0.6891 -0.8969
   48CHL1  H12B 5991   6.127   6.134   9.362  0.4572  0.2573 -1.6720
   48CHL1   C11 5992   6.249   6.107   9.534  0.0785  0.0399 -0.0163
   48CHL1  H11A 5993   6.354   6.130   9.563  0.8035 -2.9384 -0.1032
   48CHL1  H11B 5994   6.191   6.180   9.593 -0.8378 -1.3812  0.8668
   48CHL1    C9 5995   6.212   5.959   9.589 -0.2008 -0.1615 -0.3563
   48CHL1    H9 5996   6.103   5.952   9.570 -0.3192  0.3932  0.1125
   48CHL1   C10 5997   6.225   5.940   9.743 -0.4035 -0.2917  0.2986
   48CHL1   C19 5998   6.369   5.969   9.791 -0.2466 -0.4835 -0.5797
   48CHL1  H19A 5999   6.394   5.887   9.862  0.4544 -1.0590 -1.4705
   48CHL1  H19B 6000   6.435   5.969   9.701 -0.9743 -0.1351 -1.1178
   48CHL1  H19C 6001   6.370   6.074   9.826 -1.5710 -1.3143  2.0785
   48CHL1    C1 6002   6.124   6.038   9.815  0.5210  0.1089 -0.3415
   48CHL1   H1A 6003   6.167   6.140   9.814  0.9097 -0.0307  0.9101
   48CHL1   H1B 6004   6.037   6.061   9.751 -0.1626 -1.6210 -0.0699
   48CHL1    C2 6005   6.068   5.998   9.954  0.1426 -0.4534  0.5646
   48CHL1   H2A 6006   5.974   6.053   9.979 -0.1427 -0.9464  0.5810
   48CHL1   H2B 6007   6.136   6.027  10.037  0.7085 -1.6725  0.5232
   48CHL1   C20 6008   6.313   6.090   9.051 -0.2966 -0.0058  0.3888
   48CHL1   H20 6009   6.424   6.081   9.054 -0.4314 -1.5666  1.0117
   48CHL1   C21 6010   6.263   6.233   9.056  0.4117 -0.2327  0.1293
   48CHL1  H21A 6011   6.307   6.294   8.974  0.9465 -0.2106  0.4341
   48CHL1  H21B 6012   6.295   6.291   9.145  1.2787 -1.5635  0.7032
   48CHL1  H21C 6013   6.153   6.235   9.041  0.6670 -1.8912 -2.2851
   48CHL1   C22 6014   6.288   6.048   8.908  0.3239 -0.2273  0.2085
   48CHL1  H22A 6015   6.291   5.939   8.887  4.6739 -0.5351  1.7861
   48CHL1  H22B 6016   6.185   6.083   8.887  0.6168  0.6202  0.1857
   48CHL1   C23 6017   6.390   6.094   8.805 -0.9587 -0.0390 -0.3246
   48CHL1  H23A 6018   6.414   6.201   8.821 -1.2298  0.0655 -0.6133
   48CHL1  H23B 6019   6.488   6.050   8.834 -1.8582 -1.4600  0.6010
   48CHL1   C24 6020   6.374   6.061   8.659 -0.0866  1.2236  0.2054
   48CHL1  H24A 6021   6.464   6.092   8.601  0.7590  0.2614  0.9984
   48CHL1  H24B 6022   6.373   5.950   8.651  0.3945  1.2431 -0.1576
   48CHL1   C25 6023   6.255   6.109   8.574  1.3126  0.5787 -0.1576
   48CHL1   H25 6024   6.158   6.082   8.622  2.3807 -0.7982  1.2505
   48CHL1   C26 6025   6.259   6.266   8.565 -0.4845 -0.2215 -0.3168
   48CHL1  H26A 6026   6.344   6.309   8.509 -0.5657  1.1725  0.6083
   48CHL1  H26B 6027   6.172   6.312   8.512  0.5211 -0.6784 -2.3795
   48CHL1  H26C 6028   6.260   6.305   8.669 -0.5333 -1.0950  0.0168
   48CHL1   C27 6029   6.262   6.038   8.441  0.3124  0.9226 -0.1877
   48CHL1  H27A 6030   6.357   6.064   8.390  1.6595  0.3901  1.9684
   48CHL1  H27B 6031   6.261   5.927   8.454 -1.0596  1.1713  2.0738
   48CHL1  H27C 6032   6.174   6.065   8.378  1.1756  0.8412 -1.4454
   49CHL1    C3 6033   4.415   1.300   9.945  0.2611 -0.5927 -0.4555
   49CHL1    H3 6034   4.418   1.410   9.932  1.0029 -0.6614 -0.9209
   49CHL1    O3 6035   4.465   1.279  10.072 -0.8101  1.0281 -0.2633
   49CHL1   H3' 6036   4.560   1.283  10.055 -0.9623  1.4539 -1.0364
   49CHL1    C4 6037   4.267   1.243   9.945  0.3032 -0.7103  0.6008
   49CHL1   H4A 6038   4.279   1.133   9.947 -1.8819 -0.9569  0.9135
   49CHL1   H4B 6039   4.211   1.276  10.035  2.3579  0.9261  1.3195
   49CHL1    C5 6040   4.207   1.275   9.808  0.5293  0.2118 -0.1699
   49CHL1    C6 6041   4.099   1.354   9.801 -0.0232  0.1186  0.0571
   49CHL1    H6 6042   4.042   1.381   9.892  0.2740  1.0990 -0.0395
   49CHL1    C7 6043   4.026   1.380   9.680  0.2059  0.5254  0.9901
   49CHL1   H7A 6044   3.916   1.371   9.685  0.2455  0.3383  1.5522
   49CHL1   H7B 6045   4.041   1.486   9.648 -3.3756  0.5161 -0.9405
   49CHL1    C8 6046   4.077   1.297   9.554 -0.4147 -0.2359  0.6363
   49CHL1    H8 6047   4.021   1.201   9.551 -2.2751  0.8137  1.0348
   49CHL1   C14 6048   4.031   1.358   9.427 -0.9987 -0.2893  0.0820
   49CHL1   H14 6049   4.075   1.460   9.433 -1.3249  0.0327 -2.4370
   49CHL1   C15 6050   3.883   1.397   9.408  0.0518 -0.1228  0.4176
   49CHL1  H15A 6051   3.821   1.318   9.455  0.0282  0.7365  1.8725
   49CHL1  H15B 6052   3.856   1.487   9.468  0.5751  0.3515 -0.0507
   49CHL1   C16 6053   3.872   1.429   9.261 -0.1482 -0.4426 -0.3912
   49CHL1  H16A 6054   3.802   1.357   9.214 -0.4053 -0.0664 -0.5848
   49CHL1  H16B 6055   3.829   1.526   9.230  0.1473 -1.0272 -2.7123
   49CHL1   C17 6056   4.011   1.397   9.191  0.1751  0.3387 -0.1267
   49CHL1   H17 6057   4.057   1.498   9.193  1.1250 -0.1213  2.1486
   49CHL1   C13 6058   4.082   1.304   9.294  0.2077  0.1513  0.2233
   49CHL1   C18 6059   4.040   1.154   9.276 -0.4693 -0.5251 -0.0078
   49CHL1  H18A 6060   4.092   1.104   9.360  1.0910  0.0477 -0.6243
   49CHL1  H18B 6061   3.930   1.141   9.281 -0.5150  0.6128  2.8201
   49CHL1  H18C 6062   4.074   1.111   9.180 -1.0286 -0.8602 -0.0584
   49CHL1   C12 6063   4.240   1.319   9.293  0.2738  0.2394 -0.9382
   49CHL1  H12A 6064   4.286   1.270   9.204 -0.7947 -0.1061 -1.3057
   49CHL1  H12B 6065   4.278   1.422   9.308  0.6006  0.0434 -0.4059
   49CHL1   C11 6066   4.294   1.240   9.417 -0.9612  0.3608  0.5260
   49CHL1  H11A 6067   4.285   1.130   9.407 -0.3465  0.3579 -0.0088
   49CHL1  H11B 6068   4.404   1.251   9.422 -0.8490  0.7811 -2.1455
   49CHL1    C9 6069   4.233   1.297   9.554 -0.2010 -0.7539 -0.3095
   49CHL1    H9 6070   4.261   1.404   9.567 -0.5269 -0.7274  0.1769
   49CHL1   C10 6071   4.281   1.217   9.682 -0.4685  0.4206 -0.2803
   49CHL1   C19 6072   4.273   1.060   9.669 -0.5302  0.3478  0.1610
   49CHL1  H19A 6073   4.316   1.008   9.757  1.2454  1.5359  0.0279
   49CHL1  H19B 6074   4.170   1.028   9.643  0.0353 -0.0540 -1.6396
   49CHL1  H19C 6075   4.344   1.028   9.590  3.2541  4.7080  1.5166
   49CHL1    C1 6076   4.431   1.250   9.697  0.4855  0.4073 -0.6328
   49CHL1   H1A 6077   4.494   1.199   9.620  1.3974 -0.6945  0.7952
   49CHL1   H1B 6078   4.454   1.358   9.684 -1.4592  0.6465 -2.1554
   49CHL1    C2 6079   4.489   1.219   9.834 -0.8467  0.1717 -0.1745
   49CHL1   H2A 6080   4.596   1.243   9.849 -0.0841 -1.6902 -2.4292
   49CHL1   H2B 6081   4.481   1.109   9.850 -1.1951  0.3139  0.6722
   49CHL1   C20 6082   3.998   1.350   9.043  1.2096 -0.0383 -0.8609
   49CHL1   H20 6083   3.955   1.248   9.052  1.3574 -0.0319 -0.0289
   49CHL1   C21 6084   4.128   1.347   8.971 -0.3947 -0.0825 -0.3044
   49CHL1  H21A 6085   4.117   1.347   8.860  3.4485  0.1587 -0.7624
   49CHL1  H21B 6086   4.185   1.256   9.002 -0.9742  0.3955  2.3059
   49CHL1  H21C 6087   4.186   1.438   8.997 -3.3355  2.4879 -2.4777
   49CHL1   C22 6088   3.881   1.431   8.965  0.6558 -0.5315  0.1902
   49CHL1  H22A 6089   3.786   1.394   9.009  1.2531 -1.1243  1.0083
   49CHL1  H22B 6090   3.898   1.539   8.985 -1.2476 -0.2283  0.2013
   49CHL1   C23 6091   3.862   1.395   8.812 -0.3085  0.3766 -0.1715
   49CHL1  H23A 6092   3.954   1.415   8.755  0.1564 -2.7804 -0.5763
   49CHL1  H23B 6093   3.837   1.288   8.801 -0.8732  0.6995 -2.2646
   49CHL1   C24 6094   3.740   1.469   8.751 -0.0340  0.6806  0.9759
   49CHL1  H24A 6095   3.665   1.486   8.832 -0.4704  1.1594  0.4701
   49CHL1  H24B 6096   3.760   1.575   8.724  2.2847  0.2174  0.7848
   49CHL1   C25 6097   3.685   1.398   8.623 -0.5583 -0.5471 -0.1742
   49CHL1   H25 6098   3.656   1.292   8.644 -0.4875 -0.2827  1.2581
   49CHL1   C26 6099   3.553   1.464   8.570 -0.5451 -1.0716  0.4536
   49CHL1  H26A 6100   3.495   1.401   8.500 -0.8885 -1.5073  1.1339
   49CHL1  H26B 6101   3.506   1.500   8.664 -1.4953 -1.5093  0.1449
   49CHL1  H26C 6102   3.566   1.560   8.516  1.6589 -1.1168  0.8374
   49CHL1   C27 6103   3.793   1.403   8.509  0.4637  0.5808  0.0208
   49CHL1  H27A 6104   3.817   1.504   8.469 -2.7030  1.6379  0.6833
   49CHL1  H27B 6105   3.887   1.354   8.545 -1.4880 -2.4638  1.1521
   49CHL1  H27C 6106   3.761   1.339   8.424 -0.4080  1.4156 -0.2799
   50CHL1    C3 6107   0.644   3.512  10.115 -0.3750 -0.2531  1.1116
   50CHL1    H3 6108   0.541   3.492  10.079 -0.0225  1.6753 -1.1115
   50CHL1    O3 6109   0.639   3.519  10.256 -0.6018  0.3380  0.3478
   50CHL1   H3' 6110   0.553   3.558  10.273 -1.0717 -1.2208  1.6923
   50CHL1    C4 6111   0.736   3.403  10.058 -0.3161 -0.6349  0.3047
   50CHL1   H4A 6112   0.840   3.416  10.092 -0.8242  0.9010  1.3170
   50CHL1   H4B 6113   0.698   3.304  10.094  0.9758  0.0995  3.9768
   50CHL1    C5 6114   0.732   3.405   9.906 -0.7326 -0.3806  0.5057
   50CHL1    C6 6115   0.693   3.297   9.839  0.6016 -0.0207  0.0166
   50CHL1    H6 6116   0.644   3.213   9.891  0.4846 -2.4981 -3.8903
   50CHL1    C7 6117   0.698   3.302   9.691  0.0979 -0.5187  0.5678
   50CHL1   H7A 6118   0.744   3.210   9.648  0.2079 -0.4411  0.5208
   50CHL1   H7B 6119   0.593   3.307   9.655  0.3858 -0.8390 -0.3486
   50CHL1    C8 6120   0.782   3.412   9.620  0.5925  0.3997  0.2205
   50CHL1    H8 6121   0.885   3.376   9.638  0.1716 -0.6511  0.5877
   50CHL1   C14 6122   0.760   3.414   9.472  0.0990 -0.5218  0.2047
   50CHL1   H14 6123   0.654   3.448   9.472  0.2447 -0.0270 -0.6388
   50CHL1   C15 6124   0.773   3.286   9.388 -0.8740  0.4136 -0.0240
   50CHL1  H15A 6125   0.862   3.223   9.411  0.1204  0.3576 -3.6575
   50CHL1  H15B 6126   0.680   3.229   9.370 -1.2512  1.0398 -0.0516
   50CHL1   C16 6127   0.810   3.336   9.244 -0.0191 -0.8401 -0.6835
   50CHL1  H16A 6128   0.910   3.306   9.207  0.3235 -2.4410  1.4212
   50CHL1  H16B 6129   0.730   3.307   9.172 -0.7219 -1.2528  0.2452
   50CHL1   C17 6130   0.814   3.488   9.254 -0.4705  0.7205 -0.6599
   50CHL1   H17 6131   0.711   3.532   9.257 -1.0589 -0.6435 -0.7848
   50CHL1   C13 6132   0.849   3.517   9.399 -1.1722  0.6659 -0.4897
   50CHL1   C18 6133   0.998   3.486   9.413 -0.1966  0.5057  0.6759
   50CHL1  H18A 6134   1.038   3.461   9.514 -1.0255 -3.0882  0.1845
   50CHL1  H18B 6135   1.023   3.384   9.376  2.9966  0.4933  2.6237
   50CHL1  H18C 6136   1.057   3.564   9.361 -1.4848  0.9311 -0.1477
   50CHL1   C12 6137   0.818   3.658   9.457 -0.4900 -0.4051 -0.3085
   50CHL1  H12A 6138   0.905   3.715   9.419 -0.1206 -1.5954 -1.2742
   50CHL1  H12B 6139   0.723   3.696   9.414 -1.4996  0.5460  2.6260
   50CHL1   C11 6140   0.830   3.655   9.612  0.6824 -0.2568  0.1023
   50CHL1  H11A 6141   0.940   3.648   9.623  0.9230  1.7709 -0.8355
   50CHL1  H11B 6142   0.802   3.745   9.672  3.2638  0.3329  0.4595
   50CHL1    C9 6143   0.755   3.543   9.693  0.1461 -0.5035  0.6671
   50CHL1    H9 6144   0.647   3.567   9.690  0.0944 -0.8693 -0.2983
   50CHL1   C10 6145   0.777   3.537   9.844 -0.0084 -0.5434  0.0058
   50CHL1   C19 6146   0.925   3.563   9.867 -0.2780 -0.3235  0.2819
   50CHL1  H19A 6147   0.954   3.563   9.975  0.0433 -0.6062  0.1997
   50CHL1  H19B 6148   0.993   3.489   9.820  0.1040 -0.3594  0.8834
   50CHL1  H19C 6149   0.961   3.662   9.833 -1.1325  0.3436  1.2820
   50CHL1    C1 6150   0.694   3.653   9.914 -0.1281 -0.6092 -0.8707
   50CHL1   H1A 6151   0.728   3.752   9.877 -1.2732  0.1864  0.1806
   50CHL1   H1B 6152   0.590   3.644   9.877 -0.3815 -0.5211 -0.1741
   50CHL1    C2 6153   0.691   3.652  10.067 -0.1982 -0.0619  0.0092
   50CHL1   H2A 6154   0.625   3.733  10.106 -2.7202 -1.2102 -1.7333
   50CHL1   H2B 6155   0.795   3.670  10.103 -0.1770 -2.7767  1.3889
   50CHL1   C20 6156   0.896   3.554   9.142 -0.7973  0.4344  0.3624
   50CHL1   H20 6157   1.003   3.522   9.144 -0.6467  0.7056 -1.9313
   50CHL1   C21 6158   0.890   3.705   9.142  0.2816  0.1715 -0.4331
   50CHL1  H21A 6159   0.783   3.737   9.146  0.3291  0.5960 -2.1122
   50CHL1  H21B 6160   0.929   3.752   9.049  0.6165 -1.6830 -1.2533
   50CHL1  H21C 6161   0.940   3.748   9.232 -2.6011 -0.6759  1.6469
   50CHL1   C22 6162   0.862   3.514   9.001  0.2712  0.1027 -0.0759
   50CHL1  H22A 6163   0.929   3.564   8.928  1.0028  0.1399  0.6176
   50CHL1  H22B 6164   0.872   3.404   8.988  0.3672  0.1794 -0.6983
   50CHL1   C23 6165   0.721   3.546   8.959  0.3925  0.2481  0.5747
   50CHL1  H23A 6166   0.652   3.485   9.022 -0.8760  1.3804  0.3094
   50CHL1  H23B 6167   0.686   3.649   8.983 -2.3002 -0.6744  0.8614
   50CHL1   C24 6168   0.697   3.531   8.805  0.1419 -0.2839 -0.7270
   50CHL1  H24A 6169   0.602   3.578   8.771  0.6608 -0.2080 -2.1047
   50CHL1  H24B 6170   0.777   3.587   8.753  0.6177 -0.9203 -0.6953
   50CHL1   C25 6171   0.698   3.384   8.754 -0.2760 -0.4446 -0.2737
   50CHL1   H25 6172   0.794   3.335   8.783  0.0934  0.3498 -0.1422
   50CHL1   C26 6173   0.583   3.301   8.813  0.4283  0.3955  0.2253
   50CHL1  H26A 6174   0.489   3.344   8.773  0.4357 -1.8202 -2.3234
   50CHL1  H26B 6175   0.590   3.199   8.771 -4.0278  0.1344 -0.0724
   50CHL1  H26C 6176   0.580   3.303   8.924  0.7487  1.5116  0.2235
   50CHL1   C27 6177   0.690   3.380   8.604 -0.0433 -0.6638  0.4770
   50CHL1  H27A 6178   0.771   3.443   8.562 -1.1535  1.7447  1.8411
   50CHL1  H27B 6179   0.691   3.278   8.560 -0.8814  0.8650 -3.3179
   50CHL1  H27C 6180   0.595   3.421   8.564  1.4502  1.4018 -1.0508
   51CHL1    C3 6181   2.355   5.635  10.286  0.3443 -0.3790  0.0558
   51CHL1    H3 6182   2.409   5.539  10.302  0.1535 -0.5322 -0.2088
   51CHL1    O3 6183   2.321   5.687  10.413 -0.7048 -0.0060  0.2313
   51CHL1   H3' 6184   2.302   5.606  10.462 -1.4608  0.1685  0.2348
   51CHL1    C4 6185   2.434   5.735  10.207 -0.2362 -0.3117  0.0755
   51CHL1   H4A 6186   2.374   5.829  10.206 -1.7572 -1.1994  2.2929
   51CHL1   H4B 6187   2.532   5.753  10.255  0.1333 -0.1509 -0.7433
   51CHL1    C5 6188   2.461   5.671  10.073  0.3573  0.3316 -0.5229
   51CHL1    C6 6189   2.587   5.659  10.026 -0.5931  0.3221  0.0639
   51CHL1    H6 6190   2.668   5.691  10.093  0.2921  1.6913 -1.5814
   51CHL1    C7 6191   2.612   5.610   9.883 -0.1648 -0.4482 -0.0678
   51CHL1   H7A 6192   2.699   5.671   9.848 -0.9851  1.1035  0.5567
   51CHL1   H7B 6193   2.644   5.504   9.876  0.4296 -0.3067  0.4003
   51CHL1    C8 6194   2.492   5.638   9.793 -0.4190  0.2061 -0.4132
   51CHL1    H8 6195   2.480   5.746   9.773 -0.3228  0.4203  0.6638
   51CHL1   C14 6196   2.521   5.555   9.665  0.7723 -0.0637  0.9944
   51CHL1   H14 6197   2.528   5.449   9.695 -0.0749 -0.3844  0.0872
   51CHL1   C15 6198   2.654   5.584   9.586 -0.0912  0.5317 -0.2434
   51CHL1  H15A 6199   2.671   5.693   9.583  0.9435  0.3363 -2.1445
   51CHL1  H15B 6200   2.738   5.548   9.650  0.0979  0.5117 -0.5051
   51CHL1   C16 6201   2.637   5.540   9.437  0.6043  0.3545 -0.1662
   51CHL1  H16A 6202   2.665   5.633   9.383 -2.2623  0.2123 -2.0323
   51CHL1  H16B 6203   2.692   5.451   9.401 -0.8540 -1.1055  1.0888
   51CHL1   C17 6204   2.482   5.510   9.428  0.7786  0.7416  0.0518
   51CHL1   H17 6205   2.470   5.403   9.456  2.3314  0.6265  0.3163
   51CHL1   C13 6206   2.414   5.578   9.555  0.1431 -0.5240 -0.0593
   51CHL1   C18 6207   2.399   5.730   9.528  0.3142  0.7522 -0.0406
   51CHL1  H18A 6208   2.344   5.779   9.611 -1.6365  0.2613 -1.0069
   51CHL1  H18B 6209   2.498   5.778   9.542  0.2598  0.3616  1.8111
   51CHL1  H18C 6210   2.346   5.752   9.432 -0.0711 -0.9618 -0.2392
   51CHL1   C12 6211   2.289   5.511   9.614  0.0770 -0.3158 -0.4938
   51CHL1  H12A 6212   2.200   5.499   9.549  0.2719  0.1720 -0.8594
   51CHL1  H12B 6213   2.324   5.409   9.641 -2.0230 -1.1208 -0.7232
   51CHL1   C11 6214   2.254   5.567   9.758 -0.2074  0.3046 -0.6580
   51CHL1  H11A 6215   2.209   5.668   9.748  1.5193  1.0341 -1.3842
   51CHL1  H11B 6216   2.177   5.500   9.800  0.4126 -0.8663 -1.3645
   51CHL1    C9 6217   2.367   5.575   9.855  0.1984 -0.7472 -0.3222
   51CHL1    H9 6218   2.394   5.468   9.871  2.4573 -0.1956 -0.2097
   51CHL1   C10 6219   2.339   5.649   9.989 -0.1620 -0.3730 -0.3248
   51CHL1   C19 6220   2.290   5.794   9.955 -0.3991 -0.1470  0.0529
   51CHL1  H19A 6221   2.265   5.851  10.047 -0.0378  1.3595 -0.7659
   51CHL1  H19B 6222   2.365   5.859   9.905  1.9859 -3.3907 -0.7446
   51CHL1  H19C 6223   2.196   5.787   9.897 -0.5979 -1.0292  0.4788
   51CHL1    C1 6224   2.232   5.576  10.071 -0.1749 -0.8739 -0.5005
   51CHL1   H1A 6225   2.130   5.590  10.029 -0.0390  0.6684 -0.3501
   51CHL1   H1B 6226   2.249   5.468  10.055  0.9991 -0.7333 -0.2309
   51CHL1    C2 6227   2.215   5.615  10.218  0.0060 -0.4479  0.5830
   51CHL1   H2A 6228   2.161   5.543  10.283  1.5315 -1.3465  0.8842
   51CHL1   H2B 6229   2.152   5.706  10.226  0.1200 -0.3564  0.4377
   51CHL1   C20 6230   2.423   5.530   9.287  0.6683 -0.0480  0.1885
   51CHL1   H20 6231   2.425   5.639   9.263  0.3854 -0.0808  0.0191
   51CHL1   C21 6232   2.270   5.492   9.291  0.0162 -0.2313  0.1364
   51CHL1  H21A 6233   2.243   5.500   9.184  0.8387 -0.5127 -0.0928
   51CHL1  H21B 6234   2.220   5.567   9.357 -0.3995  0.6594 -1.1827
   51CHL1  H21C 6235   2.264   5.385   9.322  0.9089 -1.2701 -3.0973
   51CHL1   C22 6236   2.493   5.445   9.180  0.0639 -0.1645 -0.0875
   51CHL1  H22A 6237   2.601   5.441   9.204 -0.6851 -0.1918  3.5497
   51CHL1  H22B 6238   2.454   5.341   9.191 -0.0956 -0.0859  0.0999
   51CHL1   C23 6239   2.477   5.500   9.043 -1.2388  0.1348  0.3308
   51CHL1  H23A 6240   2.370   5.496   9.013 -0.9120 -1.0762 -0.7048
   51CHL1  H23B 6241   2.499   5.608   9.052  2.2698 -0.4463 -0.5400
   51CHL1   C24 6242   2.572   5.438   8.941 -0.5708  0.2799  0.8631
   51CHL1  H24A 6243   2.579   5.485   8.841 -1.4666  2.7522  1.9260
   51CHL1  H24B 6244   2.675   5.452   8.981 -0.5015 -0.5063  0.9645
   51CHL1   C25 6245   2.559   5.292   8.916  0.3902 -0.0494 -0.8289
   51CHL1   H25 6246   2.579   5.237   9.010  2.1227  0.6110 -0.7863
   51CHL1   C26 6247   2.414   5.267   8.868  0.2021  0.4532 -0.1824
   51CHL1  H26A 6248   2.396   5.316   8.770 -3.1959 -0.5366 -0.1319
   51CHL1  H26B 6249   2.408   5.159   8.840  0.2956  1.0786 -2.7055
   51CHL1  H26C 6250   2.339   5.279   8.949 -0.1532 -0.5042 -0.3565
   51CHL1   C27 6251   2.653   5.250   8.800 -0.4565 -0.4822  0.1274
   51CHL1  H27A 6252   2.651   5.140   8.786  1.6492 -0.5495  0.1901
   51CHL1  H27B 6253   2.623   5.296   8.703  3.4571  1.6948 -0.1707
   51CHL1  H27C 6254   2.757   5.273   8.831 -1.5383  0.7897  2.9044
   52CHL1    C3 6255   5.779   4.482  10.215 -0.5001  0.7639 -0.2664
   52CHL1    H3 6256   5.674   4.517  10.224 -1.8036 -2.7706 -0.7895
   52CHL1    O3 6257   5.805   4.417  10.341  0.2081  0.5454 -0.2268
   52CHL1   H3' 6258   5.815   4.482  10.412 -0.2383 -0.5123  0.8186
   52CHL1    C4 6259   5.786   4.382  10.097  0.0076  0.0239 -0.3466
   52CHL1   H4A 6260   5.882   4.327  10.093  0.9605  1.6215  0.4378
   52CHL1   H4B 6261   5.704   4.310  10.119  0.2928  0.3130  1.7309
   52CHL1    C5 6262   5.761   4.439   9.961 -1.0841  0.5503  0.0293
   52CHL1    C6 6263   5.678   4.383   9.874 -0.1725 -0.2901 -0.3446
   52CHL1    H6 6264   5.618   4.300   9.914  1.4599 -0.4492  1.8106
   52CHL1    C7 6265   5.651   4.431   9.732  0.6850 -0.7669  0.6767
   52CHL1   H7A 6266   5.622   4.348   9.665  0.3431 -1.8806  2.1775
   52CHL1   H7B 6267   5.559   4.494   9.730  0.5928 -0.9218 -0.2043
   52CHL1    C8 6268   5.769   4.523   9.690  0.1636 -0.4255  0.0085
   52CHL1    H8 6269   5.852   4.454   9.665 -0.8956 -1.3886 -0.9200
   52CHL1   C14 6270   5.739   4.590   9.565 -0.1934  0.0459 -0.4773
   52CHL1   H14 6271   5.648   4.652   9.577 -0.7161 -0.6922 -0.5968
   52CHL1   C15 6272   5.707   4.500   9.445 -0.3598 -0.8629 -0.0918
   52CHL1  H15A 6273   5.783   4.419   9.441  0.4246 -0.0996 -1.1051
   52CHL1  H15B 6274   5.600   4.473   9.439 -1.3057  2.6524  0.1482
   52CHL1   C16 6275   5.731   4.587   9.322  0.4137  0.3602 -0.5774
   52CHL1  H16A 6276   5.787   4.518   9.256 -3.0097 -0.5817 -2.6247
   52CHL1  H16B 6277   5.643   4.622   9.264 -0.6418  0.0443  0.8034
   52CHL1   C17 6278   5.806   4.715   9.362 -0.3690 -0.1140 -0.2537
   52CHL1   H17 6279   5.730   4.796   9.359 -0.7925 -0.4919  0.3478
   52CHL1   C13 6280   5.847   4.682   9.512 -0.0971 -0.7617 -0.4767
   52CHL1   C18 6281   5.982   4.605   9.496 -0.1587 -0.6243  0.1602
   52CHL1  H18A 6282   6.006   4.562   9.595 -2.2819 -1.3276  0.3921
   52CHL1  H18B 6283   5.978   4.518   9.426  0.1535  0.2178 -0.9131
   52CHL1  H18C 6284   6.061   4.681   9.478 -0.0813 -0.1007  2.5809
   52CHL1   C12 6285   5.858   4.804   9.607  0.0435 -0.2607 -0.2320
   52CHL1  H12A 6286   5.930   4.884   9.581 -1.1652  1.5335  1.7928
   52CHL1  H12B 6287   5.759   4.855   9.610 -1.2337 -2.6077 -0.9585
   52CHL1   C11 6288   5.893   4.752   9.747 -0.2673  0.1873  0.2656
   52CHL1  H11A 6289   5.999   4.722   9.742  0.0270  1.0869  1.0387
   52CHL1  H11B 6290   5.872   4.842   9.809 -2.8951 -0.1964  0.0174
   52CHL1    C9 6291   5.800   4.633   9.796 -0.4280 -0.5679  0.0165
   52CHL1    H9 6292   5.703   4.681   9.821 -0.6420 -0.5835 -0.7612
   52CHL1   C10 6293   5.849   4.565   9.934  0.3355  0.6729 -0.6539
   52CHL1   C19 6294   6.005   4.528   9.916 -0.1026  0.1230  0.6589
   52CHL1  H19A 6295   6.007   4.459   9.829  0.0725 -0.7045  1.3068
   52CHL1  H19B 6296   6.056   4.626   9.904 -1.2195  0.5298 -0.9349
   52CHL1  H19C 6297   6.040   4.483  10.011 -1.8821 -0.0341  1.2603
   52CHL1    C1 6298   5.830   4.667  10.042  0.0924  0.0536 -0.7654
   52CHL1   H1A 6299   5.883   4.764  10.031  1.7977 -0.4114  2.5195
   52CHL1   H1B 6300   5.723   4.696  10.049  0.1978  0.4325 -0.7637
   52CHL1    C2 6301   5.856   4.611  10.187  0.3333 -0.2009 -0.5059
   52CHL1   H2A 6302   5.832   4.695  10.256 -1.9221 -1.1920 -0.0366
   52CHL1   H2B 6303   5.966   4.595  10.200  0.0728 -0.5556  1.4085
   52CHL1   C20 6304   5.911   4.757   9.260 -0.7773 -1.0852  1.1865
   52CHL1   H20 6305   5.986   4.675   9.262  0.2133 -0.2573 -0.7795
   52CHL1   C21 6306   5.981   4.886   9.303 -0.1901 -0.0542 -0.1200
   52CHL1  H21A 6307   6.025   4.937   9.215 -1.3657 -0.9506 -1.2405
   52CHL1  H21B 6308   6.063   4.861   9.374  0.8220 -1.8797 -1.8868
   52CHL1  H21C 6309   5.908   4.963   9.336 -0.2275  0.9289 -2.4352
   52CHL1   C22 6310   5.857   4.766   9.114 -0.8401 -0.4088 -0.3219
   52CHL1  H22A 6311   5.934   4.804   9.044  0.3230 -0.8990  0.6679
   52CHL1  H22B 6312   5.819   4.666   9.083  0.1254 -0.2856 -1.9219
   52CHL1   C23 6313   5.728   4.859   9.097  0.1920 -0.0828  0.0730
   52CHL1  H23A 6314   5.640   4.827   9.157  1.4886 -1.8102  1.1218
   52CHL1  H23B 6315   5.760   4.963   9.119  1.6861 -0.5979  0.3691
   52CHL1   C24 6316   5.677   4.861   8.948 -0.5341  0.6603  0.2341
   52CHL1  H24A 6317   5.657   4.754   8.929 -0.0041  1.0308 -2.6261
   52CHL1  H24B 6318   5.584   4.922   8.954 -0.1923  1.1114  1.1518
   52CHL1   C25 6319   5.778   4.912   8.848  0.2920 -0.1628 -0.0541
   52CHL1   H25 6320   5.869   4.852   8.829 -0.5263 -1.0941 -1.0979
   52CHL1   C26 6321   5.711   4.923   8.712  0.0502  0.1846  0.1608
   52CHL1  H26A 6322   5.623   4.991   8.721  0.9531  1.3200  0.5781
   52CHL1  H26B 6323   5.769   4.988   8.644 -0.9787  3.0812  1.9449
   52CHL1  H26C 6324   5.678   4.822   8.679 -2.6162 -0.0934  3.4392
   52CHL1   C27 6325   5.834   5.058   8.893  0.5338 -0.0160  0.2709
   52CHL1  H27A 6326   5.896   5.095   8.809  0.8797  0.6157  0.8001
   52CHL1  H27B 6327   5.750   5.128   8.917  1.5412  1.2557  0.1391
   52CHL1  H27C 6328   5.908   5.051   8.976 -0.5884 -1.0284  1.2064
   53CHL1    C3 6329   6.668   4.287  10.020 -0.3758  0.0554  0.0675
   53CHL1    H3 6330   6.568   4.250  10.053  0.7538 -2.5054  0.6953
   53CHL1    O3 6331   6.737   4.334  10.138 -0.3070 -0.0242 -0.1995
   53CHL1   H3' 6332   6.825   4.359  10.110  0.0400 -0.9940  0.0238
   53CHL1    C4 6333   6.740   4.164   9.954  0.8230 -0.0948  0.0984
   53CHL1   H4A 6334   6.851   4.175   9.946  0.7999 -1.9775 -3.8291
   53CHL1   H4B 6335   6.736   4.082  10.028  1.2737 -0.3853 -0.1933
   53CHL1    C5 6336   6.680   4.123   9.820  0.0099  0.7047 -0.6198
   53CHL1    C6 6337   6.624   4.005   9.797  0.2044 -0.2629 -0.0495
   53CHL1    H6 6338   6.635   3.926   9.872  2.5963 -1.1483 -1.2603
   53CHL1    C7 6339   6.566   3.960   9.666 -0.2019 -0.0162  0.1746
   53CHL1   H7A 6340   6.594   3.855   9.642 -0.1393  0.3998 -1.6093
   53CHL1   H7B 6341   6.455   3.971   9.667 -0.4477 -2.0318 -1.0787
   53CHL1    C8 6342   6.614   4.054   9.549  0.3154 -0.0267 -0.0331
   53CHL1    H8 6343   6.721   4.034   9.529  0.7278  1.7231  0.3283
   53CHL1   C14 6344   6.538   4.032   9.420  0.2405 -0.1382 -0.0259
   53CHL1   H14 6345   6.430   4.041   9.446  0.3757  0.9703  0.1905
   53CHL1   C15 6346   6.548   3.887   9.366 -0.2346  0.4295  0.6110
   53CHL1  H15A 6347   6.654   3.855   9.379 -0.9168 -1.6439  1.3120
   53CHL1  H15B 6348   6.491   3.813   9.426 -0.2972  0.6200  0.7869
   53CHL1   C16 6349   6.509   3.903   9.218 -0.3458 -0.5639 -0.4757
   53CHL1  H16A 6350   6.599   3.880   9.157 -0.5527  0.2724 -1.1110
   53CHL1  H16B 6351   6.428   3.833   9.191 -0.8976 -0.2136  0.2712
   53CHL1   C17 6352   6.476   4.049   9.198  0.0358  0.1267  0.1044
   53CHL1   H17 6353   6.372   4.065   9.232  0.1092  1.1780 -0.1443
   53CHL1   C13 6354   6.567   4.122   9.301 -0.6645  0.2083 -0.0580
   53CHL1   C18 6355   6.714   4.107   9.261 -0.5391 -0.3676  0.2869
   53CHL1  H18A 6356   6.741   4.188   9.190  0.5488 -2.6592 -2.0015
   53CHL1  H18B 6357   6.782   4.112   9.349  0.4118 -0.8422 -0.4073
   53CHL1  H18C 6358   6.743   4.021   9.198 -0.7326 -0.7188  0.6755
   53CHL1   C12 6359   6.537   4.266   9.345 -0.3051 -0.3014  0.2038
   53CHL1  H12A 6360   6.548   4.341   9.264 -1.2074 -0.1308  0.2364
   53CHL1  H12B 6361   6.431   4.264   9.378 -0.3857  0.3042 -0.0115
   53CHL1   C11 6362   6.619   4.301   9.469  0.2781  0.4040  0.1288
   53CHL1  H11A 6363   6.723   4.294   9.430 -0.2330  0.5741 -1.3015
   53CHL1  H11B 6364   6.579   4.399   9.501 -0.5133 -0.1559  0.9018
   53CHL1    C9 6365   6.594   4.198   9.587  0.0509 -0.1496 -0.2022
   53CHL1    H9 6366   6.487   4.205   9.617 -0.5405 -0.1747 -2.2587
   53CHL1   C10 6367   6.671   4.236   9.717  0.2556  0.5974  0.4202
   53CHL1   C19 6368   6.807   4.294   9.672  0.5872  0.5918 -0.1887
   53CHL1  H19A 6369   6.808   4.384   9.606 -0.0492 -1.2959 -2.8756
   53CHL1  H19B 6370   6.874   4.313   9.758  1.0011 -0.5958 -0.2445
   53CHL1  H19C 6371   6.854   4.215   9.609  0.0221 -1.1842  1.5871
   53CHL1    C1 6372   6.598   4.347   9.797 -0.4758 -0.2082  0.7240
   53CHL1   H1A 6373   6.570   4.424   9.721 -0.1945  0.4982  1.3299
   53CHL1   H1B 6374   6.499   4.310   9.830 -1.7676  2.0547 -0.4543
   53CHL1    C2 6375   6.659   4.404   9.925 -0.0614 -0.4366 -0.3346
   53CHL1   H2A 6376   6.595   4.487   9.961  1.8391  0.7335  0.4443
   53CHL1   H2B 6377   6.758   4.453   9.914 -0.9498  1.4927 -0.0371
   53CHL1   C20 6378   6.480   4.096   9.053  0.2896  0.1284  0.5876
   53CHL1   H20 6379   6.585   4.098   9.020 -0.4422  3.7072 -1.7897
   53CHL1   C21 6380   6.434   4.244   9.041 -0.3012 -0.3014 -0.5864
   53CHL1  H21A 6381   6.419   4.266   8.933 -1.2064  3.3805  0.2264
   53CHL1  H21B 6382   6.513   4.318   9.066 -0.1372  0.6430 -3.7196
   53CHL1  H21C 6383   6.339   4.266   9.094  0.4763  1.7247  0.0289
   53CHL1   C22 6384   6.391   4.005   8.962 -0.1096  0.7526  0.4985
   53CHL1  H22A 6385   6.423   4.027   8.858 -0.9805  1.2837  0.3386
   53CHL1  H22B 6386   6.407   3.899   8.991 -0.8464  0.6051  0.3815
   53CHL1   C23 6387   6.247   4.019   8.972 -0.7398  0.5850  0.2097
   53CHL1  H23A 6388   6.212   3.979   9.069  0.6828 -0.5433  0.2734
   53CHL1  H23B 6389   6.220   4.127   8.966 -1.1403  0.4960  0.4206
   53CHL1   C24 6390   6.167   3.944   8.858 -0.6896  0.7391  0.2030
   53CHL1  H24A 6391   6.214   3.991   8.770 -1.6836  2.3248  0.5026
   53CHL1  H24B 6392   6.187   3.834   8.854 -0.7176  0.7143  0.7285
   53CHL1   C25 6393   6.016   3.968   8.853 -1.0335  0.2339  0.2528
   53CHL1   H25 6394   5.990   4.069   8.893  3.7113  2.4911 -2.0007
   53CHL1   C26 6395   5.960   3.954   8.708  0.1407 -0.1004 -0.4593
   53CHL1  H26A 6396   5.999   3.866   8.654  1.1451 -0.7645  1.3043
   53CHL1  H26B 6397   5.849   3.947   8.712  0.2539 -1.1323  2.3568
   53CHL1  H26C 6398   5.977   4.048   8.650  0.9685  0.8878  1.3379
   53CHL1   C27 6399   5.944   3.864   8.937  0.9409 -0.2826  0.1317
   53CHL1  H27A 6400   5.985   3.845   9.039 -1.4870 -2.0323  0.8409
   53CHL1  H27B 6401   5.840   3.890   8.965  0.8825  0.6963 -0.9825
   53CHL1  H27C 6402   5.946   3.760   8.898  1.2324  0.4365 -1.8399
   54CHL1    C3 6403   6.533   5.578  10.074  0.3609  0.3427 -0.2605
   54CHL1    H3 6404   6.430   5.615  10.053 -0.2000  0.2518  2.1661
   54CHL1    O3 6405   6.566   5.595  10.213 -0.3437 -0.1000  0.5304
   54CHL1   H3' 6406   6.565   5.690  10.227  0.4913 -0.2646  1.7194
   54CHL1    C4 6407   6.554   5.428  10.041 -1.1253  0.0599 -0.4044
   54CHL1   H4A 6408   6.661   5.410  10.063 -0.4071  2.6389 -1.6104
   54CHL1   H4B 6409   6.495   5.375  10.119  1.8329  0.1642  1.9920
   54CHL1    C5 6410   6.529   5.395   9.895  0.6618  1.2716  0.5547
   54CHL1    C6 6411   6.456   5.290   9.865 -0.4209 -1.2745 -0.7234
   54CHL1    H6 6412   6.415   5.236   9.952 -0.9567 -1.0371 -0.8251
   54CHL1    C7 6413   6.428   5.237   9.728  0.5213 -0.3012 -0.0971
   54CHL1   H7A 6414   6.450   5.129   9.721  1.4092  0.0388 -3.3179
   54CHL1   H7B 6415   6.320   5.244   9.703  0.7902  0.8672 -0.9711
   54CHL1    C8 6416   6.511   5.306   9.616  0.0219  0.0607  0.2478
   54CHL1    H8 6417   6.612   5.261   9.615 -0.8235 -1.8947 -0.7615
   54CHL1   C14 6418   6.450   5.290   9.472  0.0465  0.3936 -0.2530
   54CHL1   H14 6419   6.357   5.350   9.477 -0.1989 -0.0517  0.6126
   54CHL1   C15 6420   6.408   5.149   9.421  0.4760  0.1929  0.6321
   54CHL1  H15A 6421   6.479   5.073   9.460 -0.1530 -0.3716  0.6898
   54CHL1  H15B 6422   6.313   5.141   9.477  1.5007  2.6371  2.8148
   54CHL1   C16 6423   6.416   5.163   9.269  0.1960 -0.1585 -0.0100
   54CHL1  H16A 6424   6.505   5.099   9.247 -0.1663 -0.8940  0.6058
   54CHL1  H16B 6425   6.326   5.133   9.213 -0.6155  0.9244  0.6932
   54CHL1   C17 6426   6.459   5.311   9.240  0.8425 -0.4831  0.3358
   54CHL1   H17 6427   6.365   5.369   9.242  2.1379  1.7499 -0.6744
   54CHL1   C13 6428   6.534   5.351   9.364 -0.4106 -0.5554 -0.6819
   54CHL1   C18 6429   6.668   5.283   9.360 -0.2313  0.2981  0.5085
   54CHL1  H18A 6430   6.729   5.319   9.274 -0.6540 -2.3224 -0.9412
   54CHL1  H18B 6431   6.724   5.314   9.451  0.7848 -0.8770  0.2997
   54CHL1  H18C 6432   6.653   5.173   9.364 -2.0141  0.5432  0.6267
   54CHL1   C12 6433   6.552   5.506   9.392 -0.3031 -0.3023 -0.7065
   54CHL1  H12A 6434   6.631   5.541   9.323  0.4400  0.0532  0.3153
   54CHL1  H12B 6435   6.452   5.555   9.392  0.1513  0.6561  1.1737
   54CHL1   C11 6436   6.606   5.526   9.530  0.4840 -0.0389  0.4298
   54CHL1  H11A 6437   6.715   5.506   9.535  0.2478 -1.1067  1.8538
   54CHL1  H11B 6438   6.591   5.634   9.552 -1.2382  0.2627 -1.9524
   54CHL1    C9 6439   6.532   5.455   9.649  0.9604 -0.2629  0.0382
   54CHL1    H9 6440   6.433   5.503   9.665  1.8006  0.8032  2.3382
   54CHL1   C10 6441   6.603   5.479   9.789 -0.2991 -0.6434 -0.2817
   54CHL1   C19 6442   6.753   5.433   9.791 -1.4110 -0.3637  0.0632
   54CHL1  H19A 6443   6.797   5.404   9.889  0.4215 -1.1426 -0.9648
   54CHL1  H19B 6444   6.767   5.338   9.734  1.3341  0.0221  0.0058
   54CHL1  H19C 6445   6.816   5.514   9.747 -1.9856 -0.5058 -1.0448
   54CHL1    C1 6446   6.610   5.630   9.832  0.2192  0.9197 -0.2300
   54CHL1   H1A 6447   6.691   5.679   9.774  2.1280 -1.9147 -0.0199
   54CHL1   H1B 6448   6.516   5.675   9.792 -0.6054  0.1863  0.8643
   54CHL1    C2 6449   6.626   5.659   9.984 -0.4482 -0.6072  0.2761
   54CHL1   H2A 6450   6.619   5.769   9.999  0.3342 -0.5364  0.1785
   54CHL1   H2B 6451   6.732   5.632  10.003  0.7200 -0.0628 -4.7309
   54CHL1   C20 6452   6.520   5.336   9.094  0.3992  0.8333  0.5895
   54CHL1   H20 6453   6.620   5.288   9.089  0.9420  2.0777 -1.0161
   54CHL1   C21 6454   6.538   5.490   9.073 -0.4543 -0.9855 -0.4341
   54CHL1  H21A 6455   6.443   5.547   9.081  0.4928  0.3606  1.8861
   54CHL1  H21B 6456   6.576   5.516   8.972  2.8894  0.5672  1.1496
   54CHL1  H21C 6457   6.613   5.540   9.137 -0.5962  1.2297 -1.9566
   54CHL1   C22 6458   6.435   5.284   8.983 -0.4238 -0.3256 -0.1539
   54CHL1  H22A 6459   6.389   5.185   9.006  0.1987 -0.5989 -0.0606
   54CHL1  H22B 6460   6.346   5.345   8.959  0.6084 -0.0339 -3.4182
   54CHL1   C23 6461   6.517   5.270   8.849 -0.5592 -0.2491 -0.1096
   54CHL1  H23A 6462   6.454   5.316   8.770 -1.8057 -1.3058  0.2591
   54CHL1  H23B 6463   6.609   5.332   8.841  0.0626 -1.3380 -1.6107
   54CHL1   C24 6464   6.541   5.126   8.809  0.0612  0.1108 -0.2020
   54CHL1  H24A 6465   6.582   5.053   8.882  1.6235  0.5131 -0.6481
   54CHL1  H24B 6466   6.441   5.084   8.784  0.8889 -0.5963 -2.4324
   54CHL1   C25 6467   6.630   5.111   8.683 -0.1599 -0.5755 -0.2992
   54CHL1   H25 6468   6.593   5.176   8.601  2.6272 -0.8233 -1.8076
   54CHL1   C26 6469   6.778   5.152   8.707  0.2099 -0.3858  0.6833
   54CHL1  H26A 6470   6.836   5.103   8.626 -0.2788  0.7600 -0.3718
   54CHL1  H26B 6471   6.793   5.261   8.698 -0.4328 -0.5012 -2.4069
   54CHL1  H26C 6472   6.810   5.110   8.805  0.3753 -2.0721 -0.0724
   54CHL1   C27 6473   6.614   4.973   8.623  0.6261  0.3212  0.5509
   54CHL1  H27A 6474   6.652   4.894   8.692  0.8695 -0.4920 -0.4914
   54CHL1  H27B 6475   6.507   4.961   8.599  0.7142  1.7312 -0.6344
   54CHL1  H27C 6476   6.680   4.959   8.535  1.7336  2.1029  1.0635
   55CHL1    C3 6477   0.159   2.957  10.030  0.5595 -0.5268 -0.3248
   55CHL1    H3 6478   0.078   2.883  10.013  0.8556 -0.7421 -0.8164
   55CHL1    O3 6479   0.184   2.963  10.170 -0.2196 -0.3022  0.6095
   55CHL1   H3' 6480   0.265   3.013  10.181 -0.3093 -0.2443  1.0023
   55CHL1    C4 6481   0.284   2.915   9.950  0.1096 -0.1605  0.5820
   55CHL1   H4A 6482   0.365   2.981   9.988  0.1997  0.2864 -0.3752
   55CHL1   H4B 6483   0.316   2.814   9.986  3.0295 -0.3347 -2.2261
   55CHL1    C5 6484   0.268   2.933   9.801  0.5543 -0.1736 -0.4134
   55CHL1    C6 6485   0.298   2.836   9.713 -0.0109 -0.6442 -0.7395
   55CHL1    H6 6486   0.327   2.734   9.744 -0.1652 -0.3515  0.3892
   55CHL1    C7 6487   0.296   2.852   9.562  0.4197  0.5438  0.7590
   55CHL1   H7A 6488   0.371   2.787   9.512 -0.0565  2.1044 -2.0949
   55CHL1   H7B 6489   0.203   2.814   9.514  1.7712  0.8689 -2.2106
   55CHL1    C8 6490   0.304   2.997   9.518  0.3299  0.1140  0.0270
   55CHL1    H8 6491   0.409   3.032   9.531 -0.7256  2.3464  2.9694
   55CHL1   C14 6492   0.265   3.003   9.372 -0.0311  0.1140 -0.1639
   55CHL1   H14 6493   0.167   2.952   9.361  1.2880 -2.3036 -0.9303
   55CHL1   C15 6494   0.351   2.926   9.270  0.7101 -0.3412 -0.0253
   55CHL1  H15A 6495   0.457   2.956   9.284  1.2565 -0.5162 -3.2902
   55CHL1  H15B 6496   0.329   2.818   9.284  2.6810 -0.7890 -0.1634
   55CHL1   C16 6497   0.294   2.984   9.137  0.5016  0.4557  0.0857
   55CHL1  H16A 6498   0.376   3.009   9.067  1.1087  0.0791  0.6524
   55CHL1  H16B 6499   0.229   2.904   9.096  3.4141 -2.7487  1.3513
   55CHL1   C17 6500   0.217   3.113   9.168  0.3064  0.8776 -0.2982
   55CHL1   H17 6501   0.113   3.081   9.186  0.9391 -0.0638  1.7776
   55CHL1   C13 6502   0.258   3.147   9.314 -0.9346  0.3430 -0.9154
   55CHL1   C18 6503   0.400   3.206   9.312 -0.2341 -0.0227 -0.4382
   55CHL1  H18A 6504   0.479   3.164   9.246  0.9702 -0.2278  1.1032
   55CHL1  H18B 6505   0.387   3.315   9.292  1.2193  0.4842  1.2962
   55CHL1  H18C 6506   0.438   3.198   9.416 -2.2617 -0.1870  0.3006
   55CHL1   C12 6507   0.166   3.232   9.399  0.6472  0.2951  0.1039
   55CHL1  H12A 6508   0.188   3.339   9.379  3.5658 -0.0238  1.3527
   55CHL1  H12B 6509   0.062   3.199   9.379 -0.0109  0.9905  2.2499
   55CHL1   C11 6510   0.198   3.227   9.548 -0.4732  0.7185 -0.4949
   55CHL1  H11A 6511   0.292   3.284   9.565  0.0213 -0.1089 -0.4350
   55CHL1  H11B 6512   0.118   3.282   9.602 -1.8505  0.1625 -1.9416
   55CHL1    C9 6513   0.215   3.086   9.607 -1.2607  0.6339  0.0640
   55CHL1    H9 6514   0.112   3.050   9.589 -1.9101  3.4966 -2.2611
   55CHL1   C10 6515   0.235   3.075   9.761  0.8782 -0.4170  0.0933
   55CHL1   C19 6516   0.343   3.177   9.802 -0.2925 -0.3284  0.9621
   55CHL1  H19A 6517   0.313   3.284   9.803  1.7158  0.2748  0.5102
   55CHL1  H19B 6518   0.398   3.147   9.894  1.7589 -1.4712 -0.5870
   55CHL1  H19C 6519   0.416   3.173   9.718 -0.2423 -0.7509  1.0264
   55CHL1    C1 6520   0.099   3.113   9.833 -0.2820 -0.0213  0.6662
   55CHL1   H1A 6521   0.084   3.220   9.807 -0.3002 -0.7817 -2.7058
   55CHL1   H1B 6522   0.008   3.061   9.799  0.7441 -0.6079 -1.2627
   55CHL1    C2 6523   0.101   3.094   9.987 -0.0087 -0.1687 -0.2878
   55CHL1   H2A 6524  -0.001   3.103  10.031 -0.4969 -0.7531 -1.2934
   55CHL1   H2B 6525   0.142   3.192  10.020 -0.1588 -0.6018  1.2513
   55CHL1   C20 6526   0.224   3.228   9.068  0.1068 -0.4181  0.2799
   55CHL1   H20 6527   0.326   3.271   9.078 -1.6487  3.8933  1.0612
   55CHL1   C21 6528   0.127   3.346   9.109  0.0347 -0.2461  0.2467
   55CHL1  H21A 6529   0.022   3.312   9.127  0.8267 -1.6324  2.3844
   55CHL1  H21B 6530   0.131   3.424   9.030  0.9222 -0.6475 -0.1111
   55CHL1  H21C 6531   0.167   3.398   9.198  1.4602 -0.7871 -0.0632
   55CHL1   C22 6532   0.211   3.199   8.911  0.0025  0.0816 -0.1916
   55CHL1  H22A 6533   0.251   3.296   8.875 -2.2169  1.4130  0.8539
   55CHL1  H22B 6534   0.284   3.122   8.876 -2.1048 -0.7302 -3.0127
   55CHL1   C23 6535   0.066   3.185   8.868 -0.4163 -0.3335  0.2956
   55CHL1  H23A 6536   0.015   3.100   8.919 -4.0543  1.2211 -0.5363
   55CHL1  H23B 6537   0.015   3.284   8.873 -0.0250 -0.0677 -0.9229
   55CHL1   C24 6538   0.058   3.156   8.715  0.3478  0.1732  0.2896
   55CHL1  H24A 6539   0.124   3.234   8.671  3.3488 -1.8630  1.0310
   55CHL1  H24B 6540   0.111   3.062   8.690 -0.3996 -0.0367 -0.5597
   55CHL1   C25 6541  -0.087   3.154   8.660  0.1367 -0.2502 -0.1473
   55CHL1   H25 6542  -0.156   3.237   8.685  0.2939 -0.4633  1.0022
   55CHL1   C26 6543  -0.089   3.161   8.501  0.3209 -0.2431 -0.1526
   55CHL1  H26A 6544  -0.039   3.080   8.444  0.9423  0.3430 -0.4528
   55CHL1  H26B 6545  -0.197   3.166   8.473 -0.9005  0.3441  4.2658
   55CHL1  H26C 6546  -0.046   3.258   8.468 -1.0825  0.8133  1.0500
   55CHL1   C27 6547  -0.142   3.018   8.711 -0.0328  0.4313 -0.3086
   55CHL1  H27A 6548  -0.235   3.001   8.653  0.9993  0.6992 -2.0511
   55CHL1  H27B 6549  -0.070   2.935   8.698 -0.7924 -0.4807  1.1213
   55CHL1  H27C 6550  -0.161   3.024   8.821 -0.5970  0.9753 -0.4317
   56CHL1    C3 6551   4.972   1.257   9.896 -0.2703  0.6746  0.1451
   56CHL1    H3 6552   4.897   1.331   9.861 -1.5004 -0.5122  0.2363
   56CHL1    O3 6553   4.998   1.282  10.030 -0.1619  0.5132  0.0677
   56CHL1   H3' 6554   5.024   1.194  10.058 -1.1074 -0.1677 -1.1369
   56CHL1    C4 6555   4.918   1.116   9.863 -0.3765 -0.5878 -0.2696
   56CHL1   H4A 6556   4.991   1.040   9.899 -0.4811 -0.8291 -0.5668
   56CHL1   H4B 6557   4.823   1.094   9.916 -0.5305  1.0223  0.1701
   56CHL1    C5 6558   4.897   1.089   9.714  0.1732 -0.2561 -0.3434
   56CHL1    C6 6559   4.774   1.069   9.665  0.9897  0.0160  0.6814
   56CHL1    H6 6560   4.693   1.048   9.736 -1.3808 -1.8896 -2.4232
   56CHL1    C7 6561   4.744   1.047   9.513  0.4487  0.2564 -0.8349
   56CHL1   H7A 6562   4.675   0.962   9.493 -0.0855  0.4178  0.2602
   56CHL1   H7B 6563   4.691   1.137   9.477  0.6562  0.7576  0.0728
   56CHL1    C8 6564   4.878   1.025   9.431 -0.5277 -0.1124  0.8026
   56CHL1    H8 6565   4.918   0.922   9.447  0.5795 -0.0659 -1.3856
   56CHL1   C14 6566   4.849   1.052   9.283  0.4913  0.6585 -0.0060
   56CHL1   H14 6567   4.801   1.152   9.279 -1.0271 -0.0742 -0.5458
   56CHL1   C15 6568   4.743   0.966   9.212 -0.1439 -0.5127 -0.0724
   56CHL1  H15A 6569   4.754   0.862   9.249  1.1106  0.0555  1.1814
   56CHL1  H15B 6570   4.639   0.996   9.237  0.3104 -0.9829  2.4971
   56CHL1   C16 6571   4.775   0.983   9.063  0.1702  0.7288  0.1106
   56CHL1  H16A 6572   4.803   0.877   9.042  2.6189  1.2550  0.5897
   56CHL1  H16B 6573   4.691   1.011   8.995  0.7838 -0.0500 -0.9781
   56CHL1   C17 6574   4.909   1.057   9.047 -0.5684 -0.0457 -0.1446
   56CHL1   H17 6575   4.884   1.163   9.025  0.9346 -0.4286 -4.1051
   56CHL1   C13 6576   4.971   1.052   9.192  0.2915  0.0750  0.1034
   56CHL1   C18 6577   5.048   0.917   9.201  0.0402 -1.2029  0.3555
   56CHL1  H18A 6578   4.982   0.836   9.166  1.6220 -2.1792 -0.4261
   56CHL1  H18B 6579   5.145   0.923   9.146  0.8045 -2.3977  1.5200
   56CHL1  H18C 6580   5.071   0.902   9.309  3.4678 -1.6588 -0.3509
   56CHL1   C12 6581   5.056   1.173   9.238 -0.1061 -0.2621  0.1041
   56CHL1  H12A 6582   5.144   1.175   9.169  0.4311 -0.1661  0.7880
   56CHL1  H12B 6583   4.993   1.263   9.224 -0.3729 -0.5681 -0.7175
   56CHL1   C11 6584   5.095   1.170   9.382  0.1033 -0.3836 -1.0824
   56CHL1  H11A 6585   5.180   1.099   9.395 -0.6788 -1.2791 -0.7679
   56CHL1  H11B 6586   5.132   1.270   9.412  1.7343 -1.1424 -0.4937
   56CHL1    C9 6587   4.973   1.134   9.473 -0.6066 -0.1413 -0.0001
   56CHL1    H9 6588   4.907   1.222   9.466 -0.6253 -0.3087 -2.0701
   56CHL1   C10 6589   5.022   1.120   9.620  0.2198  0.2977  0.5497
   56CHL1   C19 6590   5.130   1.003   9.628 -0.4569 -0.1027 -0.6736
   56CHL1  H19A 6591   5.080   0.910   9.592 -0.4047  0.0139 -1.0476
   56CHL1  H19B 6592   5.222   1.018   9.567  0.5761 -1.8173  0.4296
   56CHL1  H19C 6593   5.174   0.994   9.729 -0.7438  0.0547 -0.5374
   56CHL1    C1 6594   5.090   1.250   9.666  0.5152  0.9530  0.6555
   56CHL1   H1A 6595   5.186   1.259   9.611 -0.7624  0.0324 -1.8250
   56CHL1   H1B 6596   5.022   1.333   9.636  1.5372  0.8660 -2.0967
   56CHL1    C2 6597   5.106   1.264   9.824 -0.1823  0.7332  0.4147
   56CHL1   H2A 6598   5.148   1.366   9.835 -2.3793  1.7682 -0.5055
   56CHL1   H2B 6599   5.175   1.186   9.862  0.3668  0.5484 -0.9347
   56CHL1   C20 6600   4.988   1.010   8.927  0.3985 -0.1916  0.3300
   56CHL1   H20 6601   5.011   0.902   8.938 -2.6584 -0.7626  1.4285
   56CHL1   C21 6602   5.123   1.098   8.919  0.7837  0.4565  0.4274
   56CHL1  H21A 6603   5.178   1.070   8.826 -0.7317 -2.5875  0.3861
   56CHL1  H21B 6604   5.190   1.063   9.000 -0.1340  0.7786  1.3347
   56CHL1  H21C 6605   5.110   1.208   8.928  0.3397  0.4851 -0.5013
   56CHL1   C22 6606   4.907   1.012   8.793 -0.0652  0.3559 -0.3907
   56CHL1  H22A 6607   4.968   0.963   8.714 -1.0847  0.2333 -1.1099
   56CHL1  H22B 6608   4.814   0.956   8.816  0.1802  0.2469  0.3756
   56CHL1   C23 6609   4.878   1.154   8.735 -0.6803 -0.5957  0.7350
   56CHL1  H23A 6610   4.807   1.199   8.808 -0.0440 -0.7500  1.4533
   56CHL1  H23B 6611   4.968   1.217   8.723 -1.4815  0.4268  0.0427
   56CHL1   C24 6612   4.793   1.124   8.617  0.0758 -0.8702 -0.5138
   56CHL1  H24A 6613   4.852   1.075   8.536 -1.7227  0.6283 -2.8028
   56CHL1  H24B 6614   4.715   1.053   8.652 -2.3616  1.2241 -1.6077
   56CHL1   C25 6615   4.712   1.244   8.560 -0.6991 -0.3085  0.5685
   56CHL1   H25 6616   4.773   1.334   8.583 -1.6548  0.0754  1.6147
   56CHL1   C26 6617   4.674   1.216   8.415  0.9159 -0.5856 -0.2765
   56CHL1  H26A 6618   4.628   1.115   8.403  1.0418 -0.7177  0.3569
   56CHL1  H26B 6619   4.611   1.299   8.376 -0.1313 -1.2535 -0.0354
   56CHL1  H26C 6620   4.768   1.214   8.356  0.8837  0.7597 -0.4054
   56CHL1   C27 6621   4.581   1.259   8.645 -0.6529  0.0873 -0.1358
   56CHL1  H27A 6622   4.536   1.159   8.626 -1.7999  0.4421  0.6946
   56CHL1  H27B 6623   4.591   1.276   8.754  0.2158  1.7067 -0.4554
   56CHL1  H27C 6624   4.507   1.333   8.609 -2.1167 -2.1218 -1.8186
   57CHL1    C3 6625   0.487   4.031  10.208  0.8604 -0.5124  0.7191
   57CHL1    H3 6626   0.592   4.001  10.230  0.2105 -1.8186  2.2017
   57CHL1    O3 6627   0.416   4.019  10.329 -0.2124  0.1023  0.0661
   57CHL1   H3' 6628   0.451   3.942  10.374 -0.8506  1.3140  2.7212
   57CHL1    C4 6629   0.475   4.172  10.158 -0.3574  0.1841  0.7123
   57CHL1   H4A 6630   0.369   4.203  10.143 -0.5691 -0.7206  0.3348
   57CHL1   H4B 6631   0.512   4.238  10.239  0.1284  1.8213 -0.7894
   57CHL1    C5 6632   0.548   4.189  10.028 -1.2068 -0.6460 -0.3195
   57CHL1    C6 6633   0.654   4.277  10.016 -0.0196 -0.5549  0.5774
   57CHL1    H6 6634   0.694   4.329  10.104 -0.8561 -0.2827  0.7991
   57CHL1    C7 6635   0.711   4.312   9.878 -0.0951 -0.1403  0.1055
   57CHL1   H7A 6636   0.689   4.420   9.859  2.2349  0.2945 -0.3267
   57CHL1   H7B 6637   0.819   4.286   9.873 -0.5021 -1.6761 -0.9116
   57CHL1    C8 6638   0.646   4.239   9.756  0.4890 -0.2440 -0.9080
   57CHL1    H8 6639   0.559   4.302   9.725 -0.1587  0.5072  2.2641
   57CHL1   C14 6640   0.752   4.216   9.644  0.2775  0.5029  0.2759
   57CHL1   H14 6641   0.824   4.141   9.682 -0.3858 -1.1856 -1.7165
   57CHL1   C15 6642   0.832   4.334   9.606  0.1591 -0.3766  0.2513
   57CHL1  H15A 6643   0.766   4.423   9.594 -1.8662 -1.7738  0.7610
   57CHL1  H15B 6644   0.899   4.365   9.689  1.1852 -2.2277  0.1175
   57CHL1   C16 6645   0.899   4.303   9.479 -0.4002  0.2368 -0.0148
   57CHL1  H16A 6646   0.892   4.380   9.400 -2.9923 -1.6526 -1.7143
   57CHL1  H16B 6647   1.009   4.292   9.496 -0.4624 -0.4760 -0.0507
   57CHL1   C17 6648   0.824   4.173   9.432  0.1327 -0.2216  0.2068
   57CHL1   H17 6649   0.895   4.094   9.465 -0.0105  0.2602  1.7132
   57CHL1   C13 6650   0.698   4.160   9.516 -0.3359  0.5553 -0.4596
   57CHL1   C18 6651   0.582   4.240   9.455  0.5550  0.5200 -0.0494
   57CHL1  H18A 6652   0.611   4.345   9.434  1.8693 -0.1522 -1.6552
   57CHL1  H18B 6653   0.547   4.191   9.362 -0.6745  2.9553 -0.9030
   57CHL1  H18C 6654   0.494   4.223   9.521  0.4201  0.3981 -0.2583
   57CHL1   C12 6655   0.654   4.015   9.553  0.5437  0.1173  0.2227
   57CHL1  H12A 6656   0.604   3.956   9.473  2.8649 -2.4746  0.6212
   57CHL1  H12B 6657   0.737   3.951   9.588  0.9634  0.2341 -0.5327
   57CHL1   C11 6658   0.549   4.015   9.664  0.2665  0.0175 -0.2822
   57CHL1  H11A 6659   0.451   4.046   9.620  0.5594  3.0458  1.0963
   57CHL1  H11B 6660   0.527   3.910   9.694  0.4883  0.1688  0.4170
   57CHL1    C9 6661   0.601   4.098   9.786 -0.1208 -0.3598 -0.3667
   57CHL1    H9 6662   0.693   4.044   9.817  0.6461  0.5612 -0.9747
   57CHL1   C10 6663   0.505   4.105   9.911  0.7422 -0.1248 -0.4239
   57CHL1   C19 6664   0.359   4.143   9.866  0.1207 -0.0261  0.3936
   57CHL1  H19A 6665   0.314   4.059   9.810 -0.8512  1.6963 -1.4749
   57CHL1  H19B 6666   0.290   4.173   9.948 -0.5371  0.8925 -0.4806
   57CHL1  H19C 6667   0.367   4.227   9.793 -1.2812 -2.0064 -2.1222
   57CHL1    C1 6668   0.496   3.953   9.965 -0.3646 -0.7699 -0.5892
   57CHL1   H1A 6669   0.445   3.897   9.883  2.7153  0.1981 -3.2605
   57CHL1   H1B 6670   0.593   3.900   9.967  0.1373  0.1746  0.9337
   57CHL1    C2 6671   0.424   3.934  10.101 -0.3218 -0.1461 -0.1710
   57CHL1   H2A 6672   0.427   3.836  10.153 -0.9368  1.0062  2.0932
   57CHL1   H2B 6673   0.316   3.957  10.086 -0.0403  0.3298 -1.5412
   57CHL1   C20 6674   0.815   4.153   9.285  0.6235  0.8379  0.4438
   57CHL1   H20 6675   0.741   4.215   9.231 -0.3045  1.6699  2.6160
   57CHL1   C21 6676   0.785   4.005   9.262  0.4493  0.1880  0.4055
   57CHL1  H21A 6677   0.851   3.936   9.318  2.0341  0.0918 -1.5300
   57CHL1  H21B 6678   0.798   3.977   9.155  2.6837  1.6841  0.2436
   57CHL1  H21C 6679   0.682   3.970   9.283 -0.1590  1.5019 -0.3405
   57CHL1   C22 6680   0.938   4.198   9.205 -0.0334  0.0702 -0.0220
   57CHL1  H22A 6681   0.925   4.308   9.211  1.2144  0.1956  0.5387
   57CHL1  H22B 6682   1.034   4.179   9.257  0.9892  2.3000 -1.0529
   57CHL1   C23 6683   0.935   4.177   9.054  0.5200  0.0211  0.4804
   57CHL1  H23A 6684   1.032   4.207   9.007 -0.5957 -2.1617 -3.3881
   57CHL1  H23B 6685   0.937   4.069   9.030 -1.4190  0.2046 -0.5886
   57CHL1   C24 6686   0.826   4.241   8.964  0.1880  0.1463  0.2347
   57CHL1  H24A 6687   0.726   4.196   8.981  0.1629  0.4251  0.8194
   57CHL1  H24B 6688   0.811   4.347   8.992 -0.3985  0.3436 -0.8032
   57CHL1   C25 6689   0.850   4.240   8.811 -0.4043  0.2868  0.1182
   57CHL1   H25 6690   0.888   4.141   8.779 -1.1371  0.8545 -2.6588
   57CHL1   C26 6691   0.721   4.269   8.735 -0.4243  0.3716 -0.1553
   57CHL1  H26A 6692   0.637   4.200   8.757 -0.7615  1.1244  0.9643
   57CHL1  H26B 6693   0.680   4.364   8.775 -0.1339  0.3459  0.2106
   57CHL1  H26C 6694   0.738   4.281   8.626  0.5798  1.0633  0.0685
   57CHL1   C27 6695   0.973   4.323   8.767  0.3091  0.4888  0.5996
   57CHL1  H27A 6696   0.948   4.431   8.765 -1.0371  0.1938  1.1961
   57CHL1  H27B 6697   1.058   4.320   8.839 -0.8221  0.0035  1.9404
   57CHL1  H27C 6698   1.001   4.294   8.664 -2.6738 -0.4006  0.0144
   58CHL1    C3 6699   3.513   2.545  10.148 -0.1819  0.3123  0.3884
   58CHL1    H3 6700   3.404   2.567  10.150 -0.5050 -1.1781 -0.5953
   58CHL1    O3 6701   3.590   2.586  10.259  0.1211 -0.2223 -0.2620
   58CHL1   H3' 6702   3.676   2.560  10.226  0.6372 -0.3986  1.1962
   58CHL1    C4 6703   3.536   2.394  10.115  0.1055 -0.2022 -0.1415
   58CHL1   H4A 6704   3.643   2.372  10.138 -0.0672 -1.1992 -0.2798
   58CHL1   H4B 6705   3.485   2.334  10.193 -0.7173 -0.7239 -1.0579
   58CHL1    C5 6706   3.501   2.329   9.985  0.2030 -0.9734 -0.4158
   58CHL1    C6 6707   3.421   2.221   9.976 -0.1093 -0.8026 -0.3550
   58CHL1    H6 6708   3.383   2.170  10.066 -1.2891  2.1372  0.8801
   58CHL1    C7 6709   3.390   2.163   9.840 -0.3483  0.0221  0.0755
   58CHL1   H7A 6710   3.381   2.052   9.845  0.1076 -0.0019  0.3731
   58CHL1   H7B 6711   3.285   2.189   9.813  0.0423  1.1665 -0.3716
   58CHL1    C8 6712   3.491   2.212   9.724  0.7320  0.6104  1.2491
   58CHL1    H8 6713   3.588   2.161   9.741  1.1292  0.9574  0.0859
   58CHL1   C14 6714   3.434   2.169   9.592 -0.3598  1.3722  0.3132
   58CHL1   H14 6715   3.335   2.218   9.576  0.8914  3.6072 -0.6862
   58CHL1   C15 6716   3.410   2.020   9.563  0.0903  0.4757  0.2646
   58CHL1  H15A 6717   3.493   1.960   9.607  1.3135  2.1039  0.2396
   58CHL1  H15B 6718   3.313   1.989   9.606  0.4115 -2.1047 -0.7877
   58CHL1   C16 6719   3.397   2.013   9.412  0.2106  0.8323  0.2549
   58CHL1  H16A 6720   3.474   1.944   9.372  0.6808  1.8640 -0.6508
   58CHL1  H16B 6721   3.294   1.979   9.387  0.7844  0.1464 -1.2861
   58CHL1   C17 6722   3.428   2.150   9.363 -0.4572 -0.4647  0.1082
   58CHL1   H17 6723   3.333   2.208   9.366  1.0954  2.1425  0.5721
   58CHL1   C13 6724   3.515   2.223   9.476 -0.3870  0.4363  1.3104
   58CHL1   C18 6725   3.656   2.144   9.465  0.1768 -0.0141 -0.0829
   58CHL1  H18A 6726   3.652   2.034   9.482  2.7874 -0.1248 -0.0292
   58CHL1  H18B 6727   3.720   2.166   9.378 -1.7238  0.6037 -1.3504
   58CHL1  H18C 6728   3.716   2.188   9.547 -0.2955  0.3768  0.0578
   58CHL1   C12 6729   3.526   2.377   9.469 -0.1992  0.9644  0.1959
   58CHL1  H12A 6730   3.602   2.408   9.395  1.1564 -1.3709  0.5786
   58CHL1  H12B 6731   3.431   2.430   9.444 -0.2841 -0.0680 -1.6701
   58CHL1   C11 6732   3.580   2.424   9.607 -0.0242  0.0374 -0.5403
   58CHL1  H11A 6733   3.688   2.400   9.612 -0.3288 -1.6389 -1.5159
   58CHL1  H11B 6734   3.566   2.535   9.606 -1.2425 -0.0968  0.3450
   58CHL1    C9 6735   3.505   2.360   9.732 -0.9115  0.0336  1.0587
   58CHL1    H9 6736   3.399   2.390   9.716 -0.6539 -0.1261 -1.0684
   58CHL1   C10 6737   3.562   2.404   9.869 -0.5104 -1.0230  0.2048
   58CHL1   C19 6738   3.715   2.391   9.862  0.4516 -0.0679 -0.2611
   58CHL1  H19A 6739   3.740   2.299   9.806 -1.7356 -0.0083 -1.4073
   58CHL1  H19B 6740   3.754   2.479   9.806 -1.4467  1.2782  0.4503
   58CHL1  H19C 6741   3.769   2.397   9.959 -1.2493  3.2195  0.5824
   58CHL1    C1 6742   3.536   2.554   9.891 -0.3110  0.3341 -0.9329
   58CHL1   H1A 6743   3.593   2.610   9.813  0.6371  3.1488  1.7053
   58CHL1   H1B 6744   3.432   2.584   9.867 -0.1262  3.0426  1.4825
   58CHL1    C2 6745   3.573   2.610  10.024 -0.1983  0.1167 -0.2555
   58CHL1   H2A 6746   3.545   2.717  10.016  2.4445  0.8343 -0.3156
   58CHL1   H2B 6747   3.684   2.615  10.031 -0.1256 -1.4818 -0.0451
   58CHL1   C20 6748   3.474   2.149   9.211  0.0064  1.0907 -0.2535
   58CHL1   H20 6749   3.573   2.097   9.211  0.2396  1.5239 -0.8946
   58CHL1   C21 6750   3.486   2.296   9.156 -0.4839  0.0962 -0.9337
   58CHL1  H21A 6751   3.400   2.357   9.190  1.7706  0.7629  4.1984
   58CHL1  H21B 6752   3.469   2.292   9.047  1.9594 -2.5731 -1.2801
   58CHL1  H21C 6753   3.580   2.347   9.188  0.5487 -1.8046 -0.8163
   58CHL1   C22 6754   3.384   2.070   9.121  0.3407 -0.1823  0.1118
   58CHL1  H22A 6755   3.365   1.972   9.170  1.6939  0.4740  1.9891
   58CHL1  H22B 6756   3.289   2.127   9.109  0.2864 -0.5656 -1.4619
   58CHL1   C23 6757   3.439   2.047   8.979 -0.2774  0.4601  0.5522
   58CHL1  H23A 6758   3.455   2.144   8.926  0.2530 -1.6953 -3.4473
   58CHL1  H23B 6759   3.541   2.005   8.992  0.0476  0.6848 -1.1247
   58CHL1   C24 6760   3.357   1.940   8.891 -0.1967 -0.4393 -0.0373
   58CHL1  H24A 6761   3.335   1.856   8.960  1.3961 -1.1759 -0.4077
   58CHL1  H24B 6762   3.272   1.996   8.847  1.0770  3.6340  2.4220
   58CHL1   C25 6763   3.444   1.881   8.780 -0.3226 -0.7968  0.6452
   58CHL1   H25 6764   3.549   1.857   8.807  0.0174 -2.5857 -2.0075
   58CHL1   C26 6765   3.377   1.746   8.731 -0.3480 -0.1117 -0.3358
   58CHL1  H26A 6766   3.266   1.752   8.724 -0.4264 -0.8923  0.1956
   58CHL1  H26B 6767   3.428   1.717   8.637 -0.9912  1.0022 -1.0380
   58CHL1  H26C 6768   3.408   1.672   8.808 -1.1256  0.5600  0.6416
   58CHL1   C27 6769   3.462   1.973   8.657 -0.1513  0.3462 -0.5322
   58CHL1  H27A 6770   3.520   2.064   8.683  0.1037  0.0758 -0.1435
   58CHL1  H27B 6771   3.524   1.932   8.575  2.2425  0.9203  0.9396
   58CHL1  H27C 6772   3.363   1.996   8.612  0.6143  1.4282 -1.6715
   59CHL1    C3 6773   2.299   1.856  10.176  0.4508  0.8021  0.0516
   59CHL1    H3 6774   2.225   1.928  10.136  0.3903 -0.3835 -2.0172
   59CHL1    O3 6775   2.290   1.828  10.316  0.4023  0.4665  0.0078
   59CHL1   H3' 6776   2.196   1.840  10.332  0.0411 -0.4748 -1.3261
   59CHL1    C4 6777   2.303   1.721  10.100  0.1688 -0.0676 -0.5627
   59CHL1   H4A 6778   2.382   1.664  10.154  0.3315 -0.0558 -0.7881
   59CHL1   H4B 6779   2.208   1.665  10.115  1.0460 -1.3361  0.3056
   59CHL1    C5 6780   2.325   1.738   9.951 -0.5287  0.3574 -0.5285
   59CHL1    C6 6781   2.237   1.684   9.866  0.5244 -0.2422  0.0840
   59CHL1    H6 6782   2.147   1.624   9.886 -0.8088 -0.0976 -4.7388
   59CHL1    C7 6783   2.259   1.698   9.720 -0.0448 -0.2070 -0.5242
   59CHL1   H7A 6784   2.237   1.597   9.678  0.8464 -1.9006  2.9716
   59CHL1   H7B 6785   2.183   1.766   9.675  0.5934  0.7666 -0.1447
   59CHL1    C8 6786   2.393   1.759   9.669 -0.0156 -0.0920 -0.0584
   59CHL1    H8 6787   2.469   1.679   9.679 -1.4385 -1.5066 -0.3551
   59CHL1   C14 6788   2.378   1.810   9.529  0.1249 -1.0772 -0.0484
   59CHL1   H14 6789   2.293   1.881   9.535  1.9494  1.0712  0.5970
   59CHL1   C15 6790   2.338   1.702   9.423  0.0979  0.3065 -0.0203
   59CHL1  H15A 6791   2.398   1.608   9.429  0.3322  0.5509  1.7695
   59CHL1  H15B 6792   2.228   1.682   9.420  0.3761 -1.4323  0.8878
   59CHL1   C16 6793   2.372   1.775   9.291 -0.2548  0.0985  0.1295
   59CHL1  H16A 6794   2.454   1.720   9.240 -0.2060 -0.0999  0.4186
   59CHL1  H16B 6795   2.289   1.802   9.222  0.6905  1.3784 -0.5146
   59CHL1   C17 6796   2.442   1.917   9.332  0.1550  0.8991 -0.0210
   59CHL1   H17 6797   2.361   1.992   9.339 -2.3193 -1.6569 -0.3283
   59CHL1   C13 6798   2.494   1.889   9.475  0.3320 -0.0878 -0.0795
   59CHL1   C18 6799   2.614   1.795   9.465 -0.4007  0.1324 -0.2999
   59CHL1  H18A 6800   2.640   1.744   9.560  0.2790  1.1642  0.0761
   59CHL1  H18B 6801   2.587   1.711   9.397 -0.1684  0.9191 -1.3851
   59CHL1  H18C 6802   2.692   1.859   9.420 -2.4667  1.4188 -2.1642
   59CHL1   C12 6803   2.532   2.010   9.567  0.3580 -0.3834 -0.1459
   59CHL1  H12A 6804   2.626   2.050   9.523 -0.3547  1.6066  0.0897
   59CHL1  H12B 6805   2.454   2.089   9.568 -1.7830 -2.3760 -2.2444
   59CHL1   C11 6806   2.558   1.961   9.707 -0.9154 -0.5185  0.1083
   59CHL1  H11A 6807   2.656   1.909   9.714 -0.3607  0.2474 -1.6906
   59CHL1  H11B 6808   2.561   2.042   9.783 -0.1941 -0.7436  0.3208
   59CHL1    C9 6809   2.443   1.872   9.761  0.3244  0.4879  0.6735
   59CHL1    H9 6810   2.353   1.936   9.750 -1.7277 -2.0464  2.0133
   59CHL1   C10 6811   2.444   1.836   9.913 -0.5687 -0.3108  0.0722
   59CHL1   C19 6812   2.572   1.754   9.938  0.6551  0.0819 -0.3001
   59CHL1  H19A 6813   2.581   1.724  10.045  1.6200 -0.4480 -0.5181
   59CHL1  H19B 6814   2.583   1.663   9.874  0.2691  1.4957 -2.4190
   59CHL1  H19C 6815   2.664   1.813   9.919 -0.5873  1.8780 -0.8127
   59CHL1    C1 6816   2.449   1.970  10.003 -0.0648 -0.2197 -0.4338
   59CHL1   H1A 6817   2.548   2.020  10.003  0.3113 -0.9624 -0.3718
   59CHL1   H1B 6818   2.358   2.029   9.977 -0.3142 -0.8983 -1.1164
   59CHL1    C2 6819   2.430   1.930  10.153  0.0681  0.6114  1.0262
   59CHL1   H2A 6820   2.419   2.027  10.207 -1.3965  0.6107  0.7315
   59CHL1   H2B 6821   2.521   1.869  10.172  1.1528  1.4498 -1.1881
   59CHL1   C20 6822   2.537   1.963   9.225 -0.4614 -0.7183 -0.1359
   59CHL1   H20 6823   2.625   1.896   9.223 -0.3141 -0.6423  2.6429
   59CHL1   C21 6824   2.599   2.101   9.253  0.0385 -1.1006  0.3160
   59CHL1  H21A 6825   2.692   2.089   9.313 -0.3487 -2.4315  0.6667
   59CHL1  H21B 6826   2.531   2.168   9.310 -0.4261 -1.6715  0.4424
   59CHL1  H21C 6827   2.629   2.144   9.155 -1.7283 -1.7732 -0.5406
   59CHL1   C22 6828   2.468   1.955   9.088 -0.1708  0.2244 -0.4306
   59CHL1  H22A 6829   2.551   1.981   9.018  1.1488 -0.3628  0.8866
   59CHL1  H22B 6830   2.426   1.855   9.065 -0.3361  0.3535 -0.6847
   59CHL1   C23 6831   2.357   2.057   9.070 -0.6342  0.0416 -0.0801
   59CHL1  H23A 6832   2.298   2.061   9.164  1.6141  2.0676  1.3213
   59CHL1  H23B 6833   2.394   2.160   9.049 -0.7514 -0.3816 -2.4459
   59CHL1   C24 6834   2.264   2.033   8.948  0.2305  0.7950  0.3708
   59CHL1  H24A 6835   2.327   2.028   8.856 -0.8544  1.7695 -0.4537
   59CHL1  H24B 6836   2.211   1.937   8.965  0.1610  1.1438  2.1910
   59CHL1   C25 6837   2.161   2.144   8.931 -0.1483 -0.2778  0.1701
   59CHL1   H25 6838   2.219   2.239   8.932  0.7251 -0.8032  1.0234
   59CHL1   C26 6839   2.091   2.122   8.794  0.1895 -0.1956 -0.3474
   59CHL1  H26A 6840   2.019   2.204   8.779  2.7517  2.3711  0.8462
   59CHL1  H26B 6841   2.167   2.133   8.714 -0.4551  1.1316 -0.7919
   59CHL1  H26C 6842   2.040   2.023   8.789 -2.0964  1.0318 -2.2672
   59CHL1   C27 6843   2.066   2.146   9.051 -0.0072  0.1229  0.0764
   59CHL1  H27A 6844   2.119   2.197   9.134  0.8305 -0.6734  0.0346
   59CHL1  H27B 6845   1.979   2.210   9.026 -1.3352 -2.1422 -1.2494
   59CHL1  H27C 6846   2.030   2.045   9.077  1.5591  0.0916  2.1970
   60CHL1    C3 6847   2.976   0.837  10.357  0.6710  0.4325 -0.4680
   60CHL1    H3 6848   3.054   0.903  10.313  1.0712  0.6076  0.5047
   60CHL1    O3 6849   2.981   0.846  10.499 -0.1688  0.0440  0.1265
   60CHL1   H3' 6850   2.896   0.807  10.518 -0.2022 -0.7959 -1.6737
   60CHL1    C4 6851   2.847   0.901  10.312 -0.1962  0.7713 -0.6078
   60CHL1   H4A 6852   2.767   0.850  10.370 -1.3323  2.1389 -0.9636
   60CHL1   H4B 6853   2.844   1.006  10.346  1.5557  0.6080  0.1285
   60CHL1    C5 6854   2.805   0.879  10.166 -0.4832 -0.3391 -0.3456
   60CHL1    C6 6855   2.761   0.981  10.089  0.0103 -0.9488  0.2474
   60CHL1    H6 6856   2.754   1.080  10.137 -1.8312  0.0519 -1.9938
   60CHL1    C7 6857   2.718   0.966   9.947 -0.1904 -0.1822 -0.1394
   60CHL1   H7A 6858   2.628   1.027   9.921  0.5674  0.8016 -0.4555
   60CHL1   H7B 6859   2.796   1.005   9.878 -1.8038  1.2085 -1.2181
   60CHL1    C8 6860   2.692   0.820   9.910  0.2984  0.8927  0.2247
   60CHL1    H8 6861   2.588   0.799   9.942  0.7686  0.6281  1.6291
   60CHL1   C14 6862   2.696   0.806   9.759  0.8226 -0.0215 -0.9962
   60CHL1   H14 6863   2.798   0.843   9.737  1.5061 -0.3575  1.4124
   60CHL1   C15 6864   2.615   0.896   9.662 -1.1216  0.4275  0.1745
   60CHL1  H15A 6865   2.517   0.887   9.712 -1.8935  0.4572 -1.3209
   60CHL1  H15B 6866   2.658   0.999   9.661 -0.4016  0.1632 -2.7907
   60CHL1   C16 6867   2.623   0.820   9.524 -0.2125 -0.5600 -0.0612
   60CHL1  H16A 6868   2.522   0.814   9.477  0.1239 -1.1606 -0.7226
   60CHL1  H16B 6869   2.673   0.877   9.443 -1.9418  0.0177 -0.7590
   60CHL1   C17 6870   2.696   0.687   9.550 -0.4132  0.2841  0.4017
   60CHL1   H17 6871   2.805   0.705   9.536 -0.5410  0.4866 -0.3784
   60CHL1   C13 6872   2.676   0.664   9.699  0.1274 -0.6354 -0.1060
   60CHL1   C18 6873   2.529   0.612   9.715 -0.1272  1.5422 -0.6955
   60CHL1  H18A 6874   2.493   0.614   9.820  1.9694 -1.8178  0.1951
   60CHL1  H18B 6875   2.453   0.668   9.657 -0.4128  0.6655 -1.1765
   60CHL1  H18C 6876   2.530   0.503   9.693  0.3923  1.2513  0.6696
   60CHL1   C12 6877   2.785   0.572   9.764 -0.0121  0.0040  0.0617
   60CHL1  H12A 6878   2.758   0.466   9.740  0.8467 -0.3522  0.6458
   60CHL1  H12B 6879   2.883   0.600   9.721  0.1520 -0.2842  0.2426
   60CHL1   C11 6880   2.766   0.579   9.912  0.4662  0.0946 -0.4106
   60CHL1  H11A 6881   2.667   0.542   9.944  0.3728  0.0719 -0.7231
   60CHL1  H11B 6882   2.845   0.513   9.955  1.4120 -0.1609 -2.4401
   60CHL1    C9 6883   2.792   0.722   9.970  0.5916  0.1442  0.4423
   60CHL1    H9 6884   2.891   0.750   9.927  0.2969 -1.3051 -1.2449
   60CHL1   C10 6885   2.813   0.728  10.120 -0.6810 -0.2995  0.2517
   60CHL1   C19 6886   2.699   0.651  10.195 -0.1859 -0.4154  0.8936
   60CHL1  H19A 6887   2.708   0.542  10.174  0.4388 -0.0558 -0.8189
   60CHL1  H19B 6888   2.707   0.659  10.305  0.7393  0.0559  0.7942
   60CHL1  H19C 6889   2.600   0.681  10.154  0.1459 -2.5163 -1.6333
   60CHL1    C1 6890   2.960   0.674  10.162  0.4146  0.5033 -0.8352
   60CHL1   H1A 6891   2.955   0.568  10.130  0.8908  0.4813 -0.8441
   60CHL1   H1B 6892   3.032   0.734  10.102  1.5739 -1.7563 -1.7675
   60CHL1    C2 6893   2.987   0.688  10.313 -0.0198 -0.1194 -0.5067
   60CHL1   H2A 6894   3.085   0.641  10.334 -0.1523 -0.1541  0.0425
   60CHL1   H2B 6895   2.922   0.629  10.382 -0.2945  0.9332  0.1541
   60CHL1   C20 6896   2.672   0.576   9.439  0.9143  0.1508 -0.4576
   60CHL1   H20 6897   2.570   0.539   9.463  1.2772  0.2933  1.3756
   60CHL1   C21 6898   2.778   0.463   9.453 -0.2032  0.0002 -0.2538
   60CHL1  H21A 6899   2.880   0.506   9.466 -0.1088 -0.4797  0.6427
   60CHL1  H21B 6900   2.782   0.387   9.373 -0.1848 -0.0715 -0.1841
   60CHL1  H21C 6901   2.754   0.418   9.552 -0.9327 -0.7685 -0.7760
   60CHL1   C22 6902   2.658   0.629   9.292  0.1940  0.2657  0.1416
   60CHL1  H22A 6903   2.564   0.687   9.279 -0.2072 -0.6052 -1.0267
   60CHL1  H22B 6904   2.747   0.695   9.281  0.2284  0.3344  0.8262
   60CHL1   C23 6905   2.647   0.527   9.181 -0.1316  0.3679  0.2883
   60CHL1  H23A 6906   2.751   0.496   9.158 -1.2259 -2.5611 -1.0431
   60CHL1  H23B 6907   2.593   0.434   9.210  1.1809 -1.0480 -1.6578
   60CHL1   C24 6908   2.572   0.576   9.060  0.3957  0.0786 -0.5504
   60CHL1  H24A 6909   2.469   0.609   9.089 -0.1461 -1.1195 -1.0686
   60CHL1  H24B 6910   2.624   0.656   9.003  0.3547  1.4742  1.3055
   60CHL1   C25 6911   2.561   0.469   8.949 -0.1180 -0.6295  0.0193
   60CHL1   H25 6912   2.656   0.419   8.918 -0.9788 -3.3400  1.6116
   60CHL1   C26 6913   2.454   0.363   8.985  0.2561  0.1332  0.9830
   60CHL1  H26A 6914   2.465   0.311   9.082  1.3056  2.3568  2.0997
   60CHL1  H26B 6915   2.355   0.412   8.996  0.7662  1.4915 -0.2873
   60CHL1  H26C 6916   2.447   0.282   8.910  0.3901 -0.5471  1.7006
   60CHL1   C27 6917   2.512   0.540   8.818  0.6608 -0.2071 -0.5338
   60CHL1  H27A 6918   2.500   0.460   8.742 -1.0213 -0.0673 -0.4348
   60CHL1  H27B 6919   2.414   0.590   8.837  1.1147 -0.2360  1.9549
   60CHL1  H27C 6920   2.581   0.618   8.780 -0.2091 -0.0833 -1.9117
   61CHL1    C3 6921   6.018   0.266  10.104 -0.5060 -0.0609 -0.6327
   61CHL1    H3 6922   5.925   0.206  10.092 -0.9146  0.0831  1.5967
   61CHL1    O3 6923   6.047   0.269  10.246  0.3809  0.5334 -0.7873
   61CHL1   H3' 6924   6.105   0.344  10.262 -0.0349  0.8646 -0.8299
   61CHL1    C4 6925   6.136   0.204  10.019  0.3878  0.4576 -0.2660
   61CHL1   H4A 6926   6.232   0.254  10.044  1.1335  0.2791 -2.6392
   61CHL1   H4B 6927   6.146   0.098  10.049  2.0556  0.6804  0.0183
   61CHL1    C5 6928   6.086   0.214   9.877  0.5912  0.5971  0.5188
   61CHL1    C6 6929   6.067   0.100   9.814 -0.6472 -0.1955  0.3672
   61CHL1    H6 6930   6.085   0.009   9.874 -0.3055 -0.7406 -0.5486
   61CHL1    C7 6931   6.032   0.075   9.673  0.1425 -0.4451  0.0146
   61CHL1   H7A 6932   6.104   0.004   9.627  0.3068 -0.7461  0.7318
   61CHL1   H7B 6933   5.928   0.036   9.669 -0.0487  0.1272 -0.8148
   61CHL1    C8 6934   6.038   0.215   9.596 -0.2575 -0.2034 -0.1632
   61CHL1    H8 6935   6.148   0.227   9.581 -0.0122 -0.9548  1.0302
   61CHL1   C14 6936   5.969   0.203   9.459 -0.5223  0.3436  0.6375
   61CHL1   H14 6937   5.861   0.192   9.483 -0.5849 -2.0078 -0.5232
   61CHL1   C15 6938   6.008   0.082   9.376  0.4613 -0.8152  0.1104
   61CHL1  H15A 6939   6.116   0.059   9.383  0.2571 -1.6701  0.5835
   61CHL1  H15B 6940   5.952  -0.005   9.417 -1.5291 -0.2352 -1.3112
   61CHL1   C16 6941   5.980   0.118   9.237  0.5893 -0.8113  0.0497
   61CHL1  H16A 6942   6.074   0.134   9.179  1.1699  2.1453  1.6737
   61CHL1  H16B 6943   5.911   0.048   9.186  2.5504 -0.3819 -3.3396
   61CHL1   C17 6944   5.937   0.266   9.234 -0.9215 -0.4354 -0.2044
   61CHL1   H17 6945   5.826   0.269   9.240 -0.8735  2.4235  0.1733
   61CHL1   C13 6946   5.994   0.325   9.367  0.0667 -0.1926  0.7550
   61CHL1   C18 6947   6.139   0.356   9.341 -0.0377 -0.8880 -0.2743
   61CHL1  H18A 6948   6.151   0.442   9.272 -3.4842 -0.2696 -0.1933
   61CHL1  H18B 6949   6.175   0.392   9.439 -1.0056  0.9978 -0.5952
   61CHL1  H18C 6950   6.211   0.272   9.327  1.0651  0.5676 -3.7910
   61CHL1   C12 6951   5.912   0.434   9.436  1.5081 -0.6185  0.4409
   61CHL1  H12A 6952   5.905   0.520   9.366 -0.6679 -2.0445 -1.1508
   61CHL1  H12B 6953   5.806   0.408   9.458  0.5314  0.7773 -2.4466
   61CHL1   C11 6954   5.962   0.457   9.581 -0.5149 -0.0021  0.7189
   61CHL1  H11A 6955   6.064   0.500   9.572 -1.0190  0.7376 -1.8405
   61CHL1  H11B 6956   5.902   0.531   9.637  0.0364 -0.9035  2.5263
   61CHL1    C9 6957   5.981   0.333   9.672 -0.1580 -0.0396  0.1100
   61CHL1    H9 6958   5.880   0.293   9.695 -0.6623 -0.1474 -2.1775
   61CHL1   C10 6959   6.051   0.354   9.813  0.3352  0.2370  0.5475
   61CHL1   C19 6960   6.184   0.430   9.801 -0.4327  0.2064  0.1760
   61CHL1  H19A 6961   6.254   0.385   9.729  0.7511  0.6759  1.0238
   61CHL1  H19B 6962   6.161   0.534   9.769  0.9385  0.5200  0.1950
   61CHL1  H19C 6963   6.222   0.439   9.905 -0.8775  1.3109  0.2508
   61CHL1    C1 6964   5.957   0.423   9.910  0.3164  0.4344  0.3526
   61CHL1   H1A 6965   5.937   0.527   9.875  0.6518  1.2335  2.4518
   61CHL1   H1B 6966   5.856   0.377   9.907  0.8420 -0.9343  2.5415
   61CHL1    C2 6967   5.997   0.409  10.060  0.1272 -0.3419 -0.0696
   61CHL1   H2A 6968   5.923   0.457  10.127  1.8798  0.7738  1.0766
   61CHL1   H2B 6969   6.091   0.466  10.074  1.0358 -1.6507 -0.6708
   61CHL1   C20 6970   5.966   0.334   9.096  0.1250  0.3887  0.0716
   61CHL1   H20 6971   6.077   0.328   9.086 -0.1104  0.3116 -3.0660
   61CHL1   C21 6972   5.908   0.477   9.086  0.2703 -0.1567 -0.0950
   61CHL1  H21A 6973   5.943   0.542   9.169 -0.6063  0.4231 -0.1673
   61CHL1  H21B 6974   5.797   0.476   9.082  0.3206 -0.1608 -1.7483
   61CHL1  H21C 6975   5.951   0.521   8.993  0.9389 -0.4117  0.0916
   61CHL1   C22 6976   5.896   0.247   8.991  0.2997 -0.4811  0.2202
   61CHL1  H22A 6977   5.952   0.151   8.993 -0.4208 -0.9007  2.7196
   61CHL1  H22B 6978   5.789   0.241   9.021 -0.3095  3.0120 -1.0442
   61CHL1   C23 6979   5.895   0.309   8.848 -0.0460 -0.2255  0.1762
   61CHL1  H23A 6980   5.823   0.394   8.847 -2.3260 -2.1068  0.8416
   61CHL1  H23B 6981   5.999   0.343   8.827  0.8381 -1.6342  2.1342
   61CHL1   C24 6982   5.866   0.217   8.721  0.1840  0.1614  0.4140
   61CHL1  H24A 6983   5.950   0.144   8.722  0.0276 -0.0477 -0.6843
   61CHL1  H24B 6984   5.764   0.176   8.735  0.6572 -1.3894 -0.6000
   61CHL1   C25 6985   5.863   0.290   8.578  0.0479  0.2713 -0.4809
   61CHL1   H25 6986   5.956   0.351   8.580  2.0830 -2.7286 -0.5170
   61CHL1   C26 6987   5.865   0.195   8.460  0.2069 -0.1279  0.1214
   61CHL1  H26A 6988   5.871   0.260   8.370  1.3754  1.5083  1.3387
   61CHL1  H26B 6989   5.958   0.134   8.458  0.7971  0.8037 -2.6193
   61CHL1  H26C 6990   5.766   0.147   8.445  0.8078 -1.2443 -0.3180
   61CHL1   C27 6991   5.753   0.396   8.577  0.0528  0.3232 -0.1619
   61CHL1  H27A 6992   5.658   0.339   8.579  0.5911 -0.5292  1.6546
   61CHL1  H27B 6993   5.755   0.478   8.652 -0.3793  0.3024 -0.1290
   61CHL1  H27C 6994   5.773   0.449   8.481 -1.5907 -0.7408 -1.1191
   62CHL1    C3 6995   0.105   3.528   9.925 -0.3799  0.3277 -0.9514
   62CHL1    H3 6996   0.104   3.427   9.879  0.5088 -0.5292  0.8626
   62CHL1    O3 6997   0.080   3.503  10.067  0.0959 -0.2397  0.5567
   62CHL1   H3' 6998   0.095   3.589  10.107  1.9216 -0.0363 -0.5191
   62CHL1    C4 6999   0.247   3.594   9.906 -0.2960  0.4780  0.2021
   62CHL1   H4A 7000   0.246   3.684   9.971 -0.3650 -0.2563  1.2488
   62CHL1   H4B 7001   0.323   3.522   9.945 -0.0996  0.5823  0.0170
   62CHL1    C5 7002   0.267   3.624   9.757 -0.0416 -0.2561 -0.5857
   62CHL1    C6 7003   0.372   3.563   9.697  0.2403 -0.2591 -0.7337
   62CHL1    H6 7004   0.445   3.505   9.756  0.6105  0.5830 -0.3518
   62CHL1    C7 7005   0.404   3.579   9.556  0.1014 -0.5399  0.6087
   62CHL1   H7A 7006   0.510   3.610   9.539 -0.0518 -1.2296 -1.7826
   62CHL1   H7B 7007   0.382   3.485   9.501 -3.4204  0.8734 -0.5126
   62CHL1    C8 7008   0.313   3.683   9.490 -0.1287  0.3291 -0.8232
   62CHL1    H8 7009   0.350   3.783   9.520 -0.3934  0.1910 -0.0171
   62CHL1   C14 7010   0.315   3.675   9.340 -0.1445 -0.4531  0.1071
   62CHL1   H14 7011   0.266   3.579   9.313 -1.8815  0.6378 -0.6684
   62CHL1   C15 7012   0.452   3.665   9.272 -0.4753 -0.2249  0.0963
   62CHL1  H15A 7013   0.527   3.733   9.319 -3.4991  2.0261  1.8475
   62CHL1  H15B 7014   0.487   3.560   9.284  2.1476  0.6915  0.9350
   62CHL1   C16 7015   0.425   3.707   9.127 -1.2705  0.6727 -0.3100
   62CHL1  H16A 7016   0.479   3.802   9.111 -1.4450  0.6918 -0.7917
   62CHL1  H16B 7017   0.464   3.645   9.043  0.2877 -1.4581  1.9148
   62CHL1   C17 7018   0.272   3.737   9.117 -0.4966 -0.3524  0.6129
   62CHL1   H17 7019   0.218   3.641   9.104 -2.6387  0.3959  3.4699
   62CHL1   C13 7020   0.233   3.782   9.258  0.8541  0.1704  0.7139
   62CHL1   C18 7021   0.284   3.925   9.281 -0.1084  0.8240 -0.2648
   62CHL1  H18A 7022   0.282   3.951   9.389  0.5050  0.4129 -0.1455
   62CHL1  H18B 7023   0.393   3.945   9.272  0.3566 -0.6167  1.6510
   62CHL1  H18C 7024   0.228   4.001   9.224 -2.4936  0.0347  0.9760
   62CHL1   C12 7025   0.084   3.766   9.297 -0.6865 -0.2470 -0.0403
   62CHL1  H12A 7026   0.024   3.851   9.258 -2.2601 -0.7358  1.2349
   62CHL1  H12B 7027   0.046   3.671   9.254  2.1854 -1.4646 -0.0234
   62CHL1   C11 7028   0.067   3.763   9.449 -0.5901  0.2525 -0.1439
   62CHL1  H11A 7029   0.083   3.868   9.481  0.5508  0.4746 -1.4096
   62CHL1  H11B 7030  -0.037   3.736   9.477 -0.2637 -0.5859  0.2440
   62CHL1    C9 7031   0.166   3.677   9.536  0.2029 -0.3456  0.4417
   62CHL1    H9 7032   0.134   3.572   9.520  1.4557 -0.6056 -0.3604
   62CHL1   C10 7033   0.155   3.696   9.684 -0.2996 -0.3741  0.7441
   62CHL1   C19 7034   0.160   3.852   9.719 -0.3008  0.4623 -0.7774
   62CHL1  H19A 7035   0.071   3.902   9.676 -1.6963 -1.3643 -0.0689
   62CHL1  H19B 7036   0.171   3.861   9.829 -1.1179  0.2073 -0.6719
   62CHL1  H19C 7037   0.251   3.895   9.670 -1.6371  1.3995 -2.4941
   62CHL1    C1 7038   0.013   3.639   9.728  0.4767 -0.1791  0.0071
   62CHL1   H1A 7039  -0.057   3.721   9.701  1.5689  0.0807 -2.2096
   62CHL1   H1B 7040  -0.025   3.547   9.680  1.5754 -1.1034  0.8972
   62CHL1    C2 7041  -0.001   3.624   9.878  0.0309 -0.0692  0.0516
   62CHL1   H2A 7042  -0.102   3.583   9.898 -0.4544  0.7449 -0.6661
   62CHL1   H2B 7043   0.018   3.721   9.929 -0.8246  0.7670 -1.1683
   62CHL1   C20 7044   0.242   3.834   8.993  0.2854  0.1064 -0.4628
   62CHL1   H20 7045   0.304   3.926   8.995  0.9352 -0.3363 -0.4267
   62CHL1   C21 7046   0.089   3.859   8.989 -0.7111  0.3990  0.0647
   62CHL1  H21A 7047   0.062   3.922   8.901  1.1992 -1.5154 -1.9493
   62CHL1  H21B 7048   0.064   3.920   9.078  0.8680  0.8802  0.1878
   62CHL1  H21C 7049   0.028   3.766   8.993 -0.9041  0.2514 -4.3219
   62CHL1   C22 7050   0.289   3.783   8.852  0.2198  0.4351 -0.1934
   62CHL1  H22A 7051   0.258   3.859   8.777  0.0813 -0.0219 -0.6059
   62CHL1  H22B 7052   0.399   3.766   8.847 -0.2314 -2.3735 -1.4844
   62CHL1   C23 7053   0.230   3.650   8.823 -0.4878 -0.2633  0.2281
   62CHL1  H23A 7054   0.242   3.576   8.905 -2.2802 -0.9926 -0.1425
   62CHL1  H23B 7055   0.122   3.661   8.799 -0.5746  1.5812  1.3341
   62CHL1   C24 7056   0.294   3.575   8.705 -0.1907  0.4172  0.1369
   62CHL1  H24A 7057   0.393   3.542   8.742  0.5282 -0.1103 -2.1643
   62CHL1  H24B 7058   0.257   3.475   8.673 -1.1858  0.8241 -0.0020
   62CHL1   C25 7059   0.311   3.652   8.578 -0.3706  0.5022  0.4870
   62CHL1   H25 7060   0.329   3.758   8.606  0.3395  1.0843 -2.0688
   62CHL1   C26 7061   0.422   3.607   8.481 -0.5741  0.0909 -0.3527
   62CHL1  H26A 7062   0.418   3.679   8.396  2.1426 -0.2775 -0.8139
   62CHL1  H26B 7063   0.523   3.602   8.526 -0.0683 -0.7249 -1.5335
   62CHL1  H26C 7064   0.395   3.510   8.434  1.4423 -1.5687  1.8430
   62CHL1   C27 7065   0.172   3.645   8.504 -0.8816 -0.4781 -0.3634
   62CHL1  H27A 7066   0.134   3.544   8.477 -1.5359 -0.0053 -1.2721
   62CHL1  H27B 7067   0.100   3.691   8.575 -3.1745  2.2377 -4.2042
   62CHL1  H27C 7068   0.183   3.690   8.402 -1.1406  0.3399 -0.0390
   63CHL1    C3 7069   1.764   5.213  10.462 -0.2899  0.3018 -0.6519
   63CHL1    H3 7070   1.875   5.218  10.472 -0.3604  2.2033 -0.4847
   63CHL1    O3 7071   1.707   5.201  10.596  0.1000  0.0058  0.2702
   63CHL1   H3' 7072   1.612   5.202  10.580  0.0391  3.4231  0.4920
   63CHL1    C4 7073   1.707   5.344  10.392  0.0458 -0.2449  0.8846
   63CHL1   H4A 7074   1.597   5.333  10.403 -0.3328  2.1712  0.0108
   63CHL1   H4B 7075   1.736   5.435  10.449  0.1540  1.4815 -1.7689
   63CHL1    C5 7076   1.743   5.356  10.244  0.7092 -0.2790  0.2798
   63CHL1    C6 7077   1.795   5.472  10.199 -0.7043 -0.6685  0.6288
   63CHL1    H6 7078   1.785   5.558  10.267  0.3483  0.0944 -0.1686
   63CHL1    C7 7079   1.838   5.496  10.062  0.0021  0.3981  0.5984
   63CHL1   H7A 7080   1.781   5.587  10.033  0.3496  0.5469  0.3900
   63CHL1   H7B 7081   1.946   5.519  10.055  0.0966 -0.4540 -1.1377
   63CHL1    C8 7082   1.807   5.376   9.965 -0.4099 -0.6693 -0.1077
   63CHL1    H8 7083   1.697   5.377   9.948 -0.0649 -0.9302 -2.4898
   63CHL1   C14 7084   1.878   5.390   9.831  0.0298 -0.7364  0.1532
   63CHL1   H14 7085   1.983   5.375   9.863  0.8242  0.0204 -2.0001
   63CHL1   C15 7086   1.864   5.522   9.750 -0.2660 -0.1449 -0.1629
   63CHL1  H15A 7087   1.760   5.562   9.747  0.4839  1.8025 -1.5615
   63CHL1  H15B 7088   1.922   5.603   9.798  0.2859 -1.1605  0.8904
   63CHL1   C16 7089   1.904   5.490   9.609  0.3018  0.7111 -0.7018
   63CHL1  H16A 7090   1.819   5.515   9.542 -0.4012  3.3442  1.0743
   63CHL1  H16B 7091   1.999   5.530   9.568 -0.0863  0.9049 -1.4033
   63CHL1   C17 7092   1.915   5.330   9.605  0.2899  0.2956  0.2164
   63CHL1   H17 7093   2.017   5.292   9.629  1.1025  0.9048 -2.2016
   63CHL1   C13 7094   1.837   5.281   9.731  0.2557 -0.0115  0.2278
   63CHL1   C18 7095   1.686   5.276   9.703  0.3376 -0.3280  0.1763
   63CHL1  H18A 7096   1.630   5.235   9.790  0.8706 -1.1491  0.1423
   63CHL1  H18B 7097   1.658   5.378   9.671  1.8155  0.3759  1.0488
   63CHL1  H18C 7098   1.663   5.205   9.621  0.5183 -0.3868  0.1745
   63CHL1   C12 7099   1.894   5.154   9.800  0.1519 -0.0098 -0.1848
   63CHL1  H12A 7100   1.903   5.065   9.735  0.2446 -1.0221  1.1891
   63CHL1  H12B 7101   2.002   5.174   9.821 -0.1027  1.6723 -0.4246
   63CHL1   C11 7102   1.830   5.115   9.936  0.7319  0.4009  0.3674
   63CHL1  H11A 7103   1.725   5.084   9.914  1.0678  1.3531 -2.7957
   63CHL1  H11B 7104   1.895   5.038   9.982  0.6874  0.1896  0.0791
   63CHL1    C9 7105   1.829   5.245  10.034  0.2090  0.3427 -0.1481
   63CHL1    H9 7106   1.936   5.241  10.065 -0.4955 -2.9560  2.1193
   63CHL1   C10 7107   1.742   5.230  10.162  0.1998  0.3716  0.4194
   63CHL1   C19 7108   1.602   5.187  10.128  0.4034 -0.2444 -0.0892
   63CHL1  H19A 7109   1.536   5.185  10.218  0.3311 -0.7786 -0.1528
   63CHL1  H19B 7110   1.562   5.254  10.049  0.4631 -0.9550 -0.7324
   63CHL1  H19C 7111   1.606   5.082  10.093  1.9597 -0.5377  0.9237
   63CHL1    C1 7112   1.800   5.111  10.241 -0.1550  0.4912  0.0819
   63CHL1   H1A 7113   1.786   5.020  10.180  4.0549  0.5948 -1.1946
   63CHL1   H1B 7114   1.910   5.127  10.250  0.0595 -0.4524 -0.8499
   63CHL1    C2 7115   1.737   5.089  10.377  0.5141  0.5547 -0.7416
   63CHL1   H2A 7116   1.783   5.006  10.436 -0.9646  0.2591  0.0325
   63CHL1   H2B 7117   1.629   5.065  10.366  0.2430  0.9989  0.7961
   63CHL1   C20 7118   1.880   5.265   9.470 -0.9220 -0.8514  0.1349
   63CHL1   H20 7119   1.772   5.290   9.461 -0.6125  0.3792 -0.2887
   63CHL1   C21 7120   1.894   5.116   9.477  0.3130  0.3656  0.0355
   63CHL1  H21A 7121   1.819   5.077   9.550 -1.1535  1.0276 -1.0807
   63CHL1  H21B 7122   1.990   5.076   9.515 -0.5677 -1.1586  0.6869
   63CHL1  H21C 7123   1.871   5.064   9.381 -1.8863  0.1329  0.6499
   63CHL1   C22 7124   1.955   5.325   9.350  0.0462  0.0580 -0.0449
   63CHL1  H22A 7125   1.985   5.432   9.362 -1.6686  0.9162 -2.8697
   63CHL1  H22B 7126   2.053   5.274   9.350  1.0993  2.0138  1.1050
   63CHL1   C23 7127   1.889   5.297   9.212  0.4681  0.2542 -0.7273
   63CHL1  H23A 7128   1.886   5.186   9.217  0.9117  0.3179  1.8985
   63CHL1  H23B 7129   1.788   5.343   9.206 -0.6947 -1.7963  2.0215
   63CHL1   C24 7130   1.967   5.343   9.093 -0.3350 -1.4657 -0.1944
   63CHL1  H24A 7131   1.963   5.454   9.088 -1.3191 -1.4020  1.5586
   63CHL1  H24B 7132   2.074   5.317   9.113 -0.1606 -0.3182  0.4010
   63CHL1   C25 7133   1.924   5.280   8.960  0.6294 -0.7197  0.4488
   63CHL1   H25 7134   1.822   5.317   8.937  1.6315  0.6643 -1.9991
   63CHL1   C26 7135   2.010   5.337   8.851 -0.6565  0.6253 -0.0537
   63CHL1  H26A 7136   2.005   5.447   8.870  2.6281  0.6851  0.8009
   63CHL1  H26B 7137   2.113   5.296   8.851 -0.0734  2.0478  1.7622
   63CHL1  H26C 7138   1.964   5.317   8.752 -0.8761 -0.8613  0.3451
   63CHL1   C27 7139   1.934   5.131   8.953  0.9180  0.3123  0.1878
   63CHL1  H27A 7140   2.034   5.091   8.983 -0.6899 -3.5202  0.6535
   63CHL1  H27B 7141   1.863   5.082   9.023  1.9632 -2.2630 -0.4869
   63CHL1  H27C 7142   1.898   5.101   8.853  1.0690 -1.3286  0.6022
   64CHL1    C3 7143   0.870   4.725  10.099  0.2171  0.6411  0.5416
   64CHL1    H3 7144   0.925   4.630  10.079 -0.9987  0.2608 -1.1505
   64CHL1    O3 7145   0.852   4.736  10.237 -0.4046  0.2096 -0.1007
   64CHL1   H3' 7146   0.827   4.828  10.249  1.0470  0.4594  1.2235
   64CHL1    C4 7147   0.954   4.839  10.039 -0.9885 -0.0075  0.1844
   64CHL1   H4A 7148   0.900   4.934  10.060  0.5061  0.7442  0.7081
   64CHL1   H4B 7149   1.051   4.832  10.092 -0.3567 -1.5674 -1.1649
   64CHL1    C5 7150   0.976   4.830   9.888 -0.0901  0.5030  0.2624
   64CHL1    C6 7151   1.096   4.825   9.834 -0.9517  0.6566 -0.5823
   64CHL1    H6 7152   1.186   4.833   9.898 -1.8130  1.0566  0.6062
   64CHL1    C7 7153   1.131   4.825   9.681  0.1874 -0.1441 -0.9878
   64CHL1   H7A 7154   1.195   4.913   9.657  2.4698 -1.6564 -0.5643
   64CHL1   H7B 7155   1.179   4.726   9.667  0.2932 -0.3601  0.7600
   64CHL1    C8 7156   1.006   4.837   9.597  0.2401  0.9241  0.1940
   64CHL1    H8 7157   0.974   4.943   9.588 -0.5894  0.4835 -2.4834
   64CHL1   C14 7158   1.015   4.778   9.456  0.1155 -0.0870  0.4953
   64CHL1   H14 7159   1.023   4.670   9.481  2.0646 -0.1228 -0.2022
   64CHL1   C15 7160   1.141   4.808   9.376 -0.0927  0.5881  0.3420
   64CHL1  H15A 7161   1.168   4.915   9.385 -1.6085  0.9629  0.6681
   64CHL1  H15B 7162   1.211   4.732   9.416 -0.4999 -0.7466 -1.3899
   64CHL1   C16 7163   1.097   4.774   9.227 -0.5649  0.4875 -0.0912
   64CHL1  H16A 7164   1.102   4.870   9.172 -0.7131  0.4533 -0.1687
   64CHL1  H16B 7165   1.159   4.700   9.170  0.5762  0.0670  1.6566
   64CHL1   C17 7166   0.951   4.722   9.239 -0.2117  0.5052  0.0618
   64CHL1   H17 7167   0.979   4.618   9.269 -0.3040  1.2664  2.8702
   64CHL1   C13 7168   0.894   4.798   9.364  0.1965  0.2576  0.1914
   64CHL1   C18 7169   0.882   4.950   9.331 -0.6416  0.3400  0.5630
   64CHL1  H18A 7170   0.812   4.962   9.246 -3.1070 -1.0700  2.3256
   64CHL1  H18B 7171   0.842   5.006   9.419  0.9475  0.8571  0.9733
   64CHL1  H18C 7172   0.982   4.994   9.311  0.0420 -0.2967  2.4122
   64CHL1   C12 7173   0.768   4.746   9.424  0.2426  0.0162  0.2331
   64CHL1  H12A 7174   0.680   4.767   9.359 -1.9016  0.6482  3.2206
   64CHL1  H12B 7175   0.770   4.635   9.428 -3.0879 -0.0560  2.4445
   64CHL1   C11 7176   0.751   4.799   9.568  0.2798 -0.1999 -0.3102
   64CHL1  H11A 7177   0.714   4.904   9.562 -3.8218 -1.5276  0.5051
   64CHL1  H11B 7178   0.668   4.742   9.613  0.0543 -1.3784 -2.1755
   64CHL1    C9 7179   0.878   4.777   9.655 -0.5466 -0.4208  0.8439
   64CHL1    H9 7180   0.901   4.668   9.647 -1.9467 -0.7509  1.1363
   64CHL1   C10 7181   0.845   4.807   9.809  0.4296 -0.0639  0.3465
   64CHL1   C19 7182   0.756   4.932   9.812  0.4126 -0.3029  0.1468
   64CHL1  H19A 7183   0.798   5.027   9.771  1.2911 -0.1079  1.4460
   64CHL1  H19B 7184   0.653   4.921   9.772 -0.5012  2.1414  1.6556
   64CHL1  H19C 7185   0.741   4.967   9.917 -0.4504  0.8905 -0.3603
   64CHL1    C1 7186   0.767   4.695   9.882  0.7183  0.6438 -0.8451
   64CHL1   H1A 7187   0.680   4.675   9.816  1.6977  0.3316 -2.0891
   64CHL1   H1B 7188   0.823   4.599   9.873  0.7472  0.6051 -0.2416
   64CHL1    C2 7189   0.732   4.726  10.028  0.5563  0.0099 -0.3917
   64CHL1   H2A 7190   0.674   4.636  10.056  0.7806  0.0877  0.3222
   64CHL1   H2B 7191   0.693   4.825  10.058 -1.1226 -0.1459 -1.9757
   64CHL1   C20 7192   0.879   4.723   9.105  0.4642 -0.1394 -0.4319
   64CHL1   H20 7193   0.833   4.824   9.094  0.5793  0.0698  0.9653
   64CHL1   C21 7194   0.768   4.617   9.103  0.1479 -0.2163 -0.0465
   64CHL1  H21A 7195   0.708   4.627   9.010 -0.3862  1.1906  0.4326
   64CHL1  H21B 7196   0.695   4.632   9.185  0.0020  1.2858 -0.4438
   64CHL1  H21C 7197   0.809   4.514   9.111 -0.3121 -0.2475  2.1649
   64CHL1   C22 7198   0.954   4.681   8.982  0.5142  0.2804  0.3228
   64CHL1  H22A 7199   1.016   4.592   9.008 -0.8006 -0.5049  0.8055
   64CHL1  H22B 7200   0.878   4.647   8.908  1.0863 -0.9301  0.2703
   64CHL1   C23 7201   1.018   4.795   8.905 -0.3544 -0.3763  0.3882
   64CHL1  H23A 7202   0.944   4.877   8.891  1.9476  1.7712  0.4519
   64CHL1  H23B 7203   1.100   4.829   8.972 -1.4838  1.6516  0.7747
   64CHL1   C24 7204   1.071   4.729   8.778 -0.7129 -0.1498  0.9325
   64CHL1  H24A 7205   1.122   4.634   8.805 -2.2382 -1.3147 -0.1513
   64CHL1  H24B 7206   0.986   4.694   8.715  0.2985 -0.5528 -0.2352
   64CHL1   C25 7207   1.155   4.822   8.678  0.1915 -0.2428  0.0545
   64CHL1   H25 7208   1.167   4.769   8.581 -1.2235 -0.4707 -0.0117
   64CHL1   C26 7209   1.068   4.945   8.638 -0.2400  0.1714  0.1879
   64CHL1  H26A 7210   1.046   5.005   8.728 -1.3012 -0.3435  0.2724
   64CHL1  H26B 7211   1.126   5.016   8.575 -0.1289  0.8731  1.0653
   64CHL1  H26C 7212   0.976   4.919   8.583 -0.1457 -0.6176  0.3972
   64CHL1   C27 7213   1.279   4.866   8.732 -0.0916  0.6366 -0.2193
   64CHL1  H27A 7214   1.341   4.895   8.645 -1.2596 -1.1625 -1.6932
   64CHL1  H27B 7215   1.269   4.957   8.795 -2.1345  0.2637  0.0418
   64CHL1  H27C 7216   1.339   4.789   8.784 -0.0313 -0.2808 -1.6268
   65CHL1    C3 7217   3.044   1.371  10.484 -0.6687  0.3525  0.4345
   65CHL1    H3 7218   3.145   1.328  10.465 -1.5989 -2.0967  0.8363
   65CHL1    O3 7219   3.017   1.352  10.620 -0.0727  0.5366 -0.1036
   65CHL1   H3' 7220   3.077   1.399  10.677  2.1831 -0.7010 -1.3820
   65CHL1    C4 7221   3.051   1.516  10.449  0.2270  0.1644 -0.1079
   65CHL1   H4A 7222   2.947   1.552  10.465 -0.5218 -2.3266  0.7866
   65CHL1   H4B 7223   3.125   1.566  10.514  1.3249 -0.6929 -0.6892
   65CHL1    C5 7224   3.071   1.532  10.300  0.6666 -0.2402 -0.1989
   65CHL1    C6 7225   3.180   1.595  10.249  1.2812  0.1238  0.2481
   65CHL1    H6 7226   3.253   1.634  10.322 -0.1980  2.4572  0.5273
   65CHL1    C7 7227   3.207   1.619  10.104 -0.7942  0.6159 -0.6221
   65CHL1   H7A 7228   3.230   1.725  10.081  1.0326  0.2755 -0.4646
   65CHL1   H7B 7229   3.295   1.561  10.069 -0.7179  1.2426 -1.4955
   65CHL1    C8 7230   3.087   1.581  10.016  0.4148  0.2555  0.2922
   65CHL1    H8 7231   3.008   1.657  10.032 -0.0878 -0.4919  1.4168
   65CHL1   C14 7232   3.128   1.579   9.868  0.2842 -0.3521 -0.2421
   65CHL1   H14 7233   3.217   1.513   9.859  1.3620  0.7609  1.9565
   65CHL1   C15 7234   3.174   1.717   9.815 -0.5405  0.3498 -0.0028
   65CHL1  H15A 7235   3.104   1.795   9.852 -3.3151 -2.2023  0.3749
   65CHL1  H15B 7236   3.280   1.737   9.842 -0.1778 -2.3593  0.7442
   65CHL1   C16 7237   3.156   1.704   9.658 -0.1105  0.2189 -0.5045
   65CHL1  H16A 7238   3.118   1.800   9.616  2.2872  1.4066 -0.0104
   65CHL1  H16B 7239   3.260   1.688   9.623  0.3441  1.0602  0.4400
   65CHL1   C17 7240   3.072   1.574   9.641  0.1693  0.1456  0.6645
   65CHL1   H17 7241   3.150   1.498   9.619 -0.6323 -0.9131  1.4012
   65CHL1   C13 7242   3.016   1.533   9.774 -0.2997 -0.6951  0.4761
   65CHL1   C18 7243   2.887   1.613   9.797 -0.3599 -0.3845  0.3535
   65CHL1  H18A 7244   2.904   1.717   9.760 -0.2501 -0.3436  0.5213
   65CHL1  H18B 7245   2.805   1.554   9.750 -0.2028 -0.9668  0.8123
   65CHL1  H18C 7246   2.860   1.618   9.905  1.0219 -0.5119  0.7074
   65CHL1   C12 7247   2.992   1.391   9.811 -0.0672  0.7071 -0.0016
   65CHL1  H12A 7248   2.924   1.333   9.744 -2.5681  0.6498  2.5129
   65CHL1  H12B 7249   3.083   1.328   9.812 -0.8467 -0.5001 -1.9165
   65CHL1   C11 7250   2.944   1.380   9.958 -0.2332 -0.5165 -0.6535
   65CHL1  H11A 7251   2.840   1.418   9.958  0.0035  0.1494  0.6876
   65CHL1  H11B 7252   2.935   1.270   9.968  1.2275 -0.6881 -1.1756
   65CHL1    C9 7253   3.037   1.447  10.062 -0.2791  0.2110  0.2365
   65CHL1    H9 7254   3.129   1.384  10.062 -1.6824 -1.8959 -0.2778
   65CHL1   C10 7255   2.980   1.455  10.205 -0.0606 -0.7628 -0.4092
   65CHL1   C19 7256   2.837   1.520  10.196 -0.4133  0.0875  0.0428
   65CHL1  H19A 7257   2.766   1.454  10.141  0.1555  0.9802 -1.8312
   65CHL1  H19B 7258   2.800   1.525  10.300 -1.7427  4.1688 -0.5114
   65CHL1  H19C 7259   2.835   1.622  10.150  2.0003  0.5163  0.8694
   65CHL1    C1 7260   2.959   1.311  10.252  0.2045  0.3807 -0.4530
   65CHL1   H1A 7261   2.859   1.280  10.214 -0.6274  0.8998  1.2892
   65CHL1   H1B 7262   3.040   1.244  10.214 -0.0085 -0.0422 -0.1745
   65CHL1    C2 7263   2.943   1.295  10.402 -0.1272  0.1687  0.6270
   65CHL1   H2A 7264   2.957   1.188  10.427  0.3610 -0.0620 -0.5670
   65CHL1   H2B 7265   2.843   1.320  10.441  0.0021  0.0227  1.0576
   65CHL1   C20 7266   2.984   1.590   9.520  0.2766 -0.3602  0.3827
   65CHL1   H20 7267   2.904   1.665   9.538 -0.3227 -0.3131 -2.2785
   65CHL1   C21 7268   2.909   1.460   9.491 -0.1834 -0.0017 -0.3466
   65CHL1  H21A 7269   2.833   1.464   9.410 -0.9402 -1.0551  0.3045
   65CHL1  H21B 7270   2.857   1.428   9.583  0.4295  3.5468  1.3059
   65CHL1  H21C 7271   2.980   1.382   9.457 -0.7501 -1.2316  1.2368
   65CHL1   C22 7272   3.049   1.642   9.389 -0.7738 -0.5068  0.0888
   65CHL1  H22A 7273   3.108   1.732   9.414  1.0746 -2.0571  1.4563
   65CHL1  H22B 7274   3.119   1.559   9.364 -0.9068 -0.6085  0.0511
   65CHL1   C23 7275   2.954   1.671   9.272  0.0905  0.2982 -0.1115
   65CHL1  H23A 7276   2.906   1.573   9.250 -3.5505  1.9440  0.0919
   65CHL1  H23B 7277   2.883   1.753   9.295  0.0935 -0.1327  1.5044
   65CHL1   C24 7278   3.040   1.709   9.149 -0.1866  0.4148  0.6831
   65CHL1  H24A 7279   3.097   1.803   9.161  1.4911 -0.7044  1.6366
   65CHL1  H24B 7280   3.108   1.622   9.135 -1.2384 -0.1090 -1.3766
   65CHL1   C25 7281   2.947   1.710   9.023  0.0733 -0.1455  0.0437
   65CHL1   H25 7282   2.883   1.619   9.019 -0.4294  0.1360  1.3144
   65CHL1   C26 7283   2.861   1.838   9.018  0.3474  0.0663  0.6462
   65CHL1  H26A 7284   2.796   1.859   9.106 -1.2730 -0.1396 -0.4674
   65CHL1  H26B 7285   2.930   1.925   9.006  0.0241  0.2815  0.3093
   65CHL1  H26C 7286   2.800   1.832   8.924 -1.4159 -0.2524  1.7802
   65CHL1   C27 7287   3.030   1.703   8.891 -0.0363 -0.2284  0.3702
   65CHL1  H27A 7288   2.973   1.736   8.802 -0.0157  0.9104  0.7642
   65CHL1  H27B 7289   3.120   1.766   8.909 -0.3646  0.4260 -0.2456
   65CHL1  H27C 7290   3.070   1.604   8.862 -1.1659  0.0705 -2.2628
   66CHL1    C3 7291   1.343   6.811  10.500  0.9141  0.9197  0.1248
   66CHL1    H3 7292   1.390   6.905  10.465  0.7060  0.4343 -1.5023
   66CHL1    O3 7293   1.341   6.804  10.639  0.0276 -0.0500 -0.4049
   66CHL1   H3' 7294   1.429   6.830  10.668 -0.1282 -1.9324  1.8945
   66CHL1    C4 7295   1.202   6.804  10.437 -0.0651 -0.1567 -0.1805
   66CHL1   H4A 7296   1.156   6.706  10.461 -1.8732  1.0078  1.2563
   66CHL1   H4B 7297   1.131   6.882  10.474 -1.4242 -1.0332 -0.8915
   66CHL1    C5 7298   1.213   6.804  10.288 -0.9783 -0.3003  0.6344
   66CHL1    C6 7299   1.166   6.905  10.207 -0.0858 -0.5239 -0.1342
   66CHL1    H6 7300   1.131   6.991  10.267  2.3811 -1.0477  2.1198
   66CHL1    C7 7301   1.168   6.908  10.066  0.2659 -0.7116  1.1004
   66CHL1   H7A 7302   1.066   6.934  10.032  1.0882  1.6194  0.3310
   66CHL1   H7B 7303   1.240   6.987  10.033 -0.2885 -1.4829 -2.0817
   66CHL1    C8 7304   1.213   6.776   9.994 -0.6722 -1.0372 -0.6042
   66CHL1    H8 7305   1.126   6.711  10.014 -1.0091 -0.4260 -0.0790
   66CHL1   C14 7306   1.256   6.799   9.853  0.1516 -0.2724 -0.4309
   66CHL1   H14 7307   1.348   6.862   9.854  0.0624 -0.1367 -0.6234
   66CHL1   C15 7308   1.155   6.875   9.766  0.4992  0.0933 -0.2391
   66CHL1  H15A 7309   1.053   6.853   9.805  1.4519 -2.1181  1.0503
   66CHL1  H15B 7310   1.172   6.985   9.773  0.4413  0.1042 -0.2694
   66CHL1   C16 7311   1.174   6.822   9.623 -0.3733 -0.3917 -0.4978
   66CHL1  H16A 7312   1.080   6.765   9.607  0.0966 -1.7355  1.3459
   66CHL1  H16B 7313   1.173   6.899   9.543 -1.8809  1.3161  1.1122
   66CHL1   C17 7314   1.303   6.734   9.641  0.3892  0.0905 -0.1702
   66CHL1   H17 7315   1.386   6.808   9.639  2.4888 -2.0818  2.9922
   66CHL1   C13 7316   1.296   6.674   9.781 -1.3359 -0.4879  1.0965
   66CHL1   C18 7317   1.181   6.578   9.781 -0.0496  0.6259 -0.0687
   66CHL1  H18A 7318   1.131   6.558   9.878  1.0498 -1.9642  0.0094
   66CHL1  H18B 7319   1.096   6.600   9.712 -1.0518 -1.7356  0.3580
   66CHL1  H18C 7320   1.214   6.476   9.750  0.9190  0.8092  0.3592
   66CHL1   C12 7321   1.420   6.615   9.849 -0.4991 -0.5557  0.1418
   66CHL1  H12A 7322   1.466   6.524   9.805  0.9080 -0.5636  1.5857
   66CHL1  H12B 7323   1.497   6.694   9.836  0.5618 -1.6454 -0.3199
   66CHL1   C11 7324   1.387   6.591   9.999  0.2991 -0.6757  0.2892
   66CHL1  H11A 7325   1.318   6.504   9.991 -0.1384 -0.4873  1.8287
   66CHL1  H11B 7326   1.478   6.550  10.047  1.3131  0.9485 -0.2147
   66CHL1    C9 7327   1.323   6.707  10.079 -0.2811  0.6644 -0.1305
   66CHL1    H9 7328   1.400   6.787  10.078  1.6259 -1.1352 -0.0541
   66CHL1   C10 7329   1.287   6.680  10.230 -0.5021  0.5531  0.1843
   66CHL1   C19 7330   1.200   6.549  10.246 -0.3285 -0.5787 -0.1114
   66CHL1  H19A 7331   1.254   6.457  10.214  0.3598 -1.0629  2.3322
   66CHL1  H19B 7332   1.182   6.519  10.351 -0.4443 -2.7771 -0.7350
   66CHL1  H19C 7333   1.105   6.549  10.189 -0.0669  0.0893 -0.5597
   66CHL1    C1 7334   1.427   6.677  10.297 -0.5509 -0.6409 -0.5958
   66CHL1   H1A 7335   1.482   6.582  10.280 -0.8841 -1.0573  0.5635
   66CHL1   H1B 7336   1.482   6.769  10.266 -3.4436  1.0035 -0.9643
   66CHL1    C2 7337   1.428   6.691  10.452  0.4285 -0.3726  0.0954
   66CHL1   H2A 7338   1.527   6.715  10.495  1.1642 -1.7862 -0.7971
   66CHL1   H2B 7339   1.405   6.588  10.487 -1.6615 -1.1909 -3.3852
   66CHL1   C20 7340   1.320   6.631   9.530  0.4381  0.1506 -0.1119
   66CHL1   H20 7341   1.263   6.539   9.556 -0.6908  1.6508  2.8709
   66CHL1   C21 7342   1.467   6.582   9.517  0.9064  0.5345  0.1563
   66CHL1  H21A 7343   1.475   6.473   9.500  1.4365  0.6575 -0.4063
   66CHL1  H21B 7344   1.524   6.612   9.608 -0.8966  2.2216  0.7796
   66CHL1  H21C 7345   1.515   6.645   9.438 -1.3480 -0.3289 -1.9618
   66CHL1   C22 7346   1.258   6.673   9.394  0.5243  0.3053  0.3479
   66CHL1  H22A 7347   1.149   6.689   9.406  0.4173 -1.6474  2.1790
   66CHL1  H22B 7348   1.295   6.770   9.356  0.4462  0.2543  0.1379
   66CHL1   C23 7349   1.276   6.585   9.268 -0.3483  0.2524  0.4333
   66CHL1  H23A 7350   1.377   6.585   9.222 -0.0570  0.8118  1.0564
   66CHL1  H23B 7351   1.232   6.487   9.295 -2.7116  1.7205  2.1623
   66CHL1   C24 7352   1.179   6.620   9.149  0.3222  0.4652 -0.0907
   66CHL1  H24A 7353   1.165   6.527   9.090 -3.1610  0.2280  0.9665
   66CHL1  H24B 7354   1.081   6.629   9.202  1.1100 -0.0123  1.4695
   66CHL1   C25 7355   1.196   6.745   9.062 -0.3206  0.1183 -0.2139
   66CHL1   H25 7356   1.223   6.821   9.138 -0.2140  2.7259 -2.7830
   66CHL1   C26 7357   1.322   6.744   8.966 -0.1511  0.9613 -0.1654
   66CHL1  H26A 7358   1.417   6.736   9.024 -0.9339 -2.4729  0.7982
   66CHL1  H26B 7359   1.303   6.655   8.902 -0.1505  0.6059  0.3244
   66CHL1  H26C 7360   1.317   6.839   8.909 -0.6446  1.4335  0.6650
   66CHL1   C27 7361   1.066   6.775   8.982  0.8074 -0.4222 -0.0260
   66CHL1  H27A 7362   1.069   6.879   8.945 -0.2322  0.0580  1.2181
   66CHL1  H27B 7363   1.056   6.709   8.892  0.1069  0.9286 -0.9517
   66CHL1  H27C 7364   0.973   6.767   9.043 -0.5677  1.4154 -1.8215
   67CHL1    C3 7365   5.479   0.445  10.385 -0.5108  0.0158 -0.3431
   67CHL1    H3 7366   5.395   0.381  10.352 -1.2975  0.4399  0.8161
   67CHL1    O3 7367   5.513   0.424  10.522  0.0494 -0.0566 -0.4283
   67CHL1   H3' 7368   5.446   0.461  10.580 -0.8206  0.1015 -1.5276
   67CHL1    C4 7369   5.598   0.402  10.300  0.1040  0.3680  0.0633
   67CHL1   H4A 7370   5.682   0.469  10.325 -1.1113  1.2894  1.7664
   67CHL1   H4B 7371   5.632   0.298  10.319  0.4332  0.4926  0.1475
   67CHL1    C5 7372   5.582   0.426  10.154 -0.3081  0.1430 -0.1890
   67CHL1    C6 7373   5.599   0.319  10.075 -0.0060  0.0908  0.1999
   67CHL1    H6 7374   5.626   0.219  10.111  2.6812  0.2435 -1.2554
   67CHL1    C7 7375   5.576   0.314   9.927 -0.6189  0.1253  0.5294
   67CHL1   H7A 7376   5.656   0.262   9.871  0.0682  4.0815 -2.3700
   67CHL1   H7B 7377   5.475   0.271   9.904 -1.2632  0.9974  1.6904
   67CHL1    C8 7378   5.569   0.465   9.868  0.6065  0.4736  0.1428
   67CHL1    H8 7379   5.672   0.506   9.862  0.0227  1.8932 -0.5200
   67CHL1   C14 7380   5.508   0.456   9.727 -0.1792 -0.1450 -0.0096
   67CHL1   H14 7381   5.408   0.418   9.759  0.0704  0.7242  1.8738
   67CHL1   C15 7382   5.567   0.359   9.627 -0.4372 -0.3362  0.7274
   67CHL1  H15A 7383   5.677   0.346   9.622 -0.6320 -1.9961  0.4144
   67CHL1  H15B 7384   5.535   0.260   9.666  2.9817 -2.0729 -0.7310
   67CHL1   C16 7385   5.505   0.402   9.497  0.4924  0.0238  0.5837
   67CHL1  H16A 7386   5.579   0.417   9.415  1.7768  2.8896  2.1581
   67CHL1  H16B 7387   5.435   0.327   9.457  2.9843 -0.5952 -2.8501
   67CHL1   C17 7388   5.423   0.531   9.531  0.0655  0.2489  0.4233
   67CHL1   H17 7389   5.321   0.495   9.556 -1.1702  2.5088 -1.2658
   67CHL1   C13 7390   5.486   0.589   9.656  0.0404 -1.0074  0.1384
   67CHL1   C18 7391   5.624   0.661   9.626 -0.6314 -0.2027  0.2594
   67CHL1  H18A 7392   5.679   0.683   9.720 -0.0448  2.8111 -0.7468
   67CHL1  H18B 7393   5.689   0.601   9.558  0.1525 -0.7559  1.4533
   67CHL1  H18C 7394   5.590   0.757   9.584 -2.1683 -0.9028 -0.1225
   67CHL1   C12 7395   5.390   0.676   9.741 -0.1938 -1.0997  0.4941
   67CHL1  H12A 7396   5.375   0.775   9.695  2.6707  0.0303  1.8717
   67CHL1  H12B 7397   5.296   0.617   9.749 -0.0825 -1.4316 -0.6397
   67CHL1   C11 7398   5.453   0.685   9.878  0.6208 -0.2253  0.3667
   67CHL1  H11A 7399   5.554   0.732   9.877  0.8882 -0.7735 -2.4685
   67CHL1  H11B 7400   5.387   0.745   9.944  1.3876 -0.7273  1.6347
   67CHL1    C9 7401   5.481   0.549   9.955 -0.3660  0.0677 -0.1566
   67CHL1    H9 7402   5.379   0.504   9.959 -0.1862 -0.3844 -0.5370
   67CHL1   C10 7403   5.522   0.558  10.107 -0.0313 -0.3312 -0.7278
   67CHL1   C19 7404   5.642   0.658  10.106 -0.3811  0.4966  0.0640
   67CHL1  H19A 7405   5.724   0.618  10.043  0.5154 -0.3177  1.7440
   67CHL1  H19B 7406   5.604   0.759  10.077 -1.7522  0.2132  0.7971
   67CHL1  H19C 7407   5.691   0.665  10.205  0.5422 -1.8846 -0.2004
   67CHL1    C1 7408   5.409   0.614  10.202  0.3032 -0.2821  0.0299
   67CHL1   H1A 7409   5.396   0.720  10.169 -0.0458 -0.3828 -0.1586
   67CHL1   H1B 7410   5.320   0.552  10.178  1.2215 -2.3236  1.7358
   67CHL1    C2 7411   5.442   0.593  10.353 -0.0270 -0.4479  0.0163
   67CHL1   H2A 7412   5.357   0.632  10.414 -0.2898 -1.1458  0.1014
   67CHL1   H2B 7413   5.530   0.651  10.386 -0.9167  1.4045 -0.7789
   67CHL1   C20 7414   5.405   0.606   9.401 -0.5629  0.5775  0.5828
   67CHL1   H20 7415   5.493   0.669   9.380 -1.0143  0.6749 -1.0609
   67CHL1   C21 7416   5.281   0.699   9.420  0.1015  0.4632 -0.4297
   67CHL1  H21A 7417   5.261   0.771   9.338 -1.8005  0.0609 -0.3436
   67CHL1  H21B 7418   5.291   0.761   9.511 -2.3538  0.8203 -0.3846
   67CHL1  H21C 7419   5.189   0.637   9.421 -0.4320  1.2695  1.4456
   67CHL1   C22 7420   5.374   0.521   9.274 -0.0306 -0.2083  0.3208
   67CHL1  H22A 7421   5.441   0.434   9.255 -0.1817 -0.4061  0.6702
   67CHL1  H22B 7422   5.282   0.459   9.290 -0.8306  0.2085 -2.4480
   67CHL1   C23 7423   5.357   0.601   9.141 -0.0091  0.2558 -0.9063
   67CHL1  H23A 7424   5.272   0.673   9.148 -0.3228  0.0553 -2.5221
   67CHL1  H23B 7425   5.456   0.652   9.141  0.7322 -1.1366 -0.3573
   67CHL1   C24 7426   5.360   0.505   9.017  0.0544 -0.3778 -0.5484
   67CHL1  H24A 7427   5.439   0.427   9.022 -0.9896 -1.3188  1.8210
   67CHL1  H24B 7428   5.263   0.452   9.006 -0.2092 -0.5889  2.4909
   67CHL1   C25 7429   5.380   0.583   8.877  0.5183 -0.3396 -0.7029
   67CHL1   H25 7430   5.472   0.641   8.895  0.3637 -0.9341  2.2349
   67CHL1   C26 7431   5.402   0.475   8.769  0.3155  0.2206  0.4317
   67CHL1  H26A 7432   5.492   0.414   8.793  1.1283  0.9417 -0.7098
   67CHL1  H26B 7433   5.315   0.407   8.776 -0.7697  1.4220 -1.0644
   67CHL1  H26C 7434   5.422   0.515   8.667  2.7582  0.3046  0.8950
   67CHL1   C27 7435   5.256   0.678   8.855  0.0480 -0.3895  0.1672
   67CHL1  H27A 7436   5.169   0.614   8.831 -1.5017  1.2196  1.4424
   67CHL1  H27B 7437   5.230   0.741   8.942 -3.0073 -2.7922  1.0639
   67CHL1  H27C 7438   5.273   0.745   8.768 -0.0905 -0.1677  0.3122
   68CHL1    C3 7439   3.444   1.034  10.180 -0.4397 -0.5659  0.9832
   68CHL1    H3 7440   3.537   1.023  10.121 -1.3433  0.5299 -0.6911
   68CHL1    O3 7441   3.476   1.055  10.319  0.3009 -0.6437  0.0582
   68CHL1   H3' 7442   3.498   1.147  10.337  1.8469 -1.1986  1.0831
   68CHL1    C4 7443   3.364   1.151  10.129  0.3931 -0.1730  0.2183
   68CHL1   H4A 7444   3.269   1.151  10.186 -0.5523 -4.2239 -1.1806
   68CHL1   H4B 7445   3.413   1.250  10.141  3.2595 -1.8676  2.9478
   68CHL1    C5 7446   3.328   1.142   9.978 -0.1474  0.0676  0.5635
   68CHL1    C6 7447   3.358   1.230   9.885  0.1965 -0.4783 -0.0636
   68CHL1    H6 7448   3.414   1.320   9.914  1.3563 -1.3445  0.4239
   68CHL1    C7 7449   3.324   1.221   9.735 -0.6102 -0.0560 -0.3559
   68CHL1   H7A 7450   3.281   1.313   9.689 -2.6682 -0.3974  0.8276
   68CHL1   H7B 7451   3.417   1.204   9.677  1.0715  1.3173  1.8444
   68CHL1    C8 7452   3.225   1.103   9.699  0.1552  0.0789 -1.4947
   68CHL1    H8 7453   3.122   1.132   9.728  0.1928 -0.1261 -1.1540
   68CHL1   C14 7454   3.229   1.071   9.553  0.5691  0.2896 -0.0778
   68CHL1   H14 7455   3.330   1.030   9.530  1.8804  2.4598  1.6886
   68CHL1   C15 7456   3.193   1.188   9.455  0.2923 -0.3690 -0.0337
   68CHL1  H15A 7457   3.107   1.238   9.505 -0.5076 -0.9768 -0.7929
   68CHL1  H15B 7458   3.281   1.255   9.441 -0.3964  0.0989 -2.3242
   68CHL1   C16 7459   3.157   1.113   9.321 -0.5325  0.5001  0.4426
   68CHL1  H16A 7460   3.060   1.145   9.279  1.1135  1.9149 -2.4035
   68CHL1  H16B 7461   3.235   1.144   9.248 -0.3428 -1.6176 -0.2965
   68CHL1   C17 7462   3.164   0.957   9.352  0.2247  0.1477 -0.0377
   68CHL1   H17 7463   3.270   0.930   9.332  0.2194  0.1032 -0.0058
   68CHL1   C13 7464   3.137   0.954   9.509 -0.5848 -0.0449  0.6979
   68CHL1   C18 7465   2.987   0.984   9.544 -0.5631 -0.3691  0.1287
   68CHL1  H18A 7466   2.918   0.900   9.524  0.9428 -1.5689 -0.1497
   68CHL1  H18B 7467   2.986   1.001   9.654  2.5716  0.6375  0.0680
   68CHL1  H18C 7468   2.953   1.080   9.501 -0.5407  0.2331  1.4383
   68CHL1   C12 7469   3.194   0.830   9.586 -0.1014 -0.4641  0.2768
   68CHL1  H12A 7470   3.119   0.749   9.569 -0.4965  0.0866 -0.6441
   68CHL1  H12B 7471   3.294   0.799   9.549 -0.8242  0.2837 -2.4593
   68CHL1   C11 7472   3.192   0.857   9.741  0.7684  0.9052  1.0849
   68CHL1  H11A 7473   3.085   0.867   9.770  0.8476 -0.5354  1.9091
   68CHL1  H11B 7474   3.221   0.764   9.794  2.1077  1.0749  0.6522
   68CHL1    C9 7475   3.266   0.980   9.794 -0.0749  0.5493  0.1788
   68CHL1    H9 7476   3.373   0.969   9.768  0.1262  0.7785  0.8986
   68CHL1   C10 7477   3.260   1.003   9.948  0.6992  0.6157  0.5249
   68CHL1   C19 7478   3.114   1.014   9.997 -0.7837 -0.4011  1.9282
   68CHL1  H19A 7479   3.079   1.098   9.933  0.5598 -0.4164  1.1606
   68CHL1  H19B 7480   3.069   0.918   9.966  1.6914 -0.6287 -1.1671
   68CHL1  H19C 7481   3.083   1.047  10.099 -0.1856  1.1175  1.6394
   68CHL1    C1 7482   3.340   0.887  10.013  0.8962  0.5655 -0.0451
   68CHL1   H1A 7483   3.295   0.786  10.000  0.7179  0.3047  2.3875
   68CHL1   H1B 7484   3.437   0.884   9.959  1.5262  0.2402  1.1036
   68CHL1    C2 7485   3.370   0.901  10.164  0.1841  0.3872 -0.6511
   68CHL1   H2A 7486   3.439   0.818  10.192  0.5070  1.0508  0.5443
   68CHL1   H2B 7487   3.287   0.900  10.237 -1.7975 -0.0205 -2.8396
   68CHL1   C20 7488   3.075   0.854   9.273 -0.0065  0.1706 -0.3138
   68CHL1   H20 7489   2.971   0.863   9.310  0.6826 -2.6849  2.5802
   68CHL1   C21 7490   3.127   0.710   9.292  0.7199 -0.2634 -0.2588
   68CHL1  H21A 7491   3.228   0.688   9.252  1.3233  1.3731  0.3005
   68CHL1  H21B 7492   3.056   0.649   9.233 -3.3263  1.3701  2.6658
   68CHL1  H21C 7493   3.116   0.666   9.394  0.1894  0.8317  0.1684
   68CHL1   C22 7494   3.074   0.878   9.118  0.3054  0.0782  0.0436
   68CHL1  H22A 7495   3.028   0.978   9.108 -0.6185 -0.5298 -1.9813
   68CHL1  H22B 7496   3.178   0.885   9.082 -0.0686  2.2137 -0.6543
   68CHL1   C23 7497   2.991   0.793   9.029  0.7396  0.3484 -0.3210
   68CHL1  H23A 7498   3.020   0.686   9.034  1.9795  0.6129 -1.5746
   68CHL1  H23B 7499   2.887   0.800   9.067  1.1046  1.8754  0.4392
   68CHL1   C24 7500   2.978   0.825   8.877  0.6334  0.1963 -0.0274
   68CHL1  H24A 7501   2.934   0.926   8.869 -1.4411 -0.6581  0.3073
   68CHL1  H24B 7502   3.077   0.833   8.826  0.5240 -2.0832 -0.6538
   68CHL1   C25 7503   2.887   0.729   8.793  0.6314  0.1998  0.2726
   68CHL1   H25 7504   2.783   0.742   8.829  1.1536 -0.9399  2.2729
   68CHL1   C26 7505   2.878   0.756   8.642  0.0198  0.3383  0.1918
   68CHL1  H26A 7506   2.856   0.862   8.615  0.4002  0.1351 -0.9236
   68CHL1  H26B 7507   2.975   0.738   8.590 -2.0637 -2.9437 -2.7526
   68CHL1  H26C 7508   2.796   0.697   8.597  0.4526  1.7660 -2.5800
   68CHL1   C27 7509   2.934   0.582   8.810  0.5074  1.0314  0.1937
   68CHL1  H27A 7510   2.877   0.514   8.743  0.9106 -0.5730  1.4523
   68CHL1  H27B 7511   3.044   0.583   8.794  0.6548  1.4177  1.2200
   68CHL1  H27C 7512   2.921   0.542   8.912 -2.7685  1.9663  0.1999
   69CHL1    C3 7513   2.064   5.643   6.909  0.0458  0.7307  0.0990
   69CHL1    H3 7514   1.955   5.636   6.928  0.4843 -0.7382  2.2143
   69CHL1    O3 7515   2.083   5.646   6.766  0.0191 -0.8130  0.4083
   69CHL1   H3' 7516   2.128   5.561   6.763  0.5630 -0.5523  0.9859
   69CHL1    C4 7517   2.130   5.763   6.970 -0.0894 -0.4090 -0.3896
   69CHL1   H4A 7518   2.232   5.770   6.928  0.9733 -0.3749  2.1084
   69CHL1   H4B 7519   2.072   5.853   6.943 -1.9206 -0.8624  1.7977
   69CHL1    C5 7520   2.140   5.752   7.123 -0.2310  0.7008  0.6314
   69CHL1    C6 7521   2.075   5.841   7.200  0.4109 -0.3055  1.1869
   69CHL1    H6 7522   2.021   5.926   7.156 -1.3130 -2.0049 -0.0612
   69CHL1    C7 7523   2.096   5.840   7.347  0.2443 -0.3198 -0.4733
   69CHL1   H7A 7524   2.114   5.943   7.385 -0.6506  0.1607 -1.3159
   69CHL1   H7B 7525   1.994   5.819   7.386  0.3878  1.5317  0.9704
   69CHL1    C8 7526   2.191   5.736   7.407  0.8078 -0.6175 -0.8392
   69CHL1    H8 7527   2.296   5.769   7.398  1.2659 -1.7523  0.2174
   69CHL1   C14 7528   2.158   5.709   7.554 -0.4268  0.1342  0.5293
   69CHL1   H14 7529   2.056   5.669   7.568  0.2898 -0.8709  3.2517
   69CHL1   C15 7530   2.160   5.825   7.650 -0.4145  0.0535 -0.8565
   69CHL1  H15A 7531   2.247   5.894   7.636  0.4027 -0.8437 -0.3004
   69CHL1  H15B 7532   2.066   5.882   7.644 -1.1854 -1.2873 -1.9589
   69CHL1   C16 7533   2.177   5.759   7.788 -0.1738  0.1108 -0.1081
   69CHL1  H16A 7534   2.268   5.801   7.836  1.3397 -1.7569 -1.2472
   69CHL1  H16B 7535   2.094   5.783   7.857 -0.3845  0.8816 -0.6255
   69CHL1   C17 7536   2.195   5.607   7.764  0.1116  0.6565 -0.7531
   69CHL1   H17 7537   2.098   5.553   7.766  0.2874  0.3330 -1.0791
   69CHL1   C13 7538   2.249   5.599   7.617  0.7908  0.5626  0.3945
   69CHL1   C18 7539   2.399   5.639   7.608 -0.2169 -0.2131 -0.8060
   69CHL1  H18A 7540   2.464   5.561   7.654  1.4969  1.3278 -0.5571
   69CHL1  H18B 7541   2.431   5.660   7.504 -0.0336  2.6697 -0.1958
   69CHL1  H18C 7542   2.418   5.738   7.653 -1.4064  1.0566 -3.0492
   69CHL1   C12 7543   2.229   5.471   7.541 -0.0587 -0.3418 -0.2561
   69CHL1  H12A 7544   2.296   5.397   7.590  1.8155  2.3399  1.3298
   69CHL1  H12B 7545   2.122   5.443   7.549 -0.5894  1.4306 -0.9286
   69CHL1   C11 7546   2.261   5.482   7.393 -0.5064  0.8084 -0.4422
   69CHL1  H11A 7547   2.370   5.502   7.383 -0.0959 -1.6045 -0.9455
   69CHL1  H11B 7548   2.236   5.392   7.333  2.6924 -0.3065 -0.2133
   69CHL1    C9 7549   2.181   5.601   7.330 -0.6494 -0.1374  0.5950
   69CHL1    H9 7550   2.073   5.585   7.349 -0.4079 -1.1432  1.1454
   69CHL1   C10 7551   2.199   5.621   7.173  0.4637  0.6453 -0.7862
   69CHL1   C19 7552   2.355   5.645   7.153  0.2092 -0.5970 -0.6409
   69CHL1  H19A 7553   2.388   5.708   7.239  0.5163 -2.9411  0.9996
   69CHL1  H19B 7554   2.406   5.546   7.151  1.2559 -0.0733 -0.4632
   69CHL1  H19C 7555   2.368   5.700   7.057  0.1809 -0.3591 -0.5090
   69CHL1    C1 7556   2.145   5.494   7.099 -0.4942 -0.4202 -0.5148
   69CHL1   H1A 7557   2.222   5.415   7.107  0.9457  1.0604  0.5426
   69CHL1   H1B 7558   2.053   5.457   7.148 -0.3088 -1.8514 -1.2277
   69CHL1    C2 7559   2.138   5.511   6.942  0.6766  0.6230 -0.3118
   69CHL1   H2A 7560   2.084   5.424   6.898  0.6236  2.0882 -3.1920
   69CHL1   H2B 7561   2.240   5.515   6.898  1.3067  0.6391  1.1228
   69CHL1   C20 7562   2.276   5.539   7.875 -0.2485  0.0983 -0.4417
   69CHL1   H20 7563   2.371   5.597   7.876 -0.9807  1.3110  0.5770
   69CHL1   C21 7564   2.307   5.392   7.846  0.2029  0.5237  0.0496
   69CHL1  H21A 7565   2.398   5.369   7.787 -1.1828 -0.2357 -1.8718
   69CHL1  H21B 7566   2.216   5.353   7.796 -0.1270  0.0917  0.9880
   69CHL1  H21C 7567   2.314   5.329   7.937  0.3520  0.9254  0.3182
   69CHL1   C22 7568   2.210   5.547   8.025 -0.2675  0.9788  0.7544
   69CHL1  H22A 7569   2.151   5.642   8.024 -2.1748 -0.1309 -2.9014
   69CHL1  H22B 7570   2.149   5.458   8.049  2.0453 -0.9990 -0.5242
   69CHL1   C23 7571   2.315   5.544   8.141 -0.3593  0.6269 -0.4985
   69CHL1  H23A 7572   2.367   5.447   8.151 -2.0636 -0.2692 -0.1110
   69CHL1  H23B 7573   2.393   5.620   8.120  2.9739 -2.6522 -0.4752
   69CHL1   C24 7574   2.259   5.563   8.284  0.5189  0.0870  0.3104
   69CHL1  H24A 7575   2.195   5.654   8.275 -1.9176 -1.6188 -0.1019
   69CHL1  H24B 7576   2.183   5.485   8.304  0.0780  0.4928  0.2274
   69CHL1   C25 7577   2.363   5.572   8.395  0.1308  0.5069 -0.3673
   69CHL1   H25 7578   2.443   5.648   8.387 -1.9388  2.6917 -0.7458
   69CHL1   C26 7579   2.289   5.624   8.522 -0.0023  0.6683  0.2904
   69CHL1  H26A 7580   2.238   5.721   8.504  1.0800  0.9282 -1.4770
   69CHL1  H26B 7581   2.200   5.564   8.548 -1.0794  1.3784 -1.6892
   69CHL1  H26C 7582   2.347   5.617   8.617  0.6359 -3.8749 -0.3162
   69CHL1   C27 7583   2.429   5.431   8.420  0.1208 -0.0757 -0.3796
   69CHL1  H27A 7584   2.488   5.385   8.337  0.2854 -0.3687 -0.1005
   69CHL1  H27B 7585   2.502   5.441   8.503  0.2909 -1.5304 -0.3335
   69CHL1  H27C 7586   2.347   5.357   8.437  1.5132 -2.0524 -2.0028
   70CHL1    C3 7587   1.496   3.549   7.188 -0.0757  0.7479  0.3999
   70CHL1    H3 7588   1.579   3.624   7.185  1.0970 -0.5146  1.0073
   70CHL1    O3 7589   1.443   3.538   7.053 -0.1086  0.3411 -0.5855
   70CHL1   H3' 7590   1.379   3.467   7.063  3.1952 -2.5785  1.1120
   70CHL1    C4 7591   1.549   3.417   7.230  0.0805 -0.2170  0.5783
   70CHL1   H4A 7592   1.465   3.345   7.222 -1.0895  0.6754  3.7898
   70CHL1   H4B 7593   1.626   3.395   7.154 -1.1009  2.0089 -1.3092
   70CHL1    C5 7594   1.608   3.409   7.365 -0.1623  0.5202 -1.0520
   70CHL1    C6 7595   1.729   3.356   7.387 -0.1647 -0.0887 -0.1539
   70CHL1    H6 7596   1.782   3.300   7.309  1.1225  1.1738 -0.2107
   70CHL1    C7 7597   1.794   3.356   7.523 -0.0390 -0.2927  0.5459
   70CHL1   H7A 7598   1.826   3.253   7.549  1.2310 -0.0363  0.0650
   70CHL1   H7B 7599   1.875   3.432   7.529  0.5726 -0.9609  0.8199
   70CHL1    C8 7600   1.697   3.407   7.640 -0.9981 -0.1229  0.4342
   70CHL1    H8 7601   1.627   3.323   7.661 -1.3131 -0.0302 -0.2121
   70CHL1   C14 7602   1.788   3.434   7.759  0.4983 -0.2925  0.1464
   70CHL1   H14 7603   1.845   3.527   7.739 -0.6128  0.4332  0.3126
   70CHL1   C15 7604   1.887   3.327   7.811 -0.6439  0.4106 -0.4968
   70CHL1  H15A 7605   1.832   3.230   7.819  1.5410 -0.6315  3.7928
   70CHL1  H15B 7606   1.982   3.320   7.755  1.2047  3.1880  2.1530
   70CHL1   C16 7607   1.923   3.377   7.948 -0.4927  0.5944  0.0991
   70CHL1  H16A 7608   1.923   3.303   8.030 -1.1982 -0.5134 -0.8859
   70CHL1  H16B 7609   2.023   3.423   7.933 -1.1433  1.3485 -2.1688
   70CHL1   C17 7610   1.821   3.489   7.990  0.2043 -0.3134  0.1356
   70CHL1   H17 7611   1.882   3.580   7.968 -1.5718  1.0408  0.6240
   70CHL1   C13 7612   1.710   3.479   7.880  0.4806  0.3617 -0.2631
   70CHL1   C18 7613   1.617   3.361   7.922 -0.2311 -0.5956 -0.2112
   70CHL1  H18A 7614   1.670   3.267   7.948  1.3426  0.4859  0.5345
   70CHL1  H18B 7615   1.554   3.387   8.010  1.3463 -0.7005  0.9575
   70CHL1  H18C 7616   1.549   3.331   7.838  1.7080  0.0092 -2.0379
   70CHL1   C12 7617   1.639   3.607   7.836  0.0318 -0.4298  0.2910
   70CHL1  H12A 7618   1.582   3.639   7.926  0.4112  0.8218  0.0885
   70CHL1  H12B 7619   1.704   3.689   7.800 -0.7971 -0.0390 -0.3127
   70CHL1   C11 7620   1.551   3.581   7.707  0.2368 -0.1550 -0.7601
   70CHL1  H11A 7621   1.461   3.523   7.738  0.1204  0.6198  0.3918
   70CHL1  H11B 7622   1.508   3.679   7.676 -2.1283 -1.2206 -0.9592
   70CHL1    C9 7623   1.621   3.520   7.589  0.2995  0.3749 -0.5737
   70CHL1    H9 7624   1.703   3.587   7.555  0.4443 -0.0872 -1.1571
   70CHL1   C10 7625   1.526   3.485   7.470 -0.0660 -0.8265  0.4693
   70CHL1   C19 7626   1.417   3.392   7.525 -0.5882  0.0105 -0.3722
   70CHL1  H19A 7627   1.359   3.343   7.443  0.6611  0.6473 -1.6686
   70CHL1  H19B 7628   1.459   3.302   7.575 -1.6051  0.4229  1.2656
   70CHL1  H19C 7629   1.339   3.429   7.595  0.7312 -1.6897  2.0701
   70CHL1    C1 7630   1.455   3.616   7.415  0.4503  0.7406 -0.1988
   70CHL1   H1A 7631   1.403   3.658   7.504  0.7089 -1.9168  1.2910
   70CHL1   H1B 7632   1.539   3.681   7.382  0.3994 -0.4493 -2.7805
   70CHL1    C2 7633   1.385   3.599   7.284  0.1755  0.6872 -0.1830
   70CHL1   H2A 7634   1.355   3.703   7.257 -0.0722  0.5351 -0.4973
   70CHL1   H2B 7635   1.309   3.519   7.290  1.3424 -0.2747  2.1107
   70CHL1   C20 7636   1.790   3.495   8.139  0.0970 -0.0282 -0.2937
   70CHL1   H20 7637   1.761   3.394   8.174  0.1329 -0.4352 -1.4462
   70CHL1   C21 7638   1.677   3.591   8.164 -0.8332  0.0869  0.0102
   70CHL1  H21A 7639   1.676   3.619   8.271 -1.8378 -1.5256  0.4373
   70CHL1  H21B 7640   1.577   3.553   8.133 -0.3542  1.2427 -3.1220
   70CHL1  H21C 7641   1.699   3.686   8.111 -0.3930 -0.6664 -1.1753
   70CHL1   C22 7642   1.914   3.541   8.222 -0.3924 -0.1446 -0.0541
   70CHL1  H22A 7643   2.010   3.506   8.180 -0.0433  1.8694 -0.9880
   70CHL1  H22B 7644   1.930   3.650   8.205 -0.7331 -0.0932 -0.0418
   70CHL1   C23 7645   1.915   3.512   8.372 -0.4012 -0.3023 -1.0280
   70CHL1  H23A 7646   1.824   3.564   8.411  0.1737 -0.3073  0.3597
   70CHL1  H23B 7647   1.894   3.406   8.400 -3.7768  0.2730 -1.1759
   70CHL1   C24 7648   2.044   3.554   8.439  0.2142  0.5416 -0.3993
   70CHL1  H24A 7649   2.127   3.497   8.393 -0.9105 -1.6805  0.2259
   70CHL1  H24B 7650   2.060   3.660   8.411 -0.9175  0.6554 -0.6528
   70CHL1   C25 7651   2.052   3.547   8.595 -0.6965 -0.1178 -0.0689
   70CHL1   H25 7652   1.962   3.605   8.624 -1.0058 -1.8979  2.7760
   70CHL1   C26 7653   2.028   3.411   8.653 -0.1578  0.4587 -0.1160
   70CHL1  H26A 7654   2.080   3.329   8.599  0.8703 -0.1205  1.7184
   70CHL1  H26B 7655   2.061   3.404   8.759 -1.7099  2.5673  0.5358
   70CHL1  H26C 7656   1.918   3.398   8.663 -0.4047  1.0872 -1.9280
   70CHL1   C27 7657   2.181   3.610   8.644  0.0458 -0.6587 -0.6230
   70CHL1  H27A 7658   2.190   3.589   8.753  1.2184  1.2258 -0.3287
   70CHL1  H27B 7659   2.273   3.582   8.588  0.1721  1.5344 -1.5797
   70CHL1  H27C 7660   2.181   3.721   8.635 -0.4481 -0.3854  2.1359
   71CHL1    C3 7661   1.099   5.097   6.726 -0.1959  0.6528 -0.6000
   71CHL1    H3 7662   1.067   4.991   6.716  2.0785 -0.2412  1.2248
   71CHL1    O3 7663   1.085   5.168   6.604 -0.0792  0.1527 -0.1948
   71CHL1   H3' 7664   1.137   5.248   6.621 -0.0539 -0.2362  1.6673
   71CHL1    C4 7665   1.006   5.160   6.836 -0.5997  0.1381 -0.5875
   71CHL1   H4A 7666   1.013   5.271   6.833 -2.4577  0.3032  0.5064
   71CHL1   H4B 7667   0.901   5.148   6.803 -1.1817  0.9158  0.9420
   71CHL1    C5 7668   1.031   5.108   6.973  0.7012 -0.0581 -0.7456
   71CHL1    C6 7669   0.933   5.060   7.045 -0.1895 -0.3888 -0.6921
   71CHL1    H6 7670   0.829   5.067   7.011 -0.3480  0.4001 -0.0681
   71CHL1    C7 7671   0.938   4.997   7.182 -0.6099 -0.3253  0.3379
   71CHL1   H7A 7672   0.857   5.035   7.248 -1.8697 -1.6060 -0.4418
   71CHL1   H7B 7673   0.924   4.887   7.175  1.6988 -0.4946 -2.9474
   71CHL1    C8 7674   1.076   5.031   7.257  0.3644  0.1964  0.4066
   71CHL1    H8 7675   1.084   5.138   7.286 -0.5538 -0.1608  2.0265
   71CHL1   C14 7676   1.091   4.952   7.385  1.0053  0.3284  0.1915
   71CHL1   H14 7677   1.105   4.844   7.362  0.4603 -0.1007  1.8139
   71CHL1   C15 7678   0.988   4.949   7.499 -0.1010 -0.1295 -0.2449
   71CHL1  H15A 7679   0.955   5.051   7.529  4.0773  1.2368 -0.0213
   71CHL1  H15B 7680   0.911   4.873   7.475 -1.0268  1.0584 -1.0894
   71CHL1   C16 7681   1.069   4.912   7.624  0.0557  0.2700  0.6544
   71CHL1  H16A 7682   1.067   4.991   7.701  1.0627 -0.2321  1.2014
   71CHL1  H16B 7683   1.018   4.826   7.671 -3.9561  2.0489 -0.2650
   71CHL1   C17 7684   1.215   4.890   7.577  0.3052  0.8275  0.7251
   71CHL1   H17 7685   1.212   4.784   7.545  1.4058  1.1809 -0.5704
   71CHL1   C13 7686   1.232   4.976   7.453  0.2505  0.1213  0.2676
   71CHL1   C18 7687   1.254   5.121   7.506  0.4895 -0.5755  0.2136
   71CHL1  H18A 7688   1.363   5.122   7.531  0.4561  2.6259  0.4168
   71CHL1  H18B 7689   1.249   5.197   7.425  1.0753 -1.9609 -1.1423
   71CHL1  H18C 7690   1.192   5.160   7.589  2.9497  1.5817  1.1209
   71CHL1   C12 7691   1.344   4.932   7.356 -0.6322 -0.1084 -1.1008
   71CHL1  H12A 7692   1.449   4.935   7.393 -1.7540 -1.7223  2.3828
   71CHL1  H12B 7693   1.327   4.826   7.327 -1.6387 -0.0444 -0.7387
   71CHL1   C11 7694   1.331   5.018   7.225 -0.1311 -0.3768 -0.1805
   71CHL1  H11A 7695   1.365   5.120   7.254  0.3843 -0.5521 -0.1784
   71CHL1  H11B 7696   1.408   4.984   7.153 -1.5135  0.0340 -1.8817
   71CHL1    C9 7697   1.195   5.008   7.158 -0.1689  0.3739  0.3404
   71CHL1    H9 7698   1.177   4.903   7.127  1.8709  0.2288 -0.4239
   71CHL1   C10 7699   1.177   5.102   7.023  0.4731  0.3201 -0.2683
   71CHL1   C19 7700   1.237   5.242   7.043 -0.0830 -0.5659 -0.3085
   71CHL1  H19A 7701   1.209   5.317   6.966  1.7517  0.1746 -0.2847
   71CHL1  H19B 7702   1.202   5.277   7.142 -2.0805  1.5420 -1.7101
   71CHL1  H19C 7703   1.346   5.223   7.052  0.4078  1.7113 -1.1307
   71CHL1    C1 7704   1.255   5.026   6.914 -0.3804 -0.1127  0.0609
   71CHL1   H1A 7705   1.360   5.005   6.944  1.1685  2.0279 -3.4247
   71CHL1   H1B 7706   1.211   4.925   6.900 -0.1495  0.1718 -3.2850
   71CHL1    C2 7707   1.245   5.076   6.766  0.3817  0.2965 -0.0501
   71CHL1   H2A 7708   1.292   5.006   6.694 -0.0005 -1.8138  1.6967
   71CHL1   H2B 7709   1.304   5.169   6.749  2.1176 -0.9152 -0.7945
   71CHL1   C20 7710   1.315   4.909   7.697 -0.0795  0.0636 -0.3997
   71CHL1   H20 7711   1.357   5.011   7.690  0.5076 -0.0151  1.6356
   71CHL1   C21 7712   1.436   4.809   7.682  0.0454  0.6525  0.3777
   71CHL1  H21A 7713   1.390   4.708   7.680 -1.7076  1.4319 -0.8585
   71CHL1  H21B 7714   1.514   4.814   7.760  3.0717 -1.8710 -2.3777
   71CHL1  H21C 7715   1.481   4.821   7.581  2.3250  0.3451  1.3404
   71CHL1   C22 7716   1.253   4.906   7.843  0.4043 -0.4503 -0.0179
   71CHL1  H22A 7717   1.201   5.002   7.863 -0.5855 -1.4167  2.1742
   71CHL1  H22B 7718   1.183   4.820   7.841 -0.0365 -0.0704 -2.3438
   71CHL1   C23 7719   1.362   4.905   7.955  0.6006  0.2530  0.6640
   71CHL1  H23A 7720   1.414   4.808   7.938 -0.8149 -0.5943  1.0327
   71CHL1  H23B 7721   1.423   4.995   7.934 -0.4379  0.5283 -1.3242
   71CHL1   C24 7722   1.308   4.900   8.095 -0.1812  0.0093  0.5848
   71CHL1  H24A 7723   1.264   4.999   8.119 -0.2033  0.0162  0.5138
   71CHL1  H24B 7724   1.219   4.834   8.099  0.4619 -0.8387  1.3653
   71CHL1   C25 7725   1.421   4.868   8.193 -0.1137  0.1170  0.0807
   71CHL1   H25 7726   1.457   4.771   8.154 -3.0819 -0.4834 -1.3266
   71CHL1   C26 7727   1.547   4.959   8.194 -0.0281 -0.2698  0.3070
   71CHL1  H26A 7728   1.511   5.052   8.242  0.4360  0.3104 -0.4545
   71CHL1  H26B 7729   1.629   4.920   8.257 -0.4696 -0.4265  0.7881
   71CHL1  H26C 7730   1.583   4.991   8.094 -1.3216  3.8409  1.0727
   71CHL1   C27 7731   1.362   4.849   8.335  0.4543  0.1449 -0.0128
   71CHL1  H27A 7732   1.338   4.950   8.375 -0.4679 -0.2458  0.4336
   71CHL1  H27B 7733   1.274   4.781   8.330 -1.5180  2.6120  0.0376
   71CHL1  H27C 7734   1.433   4.795   8.401 -2.4889 -2.9258  0.7765
   72CHL1    C3 7735   1.858   3.942   7.287 -0.2838  0.0219  0.1027
   72CHL1    H3 7736   1.968   3.927   7.283 -0.0487  1.6019  0.4194
   72CHL1    O3 7737   1.796   3.917   7.161 -0.4695 -0.0345  0.0214
   72CHL1   H3' 7738   1.705   3.943   7.181 -0.5504 -1.5132  1.6445
   72CHL1    C4 7739   1.808   3.842   7.393 -0.3581  0.2491 -0.6185
   72CHL1   H4A 7740   1.697   3.839   7.392 -0.3495 -0.1474 -0.3814
   72CHL1   H4B 7741   1.842   3.740   7.363 -2.1912 -0.5168 -0.1496
   72CHL1    C5 7742   1.866   3.870   7.527  1.3258 -0.6551  0.1588
   72CHL1    C6 7743   1.937   3.776   7.593 -0.4575 -0.8835 -0.4137
   72CHL1    H6 7744   1.947   3.677   7.548  0.7572 -1.2925  0.7338
   72CHL1    C7 7745   1.988   3.789   7.736  0.7709 -0.1642 -0.2182
   72CHL1   H7A 7746   1.952   3.700   7.793 -2.4633  0.9112 -0.4950
   72CHL1   H7B 7747   2.098   3.803   7.738  0.6010  1.6614 -2.3904
   72CHL1    C8 7748   1.932   3.917   7.803 -0.1734 -0.0794 -0.8357
   72CHL1    H8 7749   1.826   3.892   7.826 -0.4181  1.5421 -0.1039
   72CHL1   C14 7750   2.014   3.943   7.927  0.1714  0.0655  0.4640
   72CHL1   H14 7751   2.117   3.958   7.889  0.0756  0.4344  0.3503
   72CHL1   C15 7752   2.026   3.828   8.027  0.3693 -0.7989  0.4118
   72CHL1  H15A 7753   1.930   3.774   8.044 -0.4162  0.2983 -0.4456
   72CHL1  H15B 7754   2.105   3.760   7.987 -0.5607 -2.1322  0.7900
   72CHL1   C16 7755   2.085   3.902   8.150  0.0856 -0.3196 -0.5629
   72CHL1  H16A 7756   2.015   3.869   8.229 -0.0784  0.6746 -0.2933
   72CHL1  H16B 7757   2.191   3.874   8.167  0.5870  1.8081 -0.0610
   72CHL1   C17 7758   2.059   4.050   8.124  0.5381 -0.6450  0.8046
   72CHL1   H17 7759   2.155   4.087   8.080  0.2261 -0.5104  0.2279
   72CHL1   C13 7760   1.968   4.066   8.003 -0.0130 -0.2754 -0.2484
   72CHL1   C18 7761   1.822   4.054   8.053  0.2212 -0.6503  0.3317
   72CHL1  H18A 7762   1.813   3.969   8.125  1.5632  0.2305  1.5619
   72CHL1  H18B 7763   1.785   4.149   8.097  0.0871 -1.2663  1.5742
   72CHL1  H18C 7764   1.753   4.021   7.973 -0.0848 -0.6208  0.5808
   72CHL1   C12 7765   1.981   4.183   7.911 -0.0805  0.2125 -0.0142
   72CHL1  H12A 7766   1.929   4.270   7.958 -2.0082 -0.8658 -0.0952
   72CHL1  H12B 7767   2.087   4.203   7.883  0.4511 -0.1446  1.6726
   72CHL1   C11 7768   1.896   4.164   7.784  0.4953 -0.5447 -0.0297
   72CHL1  H11A 7769   1.789   4.172   7.811  0.1927 -2.6336 -0.4868
   72CHL1  H11B 7770   1.915   4.253   7.721 -1.1313 -0.2287 -0.0907
   72CHL1    C9 7771   1.934   4.032   7.710  0.2805 -1.1079 -0.4557
   72CHL1    H9 7772   2.041   4.039   7.680  0.0585  3.1229 -0.5643
   72CHL1   C10 7773   1.848   4.008   7.583 -0.0603  0.7662 -0.2475
   72CHL1   C19 7774   1.696   4.018   7.609 -1.1142  0.1939 -0.3966
   72CHL1  H19A 7775   1.655   3.964   7.697 -0.1642  1.3022  0.7456
   72CHL1  H19B 7776   1.654   4.118   7.634  0.5548  0.2799  2.1724
   72CHL1  H19C 7777   1.638   4.004   7.515 -1.5629  1.8149 -0.3856
   72CHL1    C1 7778   1.890   4.109   7.472  0.2537 -0.9957 -0.1707
   72CHL1   H1A 7779   1.859   4.210   7.508  0.0731 -0.8509 -0.7303
   72CHL1   H1B 7780   2.000   4.102   7.466  0.4136 -1.2402  2.3117
   72CHL1    C2 7781   1.833   4.086   7.325 -0.4288 -0.1681 -0.1024
   72CHL1   H2A 7782   1.890   4.142   7.247  0.8430  2.3880  2.5520
   72CHL1   H2B 7783   1.728   4.121   7.327 -1.3870 -2.9913  0.7533
   72CHL1   C20 7784   2.021   4.126   8.252  0.7170 -0.0997  0.3413
   72CHL1   H20 7785   1.927   4.081   8.290  1.0137 -1.6982 -0.7534
   72CHL1   C21 7786   2.021   4.279   8.235 -0.6240 -0.1088 -0.1091
   72CHL1  H21A 7787   2.016   4.328   8.335  1.9211  0.3888 -0.1863
   72CHL1  H21B 7788   1.937   4.314   8.171 -0.4611 -0.5556 -0.5715
   72CHL1  H21C 7789   2.114   4.308   8.182 -0.5759 -0.7915 -0.4013
   72CHL1   C22 7790   2.129   4.101   8.358 -0.5853 -0.5240  0.6119
   72CHL1  H22A 7791   2.206   4.028   8.325  0.5602  0.4561  1.0806
   72CHL1  H22B 7792   2.195   4.191   8.364 -1.1612  0.0744 -1.4183
   72CHL1   C23 7793   2.084   4.054   8.499 -0.1384  0.7214 -0.0885
   72CHL1  H23A 7794   2.024   3.962   8.484  0.6326  0.1884  0.1276
   72CHL1  H23B 7795   2.173   4.017   8.554 -1.0219  1.8119  2.1500
   72CHL1   C24 7796   2.008   4.163   8.583 -0.4506 -0.0043  0.8121
   72CHL1  H24A 7797   2.076   4.251   8.585 -0.9739  0.4502 -0.5476
   72CHL1  H24B 7798   1.908   4.188   8.542 -0.7587  1.3679  2.3561
   72CHL1   C25 7799   1.986   4.123   8.728 -0.2757  0.4079  0.6860
   72CHL1   H25 7800   2.079   4.083   8.775 -0.2431  1.5997  1.6676
   72CHL1   C26 7801   1.955   4.252   8.817 -0.1341  0.1000 -0.7546
   72CHL1  H26A 7802   2.041   4.322   8.824 -0.7300  0.7017  0.7083
   72CHL1  H26B 7803   1.876   4.310   8.764 -0.3364  2.2086  1.8009
   72CHL1  H26C 7804   1.916   4.230   8.918 -0.4051  1.9864 -0.4283
   72CHL1   C27 7805   1.880   4.011   8.745 -0.2023 -0.8258 -0.1462
   72CHL1  H27A 7806   1.782   4.054   8.717  0.2595 -0.7583 -1.6882
   72CHL1  H27B 7807   1.891   3.914   8.692  1.5956 -0.3605 -0.6466
   72CHL1  H27C 7808   1.875   3.989   8.854  2.0573 -4.1132 -0.6180
   73CHL1    C3 7809   1.570   6.734   6.785 -0.2134 -0.4464 -0.3357
   73CHL1    H3 7810   1.563   6.839   6.823  3.6190 -0.1916 -0.1284
   73CHL1    O3 7811   1.582   6.739   6.642 -0.4664  0.1482  0.4468
   73CHL1   H3' 7812   1.585   6.645   6.622 -1.7185 -0.6228  3.6444
   73CHL1    C4 7813   1.696   6.666   6.851  0.3815  0.4689  0.2233
   73CHL1   H4A 7814   1.701   6.565   6.806  0.8993  0.4429  0.3420
   73CHL1   H4B 7815   1.790   6.721   6.830 -0.0748  1.2612  0.1912
   73CHL1    C5 7816   1.680   6.649   7.001 -0.0805  0.5959 -0.9126
   73CHL1    C6 7817   1.775   6.687   7.087  0.1595  0.2912 -0.2582
   73CHL1    H6 7818   1.866   6.731   7.044  0.9447 -0.3550  0.7113
   73CHL1    C7 7819   1.760   6.677   7.236 -0.1840  0.1729  1.0018
   73CHL1   H7A 7820   1.860   6.644   7.271  0.1331 -2.4167 -2.1673
   73CHL1   H7B 7821   1.738   6.780   7.270  0.2916  0.0512  1.6822
   73CHL1    C8 7822   1.645   6.584   7.291 -0.0029 -0.5720  0.7223
   73CHL1    H8 7823   1.673   6.478   7.271  2.2071  0.6922 -3.3311
   73CHL1   C14 7824   1.613   6.608   7.436  0.5434  0.3028 -1.0147
   73CHL1   H14 7825   1.571   6.710   7.446 -0.8438 -0.0717 -2.7495
   73CHL1   C15 7826   1.724   6.603   7.536  0.1969 -0.6305 -0.1097
   73CHL1  H15A 7827   1.789   6.515   7.520 -0.5064 -1.1993  0.1191
   73CHL1  H15B 7828   1.785   6.695   7.535 -0.0959 -0.3863  1.9221
   73CHL1   C16 7829   1.650   6.595   7.670  0.0212  0.1821 -0.0547
   73CHL1  H16A 7830   1.679   6.495   7.707  3.4105  0.8185 -0.8185
   73CHL1  H16B 7831   1.673   6.677   7.742  1.4379  0.9802 -1.3998
   73CHL1   C17 7832   1.498   6.573   7.638 -0.1019  0.4069 -0.0991
   73CHL1   H17 7833   1.444   6.670   7.642 -2.7947 -0.9846 -1.5766
   73CHL1   C13 7834   1.500   6.528   7.493 -0.2998  0.0057  0.2849
   73CHL1   C18 7835   1.540   6.378   7.496  0.4102  0.4031  0.1947
   73CHL1  H18A 7836   1.628   6.357   7.560 -0.3130  1.6879  1.6367
   73CHL1  H18B 7837   1.460   6.315   7.541 -0.4155  1.0719 -0.3384
   73CHL1  H18C 7838   1.553   6.337   7.393  1.2170  0.1274  0.4067
   73CHL1   C12 7839   1.371   6.556   7.404 -0.2680 -0.7230  0.1280
   73CHL1  H12A 7840   1.284   6.497   7.440 -0.4791 -0.6153 -0.2088
   73CHL1  H12B 7841   1.363   6.667   7.415  2.1393 -0.4702 -0.3174
   73CHL1   C11 7842   1.403   6.534   7.257 -0.2356  0.3792  0.2979
   73CHL1  H11A 7843   1.428   6.426   7.246  1.5771  1.1004 -3.6356
   73CHL1  H11B 7844   1.321   6.571   7.193 -1.3395 -0.5818  1.1340
   73CHL1    C9 7845   1.525   6.612   7.207  0.3250 -0.1247 -0.3671
   73CHL1    H9 7846   1.498   6.719   7.214  0.5274  0.0390 -1.9181
   73CHL1   C10 7847   1.546   6.592   7.050  0.3994  0.4919  0.0193
   73CHL1   C19 7848   1.555   6.435   7.020  0.4683 -0.1444 -0.2747
   73CHL1  H19A 7849   1.570   6.420   6.911 -0.8062  0.2045 -0.5009
   73CHL1  H19B 7850   1.624   6.384   7.091 -1.1679 -0.4214  1.1562
   73CHL1  H19C 7851   1.468   6.381   7.062  1.1660 -1.3955 -0.4216
   73CHL1    C1 7852   1.425   6.644   6.964  0.2276 -0.4795 -1.0045
   73CHL1   H1A 7853   1.334   6.582   6.977 -1.8880  2.7308 -0.2078
   73CHL1   H1B 7854   1.391   6.743   7.000  0.1088 -0.4010 -1.3329
   73CHL1    C2 7855   1.442   6.657   6.817  0.3583 -0.4938 -0.3086
   73CHL1   H2A 7856   1.364   6.710   6.758 -0.4713 -0.3911  0.8654
   73CHL1   H2B 7857   1.444   6.555   6.773  0.1440 -0.5430 -0.2062
   73CHL1   C20 7858   1.422   6.504   7.748  0.3136  0.3998  0.1094
   73CHL1   H20 7859   1.467   6.403   7.763  1.2454  0.5136 -1.7683
   73CHL1   C21 7860   1.272   6.492   7.706 -0.1564  0.3653  0.3422
   73CHL1  H21A 7861   1.277   6.425   7.618  1.0892  2.1102 -0.9327
   73CHL1  H21B 7862   1.222   6.586   7.673 -0.4125 -0.6828 -2.3494
   73CHL1  H21C 7863   1.208   6.447   7.785  0.3365  0.4295  0.7778
   73CHL1   C22 7864   1.419   6.585   7.877 -0.1197 -0.8004  0.3807
   73CHL1  H22A 7865   1.522   6.615   7.906  1.1116 -0.8487 -3.6722
   73CHL1  H22B 7866   1.361   6.678   7.860 -0.9233 -0.7612  3.0142
   73CHL1   C23 7867   1.366   6.519   8.004 -0.4483 -0.0872 -0.1855
   73CHL1  H23A 7868   1.361   6.588   8.091 -0.2232  1.1870 -1.1791
   73CHL1  H23B 7869   1.262   6.484   7.986 -0.7173  1.6804 -2.3298
   73CHL1   C24 7870   1.445   6.393   8.042  0.5083 -0.3255  0.4255
   73CHL1  H24A 7871   1.475   6.329   7.957 -0.1495  0.2116 -0.2119
   73CHL1  H24B 7872   1.538   6.423   8.096  0.8046 -2.3949  1.1091
   73CHL1   C25 7873   1.374   6.301   8.141  0.1600  0.3004 -1.0617
   73CHL1   H25 7874   1.267   6.279   8.122  0.9848 -2.4554 -2.9018
   73CHL1   C26 7875   1.434   6.155   8.127  0.7955 -0.0521 -0.2622
   73CHL1  H26A 7876   1.408   6.121   8.025 -0.4513  0.7178 -0.2084
   73CHL1  H26B 7877   1.543   6.174   8.137  1.1469 -1.6272 -0.9767
   73CHL1  H26C 7878   1.401   6.081   8.204  1.2373  1.8271  1.7819
   73CHL1   C27 7879   1.396   6.347   8.288  0.5251  0.2083  0.6824
   73CHL1  H27A 7880   1.505   6.349   8.310  0.5477  0.6586  0.5153
   73CHL1  H27B 7881   1.356   6.449   8.306 -1.2488 -0.4320  0.5259
   73CHL1  H27C 7882   1.340   6.275   8.352 -2.1154  2.3202  0.8188
   74CHL1    C3 7883   0.289   4.970   6.946  0.5196  1.0297 -0.2806
   74CHL1    H3 7884   0.222   4.894   6.900  0.7247  0.3759  0.4774
   74CHL1    O3 7885   0.353   5.039   6.848 -0.2002 -0.4143 -0.1075
   74CHL1   H3' 7886   0.381   5.114   6.900 -4.2721 -0.0898  1.8300
   74CHL1    C4 7887   0.215   5.085   7.024 -0.9531 -0.1070  0.3251
   74CHL1   H4A 7888   0.287   5.168   7.041 -0.1352 -1.1355  2.0249
   74CHL1   H4B 7889   0.136   5.134   6.964 -3.5628 -0.6202  3.2174
   74CHL1    C5 7890   0.160   5.059   7.164 -0.7012 -0.1875 -0.2335
   74CHL1    C6 7891   0.038   5.095   7.207 -0.6965  0.3184 -0.5261
   74CHL1    H6 7892  -0.023   5.151   7.135 -1.4506 -0.3666 -0.4288
   74CHL1    C7 7893  -0.024   5.081   7.342  0.2297  0.2550  0.1886
   74CHL1   H7A 7894  -0.053   5.181   7.381 -0.2500  0.6690 -1.2101
   74CHL1   H7B 7895  -0.108   5.009   7.344  0.3955  0.0354 -0.5793
   74CHL1    C8 7896   0.082   5.020   7.441  0.0423 -0.1331  0.1543
   74CHL1    H8 7897   0.149   5.100   7.477  0.6889 -1.8548  2.9248
   74CHL1   C14 7898   0.011   4.972   7.561  0.7327  0.1938 -0.0805
   74CHL1   H14 7899  -0.061   4.890   7.541  0.3499  0.7315 -0.9012
   74CHL1   C15 7900  -0.076   5.063   7.652 -0.8177 -0.2695 -0.1073
   74CHL1  H15A 7901  -0.015   5.154   7.665 -1.6074  0.5332 -1.7908
   74CHL1  H15B 7902  -0.175   5.080   7.603 -0.6693  0.3177 -0.2050
   74CHL1   C16 7903  -0.096   4.973   7.781  0.2050 -0.2887 -0.1042
   74CHL1  H16A 7904  -0.063   5.048   7.856  1.9034 -2.1642  1.0795
   74CHL1  H16B 7905  -0.200   4.942   7.807 -1.1074  3.1139 -0.9559
   74CHL1   C17 7906   0.006   4.858   7.778 -0.0992  0.4642  0.1180
   74CHL1   H17 7907  -0.057   4.772   7.748 -1.2484  1.9427 -1.8934
   74CHL1   C13 7908   0.101   4.896   7.659  0.6422 -0.7421 -0.2248
   74CHL1   C18 7909   0.219   4.993   7.711  0.0161  0.1342 -0.4460
   74CHL1  H18A 7910   0.276   5.034   7.626  0.5878 -3.2826 -1.7848
   74CHL1  H18B 7911   0.180   5.075   7.775 -2.7876 -1.4146 -0.0875
   74CHL1  H18C 7912   0.287   4.928   7.770 -1.8463  0.8481  2.6575
   74CHL1   C12 7913   0.163   4.773   7.592 -0.4975 -0.5222  0.9453
   74CHL1  H12A 7914   0.241   4.731   7.659  2.8095  0.9326 -1.7934
   74CHL1  H12B 7915   0.094   4.691   7.563 -0.6207 -0.4074  0.9114
   74CHL1   C11 7916   0.238   4.820   7.462  0.7478  0.3532  0.0392
   74CHL1  H11A 7917   0.334   4.868   7.491  0.7444  0.4409 -0.0941
   74CHL1  H11B 7918   0.269   4.742   7.390  1.7486  0.9451 -0.1736
   74CHL1    C9 7919   0.156   4.912   7.369  0.4813  0.0273  0.4512
   74CHL1    H9 7920   0.084   4.843   7.321  0.3906 -0.8645  1.8314
   74CHL1   C10 7921   0.251   4.967   7.258  0.5003 -0.0628  0.1018
   74CHL1   C19 7922   0.365   5.046   7.319  0.3907  0.8354 -0.4290
   74CHL1  H19A 7923   0.344   5.109   7.408 -1.6923 -0.9327  0.3881
   74CHL1  H19B 7924   0.442   4.972   7.350 -0.7395  1.3056  3.7567
   74CHL1  H19C 7925   0.408   5.112   7.240  2.1930  0.4206  0.1996
   74CHL1    C1 7926   0.295   4.858   7.156 -0.3926 -0.3193  0.0455
   74CHL1   H1A 7927   0.358   4.783   7.208 -0.2938 -0.1135  0.2224
   74CHL1   H1B 7928   0.208   4.806   7.112  0.7846 -2.9290  0.6886
   74CHL1    C2 7929   0.384   4.899   7.037 -0.2490  0.4144 -0.5363
   74CHL1   H2A 7930   0.425   4.807   6.991  0.8639  1.5854 -1.9183
   74CHL1   H2B 7931   0.463   4.969   7.073  0.7036 -0.5427 -0.7695
   74CHL1   C20 7932   0.056   4.826   7.917  0.1716 -0.0258  0.6380
   74CHL1   H20 7933   0.135   4.898   7.950 -0.6532  1.7757 -1.2465
   74CHL1   C21 7934   0.122   4.688   7.918 -0.3378 -0.5028  0.5918
   74CHL1  H21A 7935   0.063   4.603   7.879  1.0283 -0.3521 -1.8548
   74CHL1  H21B 7936   0.139   4.667   8.026 -2.3271  0.5347  1.1284
   74CHL1  H21C 7937   0.220   4.690   7.866 -1.5123  1.2925 -1.6789
   74CHL1   C22 7938  -0.063   4.827   8.023 -0.2401  0.2839  0.3487
   74CHL1  H22A 7939  -0.016   4.784   8.114 -1.0194 -1.0683  0.1227
   74CHL1  H22B 7940  -0.093   4.931   8.050 -0.9800  0.6052 -1.6356
   74CHL1   C23 7941  -0.186   4.736   7.999  0.5328  0.3789 -0.1343
   74CHL1  H23A 7942  -0.258   4.782   7.929 -0.8105 -0.9333  0.3634
   74CHL1  H23B 7943  -0.158   4.646   7.939  2.0076  1.0091 -0.4126
   74CHL1   C24 7944  -0.250   4.689   8.130  0.0392  0.2212 -0.1208
   74CHL1  H24A 7945  -0.180   4.650   8.206 -0.5521 -1.0062 -0.2024
   74CHL1  H24B 7946  -0.307   4.771   8.180  0.0886  0.6241 -0.7184
   74CHL1   C25 7947  -0.364   4.590   8.102  0.0496 -0.1420  0.1099
   74CHL1   H25 7948  -0.315   4.503   8.053  0.8888 -0.7218  1.9249
   74CHL1   C26 7949  -0.441   4.547   8.230 -0.2795 -0.5627 -0.1099
   74CHL1  H26A 7950  -0.528   4.483   8.205 -1.3035  0.4770  0.7440
   74CHL1  H26B 7951  -0.376   4.489   8.299  2.5352  1.2761 -1.1172
   74CHL1  H26C 7952  -0.473   4.636   8.287  1.4796 -1.1060  1.7981
   74CHL1   C27 7953  -0.477   4.645   8.005 -0.0301  0.4058 -0.3116
   74CHL1  H27A 7954  -0.523   4.737   8.047  0.5761 -0.0464  1.3611
   74CHL1  H27B 7955  -0.444   4.666   7.900  1.4504  1.7623  0.3886
   74CHL1  H27C 7956  -0.559   4.571   8.000  0.1486  0.0729  1.4654
   75CHL1    C3 7957   3.589   0.224   6.612 -0.1722  0.1830 -0.5577
   75CHL1    H3 7958   3.647   0.130   6.601 -1.6783 -0.8671  0.2962
   75CHL1    O3 7959   3.581   0.285   6.485 -0.1436  0.5853 -0.3065
   75CHL1   H3' 7960   3.538   0.369   6.504 -0.1119 -0.0230  2.5897
   75CHL1    C4 7961   3.452   0.221   6.678 -0.9305  0.2781  0.6917
   75CHL1   H4A 7962   3.411   0.323   6.661  0.5288  0.3211 -2.8288
   75CHL1   H4B 7963   3.391   0.154   6.613  0.6509  0.3273 -0.8435
   75CHL1    C5 7964   3.447   0.185   6.826 -0.9016  0.7839  0.2227
   75CHL1    C6 7965   3.369   0.087   6.873 -0.8797 -0.0773 -0.2525
   75CHL1    H6 7966   3.292   0.041   6.810 -0.2715 -1.6619  0.1407
   75CHL1    C7 7967   3.361   0.046   7.016  1.0972 -0.5157 -0.5183
   75CHL1   H7A 7968   3.256   0.035   7.049  1.1425  3.6551  1.2653
   75CHL1   H7B 7969   3.412  -0.052   7.031  3.6893  1.1437  1.8551
   75CHL1    C8 7970   3.429   0.147   7.123 -0.0863  0.6788  0.0018
   75CHL1    H8 7971   3.359   0.233   7.118  0.1849  0.8643 -0.7255
   75CHL1   C14 7972   3.451   0.076   7.253  0.1407  0.1038  0.0596
   75CHL1   H14 7973   3.524  -0.005   7.230 -0.9445 -1.4544  1.9826
   75CHL1   C15 7974   3.329   0.016   7.318  0.1975 -0.1972 -0.1608
   75CHL1  H15A 7975   3.240   0.081   7.319  0.2278 -0.1712  1.0372
   75CHL1  H15B 7976   3.291  -0.074   7.265 -0.0149  0.1128 -0.5312
   75CHL1   C16 7977   3.379  -0.020   7.463 -0.6237  0.0399 -0.3255
   75CHL1  H16A 7978   3.300   0.023   7.528 -0.8391  2.6062 -2.1906
   75CHL1  H16B 7979   3.397  -0.127   7.484  1.5374  0.7719  1.6849
   75CHL1   C17 7980   3.507   0.069   7.477  0.2773 -0.6643 -0.8324
   75CHL1   H17 7981   3.580  -0.014   7.473  0.6518 -0.4245  0.6812
   75CHL1   C13 7982   3.506   0.164   7.356 -0.0518 -0.1464 -0.5226
   75CHL1   C18 7983   3.415   0.285   7.382  0.5769 -0.6352  0.7180
   75CHL1  H18A 7984   3.460   0.363   7.447 -0.3590 -0.2431  0.9043
   75CHL1  H18B 7985   3.395   0.346   7.291 -1.1022 -1.4435  0.5300
   75CHL1  H18C 7986   3.320   0.249   7.427  0.0062  1.6861  1.4639
   75CHL1   C12 7987   3.647   0.222   7.314  0.2231  0.4323 -0.1556
   75CHL1  H12A 7988   3.686   0.304   7.379 -1.6268  0.9442  0.3428
   75CHL1  H12B 7989   3.726   0.144   7.319  1.0415  1.2165 -0.5909
   75CHL1   C11 7990   3.647   0.283   7.167 -0.4167 -1.2313 -0.2552
   75CHL1  H11A 7991   3.593   0.379   7.181  0.1396 -1.2236  2.1410
   75CHL1  H11B 7992   3.752   0.296   7.132 -1.2831 -0.7262 -2.7438
   75CHL1    C9 7993   3.568   0.200   7.064  0.3793  0.6791 -0.4201
   75CHL1    H9 7994   3.627   0.108   7.047 -2.2061 -0.9860 -0.6816
   75CHL1   C10 7995   3.547   0.258   6.915 -0.6113 -0.4279 -0.5610
   75CHL1   C19 7996   3.510   0.406   6.933 -0.0834 -0.2536 -0.5746
   75CHL1  H19A 7997   3.494   0.452   6.833  3.5753 -1.2684 -1.7067
   75CHL1  H19B 7998   3.421   0.425   6.997  0.3523 -0.5851  0.1341
   75CHL1  H19C 7999   3.597   0.457   6.980  0.8168 -1.1588 -1.2404
   75CHL1    C1 8000   3.682   0.257   6.842  1.2235  0.0006  0.2736
   75CHL1   H1A 8001   3.762   0.317   6.890  0.3741  1.4227 -0.0616
   75CHL1   H1B 8002   3.726   0.155   6.847  1.6796  0.2222  0.8433
   75CHL1    C2 8003   3.681   0.312   6.694 -0.1026  0.2279 -1.1124
   75CHL1   H2A 8004   3.785   0.317   6.655 -0.0177  1.3021 -0.7536
   75CHL1   H2B 8005   3.647   0.417   6.692 -5.1788 -1.2970 -1.1036
   75CHL1   C20 8006   3.523   0.132   7.616  0.2026  0.0820 -0.0628
   75CHL1   H20 8007   3.437   0.202   7.623 -0.3240 -0.2648 -2.6917
   75CHL1   C21 8008   3.659   0.199   7.639 -0.9123  0.3905 -0.0654
   75CHL1  H21A 8009   3.667   0.223   7.747  0.5403  2.2245 -0.5641
   75CHL1  H21B 8010   3.662   0.298   7.589 -0.5538  0.5511  0.2725
   75CHL1  H21C 8011   3.742   0.128   7.621 -2.3658 -1.0235 -1.4480
   75CHL1   C22 8012   3.496   0.030   7.731 -0.1061 -0.1233 -0.1056
   75CHL1  H22A 8013   3.420  -0.045   7.701  0.0013  0.7246 -2.6249
   75CHL1  H22B 8014   3.592  -0.024   7.742 -0.4809 -0.3873  2.2032
   75CHL1   C23 8015   3.445   0.088   7.862 -0.9882 -0.2616  0.5787
   75CHL1  H23A 8016   3.499   0.185   7.870  1.1181 -1.3862  0.3918
   75CHL1  H23B 8017   3.337   0.113   7.854 -0.7568  0.7656  0.5247
   75CHL1   C24 8018   3.469   0.001   7.980 -0.1873  0.0162 -0.1485
   75CHL1  H24A 8019   3.384  -0.070   7.969 -1.9470  1.4816  3.2509
   75CHL1  H24B 8020   3.565  -0.053   7.966 -1.3725 -2.1537 -0.2707
   75CHL1   C25 8021   3.460   0.064   8.122  0.0305  0.7546  0.0331
   75CHL1   H25 8022   3.547   0.132   8.123  1.7915 -1.4597  0.4660
   75CHL1   C26 8023   3.339   0.154   8.145 -0.1802  0.2908  0.0595
   75CHL1  H26A 8024   3.348   0.187   8.251 -0.1873 -0.3011  0.2458
   75CHL1  H26B 8025   3.350   0.249   8.088 -1.7458  0.5992  0.2488
   75CHL1  H26C 8026   3.241   0.106   8.124 -0.8478  1.1194  1.1996
   75CHL1   C27 8027   3.479  -0.043   8.231 -0.1992  0.1397  0.0108
   75CHL1  H27A 8028   3.392  -0.112   8.241 -0.7663  0.9905  1.1215
   75CHL1  H27B 8029   3.561  -0.113   8.204 -2.1612 -0.3022 -5.4233
   75CHL1  H27C 8030   3.495  -0.001   8.333 -0.8682  1.8501 -0.5653
   76CHL1    C3 8031   0.600   2.003   7.352 -0.4814 -0.1850  0.3394
   76CHL1    H3 8032   0.583   1.895   7.369 -1.7898  0.0277  0.4393
   76CHL1    O3 8033   0.595   2.048   7.217  0.1470  0.3401  0.2905
   76CHL1   H3' 8034   0.625   1.972   7.166 -0.8523  0.7299 -0.9157
   76CHL1    C4 8035   0.501   2.096   7.434  0.9462 -0.2564 -0.5109
   76CHL1   H4A 8036   0.532   2.203   7.429  0.6427 -0.0250  2.1375
   76CHL1   H4B 8037   0.397   2.083   7.398  0.4547  0.7262  0.5398
   76CHL1    C5 8038   0.505   2.051   7.579 -0.2836  0.2394  0.2661
   76CHL1    C6 8039   0.400   1.994   7.638  0.7028  0.2875  0.0196
   76CHL1    H6 8040   0.302   1.981   7.590  1.2682 -2.7795 -0.3780
   76CHL1    C7 8041   0.394   1.932   7.777  0.6535 -0.3607  0.0934
   76CHL1   H7A 8042   0.298   1.955   7.827  1.2842  0.1953  1.0603
   76CHL1   H7B 8043   0.396   1.821   7.771 -1.0034 -0.5184  1.8806
   76CHL1    C8 8044   0.509   1.986   7.858  0.3833  0.7438  0.4014
   76CHL1    H8 8045   0.486   2.093   7.878 -0.2668  0.1357  3.1062
   76CHL1   C14 8046   0.521   1.918   7.999  0.1097  0.3486  0.6971
   76CHL1   H14 8047   0.539   1.810   7.980  2.9305  0.5563  2.0327
   76CHL1   C15 8048   0.410   1.932   8.098  0.0148 -0.0059  0.4593
   76CHL1  H15A 8049   0.367   2.034   8.087 -0.7408 -0.4511 -0.8986
   76CHL1  H15B 8050   0.337   1.849   8.082  0.3043  0.1514 -1.8798
   76CHL1   C16 8051   0.469   1.925   8.238  0.3870  0.0384  0.6660
   76CHL1  H16A 8052   0.430   2.019   8.284 -2.1943 -1.1621  1.0038
   76CHL1  H16B 8053   0.439   1.839   8.301  1.7444 -1.5875 -0.8470
   76CHL1   C17 8054   0.615   1.917   8.210  0.2421 -0.1805 -0.3665
   76CHL1   H17 8055   0.645   1.814   8.184  1.1585  0.0698 -0.3028
   76CHL1   C13 8056   0.642   1.985   8.074  0.3882  0.8599  0.2294
   76CHL1   C18 8057   0.644   2.134   8.095 -0.0353 -0.5394 -0.3760
   76CHL1  H18A 8058   0.546   2.168   8.137  0.1041  0.5640 -0.9333
   76CHL1  H18B 8059   0.729   2.162   8.161 -0.2285 -1.5876  0.3268
   76CHL1  H18C 8060   0.663   2.187   7.999 -0.6477 -0.9481 -0.7229
   76CHL1   C12 8061   0.768   1.944   8.010  0.5993 -0.2571  0.2293
   76CHL1  H12A 8062   0.857   1.975   8.069  1.3860 -3.4507  0.8352
   76CHL1  H12B 8063   0.777   1.834   7.994 -0.0911 -0.1393 -1.0148
   76CHL1   C11 8064   0.781   2.003   7.862 -0.2963 -0.5010 -0.4672
   76CHL1  H11A 8065   0.819   2.107   7.855 -0.6701 -0.3134  0.2475
   76CHL1  H11B 8066   0.857   1.940   7.811  0.5102  0.1456 -0.0612
   76CHL1    C9 8067   0.643   1.981   7.783 -0.4259  0.6946 -0.1404
   76CHL1    H9 8068   0.651   1.873   7.757 -0.3461  1.0955 -1.8370
   76CHL1   C10 8069   0.639   2.054   7.642 -0.7166 -0.1347 -0.2534
   76CHL1   C19 8070   0.668   2.201   7.670  0.8954 -0.0226  0.4157
   76CHL1  H19A 8071   0.601   2.247   7.746  0.1894 -1.4537  0.6689
   76CHL1  H19B 8072   0.776   2.217   7.690  1.4056 -2.5860 -0.1508
   76CHL1  H19C 8073   0.649   2.258   7.576  1.3203 -0.4501  0.0672
   76CHL1    C1 8074   0.753   1.994   7.554 -0.8670 -0.6635  0.7297
   76CHL1   H1A 8075   0.846   2.033   7.600  0.0002 -1.6511 -0.1263
   76CHL1   H1B 8076   0.754   1.884   7.568  0.4380 -0.6131  1.1257
   76CHL1    C2 8077   0.743   2.031   7.407 -0.7872 -0.4709 -0.0539
   76CHL1   H2A 8078   0.812   1.969   7.346  0.1341 -0.0720  0.5949
   76CHL1   H2B 8079   0.760   2.138   7.386  1.5920 -1.3374 -2.8738
   76CHL1   C20 8080   0.713   1.961   8.327  0.0776  0.6828  0.5854
   76CHL1   H20 8081   0.813   1.983   8.285  0.6709 -1.8476  0.6095
   76CHL1   C21 8082   0.735   1.835   8.417  0.0183  0.7755  0.2796
   76CHL1  H21A 8083   0.768   1.745   8.359  0.8307  0.8686  0.5948
   76CHL1  H21B 8084   0.637   1.808   8.460 -0.2323  1.7064  0.2939
   76CHL1  H21C 8085   0.815   1.847   8.494  2.0110  0.9033 -1.7372
   76CHL1   C22 8086   0.665   2.074   8.419  0.3236 -0.1546  0.1086
   76CHL1  H22A 8087   0.610   2.150   8.360 -1.4488 -1.0572  0.5407
   76CHL1  H22B 8088   0.587   2.049   8.494  1.3043 -1.9015  0.5731
   76CHL1   C23 8089   0.784   2.149   8.492  0.0416 -0.6606 -0.1291
   76CHL1  H23A 8090   0.856   2.069   8.518 -1.1791 -1.5582  0.5184
   76CHL1  H23B 8091   0.853   2.211   8.429  0.5496  1.6403  2.5860
   76CHL1   C24 8092   0.737   2.245   8.597 -0.2658 -0.7825 -0.3870
   76CHL1  H24A 8093   0.681   2.329   8.551 -1.2740 -1.1650  0.1269
   76CHL1  H24B 8094   0.668   2.191   8.665 -1.6431  0.2190 -0.9437
   76CHL1   C25 8095   0.844   2.305   8.679 -0.0450 -0.1564 -0.1824
   76CHL1   H25 8096   0.885   2.216   8.732  0.1855  0.6708  1.0621
   76CHL1   C26 8097   0.963   2.366   8.602 -0.0343 -0.0459  0.2599
   76CHL1  H26A 8098   1.003   2.293   8.527 -0.7796 -1.1362  0.9091
   76CHL1  H26B 8099   0.939   2.457   8.543  2.1805  1.7331  2.0121
   76CHL1  H26C 8100   1.039   2.411   8.669  0.1579  0.8294 -0.5332
   76CHL1   C27 8101   0.785   2.387   8.791 -0.9772  0.8661 -0.0814
   76CHL1  H27A 8102   0.862   2.437   8.854 -0.7719 -1.2058  1.3587
   76CHL1  H27B 8103   0.713   2.466   8.759 -1.5263  0.1352 -0.6527
   76CHL1  H27C 8104   0.728   2.325   8.863 -1.1852 -0.0096 -0.9951
   77CHL1    C3 8105   0.957   0.145   6.985 -0.5829 -0.7855  0.2333
   77CHL1    H3 8106   0.895   0.236   6.992  1.2043  0.4717  0.2255
   77CHL1    O3 8107   0.973   0.121   6.844  0.0572  0.2934  0.0642
   77CHL1   H3' 8108   0.985   0.210   6.809 -0.9827 -0.3354 -1.9310
   77CHL1    C4 8109   1.091   0.167   7.054 -0.2819 -0.3409  0.2254
   77CHL1   H4A 8110   1.160   0.082   7.037 -1.1357 -0.8199 -0.9469
   77CHL1   H4B 8111   1.145   0.252   7.006 -0.6820 -1.0865 -1.5878
   77CHL1    C5 8112   1.073   0.196   7.197  0.1326 -0.3665  0.3800
   77CHL1    C6 8113   1.103   0.309   7.256  0.0955 -0.0663 -0.3815
   77CHL1    H6 8114   1.160   0.387   7.203 -1.2284  0.0731 -1.6124
   77CHL1    C7 8115   1.078   0.333   7.398 -0.3759 -0.7576  0.3412
   77CHL1   H7A 8116   1.166   0.386   7.441  1.2537 -2.6098 -0.6719
   77CHL1   H7B 8117   0.987   0.396   7.409 -1.0072 -1.6358  0.1451
   77CHL1    C8 8118   1.041   0.206   7.485  0.1929  0.3807 -0.4470
   77CHL1    H8 8119   1.137   0.157   7.511  0.5948  1.1717 -0.4272
   77CHL1   C14 8120   0.977   0.249   7.615  0.1852 -0.5081 -0.4831
   77CHL1   H14 8121   0.882   0.300   7.590  2.0957  2.1622 -2.7129
   77CHL1   C15 8122   1.060   0.343   7.702 -0.3239 -0.8363 -0.1120
   77CHL1  H15A 8123   1.163   0.303   7.711  1.3238  2.9875 -1.1655
   77CHL1  H15B 8124   1.063   0.450   7.672  1.6028  0.0080  2.8069
   77CHL1   C16 8125   0.992   0.323   7.841  0.3816  1.4319 -0.4707
   77CHL1  H16A 8126   1.078   0.312   7.910 -0.0420 -1.4020 -0.3364
   77CHL1  H16B 8127   0.942   0.411   7.886  0.4572  0.4868  1.5211
   77CHL1   C17 8128   0.894   0.201   7.824 -0.3443  0.6641 -0.2159
   77CHL1   H17 8129   0.804   0.257   7.790  0.9411  2.1529 -1.2353
   77CHL1   C13 8130   0.941   0.123   7.703  0.9125 -0.4766 -0.5170
   77CHL1   C18 8131   1.068   0.039   7.733  0.3629 -0.3070  0.3484
   77CHL1  H18A 8132   1.044  -0.049   7.796 -3.5606  0.3693 -0.0583
   77CHL1  H18B 8133   1.103  -0.009   7.639  0.0234  1.6513 -0.8085
   77CHL1  H18C 8134   1.147   0.095   7.786  1.4519 -1.5337  0.0601
   77CHL1   C12 8135   0.835   0.041   7.627 -0.2983  0.2466 -0.0837
   77CHL1  H12A 8136   0.803  -0.043   7.691 -0.7206  2.5769  2.8633
   77CHL1  H12B 8137   0.741   0.101   7.617 -0.3862  0.2144  0.5349
   77CHL1   C11 8138   0.889  -0.004   7.490  0.2368 -0.2653  0.4553
   77CHL1  H11A 8139   0.962  -0.082   7.522 -0.5086 -1.1960 -0.0936
   77CHL1  H11B 8140   0.812  -0.065   7.439 -2.0480  0.4499  2.9080
   77CHL1    C9 8141   0.946   0.120   7.402 -0.2822 -0.2997  0.0256
   77CHL1    H9 8142   0.857   0.186   7.389 -0.3710 -0.5817 -0.8272
   77CHL1   C10 8143   0.991   0.086   7.261  0.0985 -0.7846  0.1887
   77CHL1   C19 8144   1.092  -0.031   7.284 -0.9736 -0.3812 -0.6687
   77CHL1  H19A 8145   1.141  -0.070   7.192 -2.9041 -0.4708 -1.6818
   77CHL1  H19B 8146   1.173  -0.012   7.358 -0.9099  0.6582 -0.9991
   77CHL1  H19C 8147   1.042  -0.124   7.318  0.1974 -0.4769  0.8439
   77CHL1    C1 8148   0.866   0.044   7.180 -0.0611 -0.5057 -0.3010
   77CHL1   H1A 8149   0.821  -0.043   7.233 -1.0768  0.4701  0.4632
   77CHL1   H1B 8150   0.792   0.126   7.185 -0.2641 -0.7581  1.3235
   77CHL1    C2 8151   0.893   0.017   7.039  0.7195 -0.7588  0.3870
   77CHL1   H2A 8152   0.799  -0.007   6.983 -0.3003  3.2633  0.1508
   77CHL1   H2B 8153   0.962  -0.069   7.028  0.0600 -1.2167 -0.3054
   77CHL1   C20 8154   0.860   0.114   7.948  0.2144 -0.6827 -0.6883
   77CHL1   H20 8155   0.831   0.016   7.905 -1.3037 -0.1158 -0.9784
   77CHL1   C21 8156   0.734   0.184   8.011  0.2910 -0.4264 -0.2533
   77CHL1  H21A 8157   0.656   0.197   7.933  1.2428  1.0822 -0.9792
   77CHL1  H21B 8158   0.753   0.285   8.052  1.7804 -1.8057  2.6513
   77CHL1  H21C 8159   0.695   0.114   8.089 -1.3780 -0.5624 -1.1863
   77CHL1   C22 8160   0.973   0.106   8.060  0.0441  0.0578  0.0413
   77CHL1  H22A 8161   1.069   0.065   8.021 -0.0667  0.2681 -0.4654
   77CHL1  H22B 8162   0.998   0.208   8.096 -0.3067 -0.6137  2.2221
   77CHL1   C23 8163   0.938   0.011   8.177 -0.3931 -0.0619  0.3255
   77CHL1  H23A 8164   0.833   0.032   8.205  0.0902  2.3650  0.4045
   77CHL1  H23B 8165   0.944  -0.095   8.142  0.4091 -0.2686  1.0731
   77CHL1   C24 8166   1.038   0.030   8.299  0.0071 -0.9092 -0.1837
   77CHL1  H24A 8167   1.135   0.043   8.247 -0.4728 -1.3457 -1.2018
   77CHL1  H24B 8168   1.003   0.120   8.354  2.6635 -0.3698  0.7278
   77CHL1   C25 8169   1.050  -0.092   8.387 -0.0183  0.8629  0.6427
   77CHL1   H25 8170   0.944  -0.122   8.403 -0.1256 -0.3896 -2.0984
   77CHL1   C26 8171   1.106  -0.215   8.314 -0.5737 -0.6215  0.0630
   77CHL1  H26A 8172   1.136  -0.300   8.379  2.4035  0.0133 -0.3950
   77CHL1  H26B 8173   1.036  -0.245   8.233  0.3898  0.3177 -1.1380
   77CHL1  H26C 8174   1.200  -0.169   8.275 -1.1745 -0.8385 -1.6539
   77CHL1   C27 8175   1.120  -0.074   8.522 -0.3935 -0.7708 -0.4302
   77CHL1  H27A 8176   1.145  -0.172   8.568  0.8194 -0.2441  0.0530
   77CHL1  H27B 8177   1.216  -0.017   8.521 -1.8216  1.8223  2.3585
   77CHL1  H27C 8178   1.059  -0.015   8.594 -1.6896  2.1800 -3.7991
   78CHL1    C3 8179   3.523   1.697   6.743  1.1493  0.0148  0.1565
   78CHL1    H3 8180   3.538   1.587   6.737 -1.0814 -0.2207 -1.6277
   78CHL1    O3 8181   3.510   1.741   6.612  0.3719 -0.2748  0.1909
   78CHL1   H3' 8182   3.497   1.836   6.614  2.5470  0.0426  0.0036
   78CHL1    C4 8183   3.394   1.744   6.818  0.1608 -0.1684 -0.5695
   78CHL1   H4A 8184   3.414   1.853   6.817 -0.6814 -0.0139 -1.8495
   78CHL1   H4B 8185   3.300   1.715   6.766 -1.6574  0.9794  1.9959
   78CHL1    C5 8186   3.406   1.694   6.963 -0.0434  0.0400  0.0236
   78CHL1    C6 8187   3.306   1.614   7.010  0.3828  0.1357  0.5784
   78CHL1    H6 8188   3.222   1.584   6.944  1.0317 -2.2947  0.8058
   78CHL1    C7 8189   3.313   1.547   7.147  0.6953 -0.7283  0.1822
   78CHL1   H7A 8190   3.214   1.550   7.197  0.4951  2.0123 -0.3335
   78CHL1   H7B 8191   3.369   1.451   7.151 -1.3609 -1.8716  3.8856
   78CHL1    C8 8192   3.400   1.640   7.245  0.2121 -0.1981  1.0013
   78CHL1    H8 8193   3.351   1.738   7.261  1.9531  0.7052  0.8785
   78CHL1   C14 8194   3.412   1.571   7.376 -0.3695 -0.3045 -0.6738
   78CHL1   H14 8195   3.461   1.473   7.358 -0.8778 -0.6881 -0.0002
   78CHL1   C15 8196   3.277   1.542   7.447 -0.1090 -0.0630  0.1899
   78CHL1  H15A 8197   3.205   1.625   7.433  1.0860  0.7720 -1.1805
   78CHL1  H15B 8198   3.230   1.453   7.401  0.4938 -0.2344 -0.1019
   78CHL1   C16 8199   3.321   1.523   7.598 -0.5937 -0.3431 -0.3583
   78CHL1  H16A 8200   3.268   1.602   7.655 -2.6813 -1.6296 -0.4570
   78CHL1  H16B 8201   3.294   1.422   7.635  0.9373 -0.3771  0.7106
   78CHL1   C17 8202   3.472   1.551   7.605 -0.0999  0.1438  0.3458
   78CHL1   H17 8203   3.524   1.454   7.586 -1.0968 -0.0965 -1.2825
   78CHL1   C13 8204   3.504   1.640   7.469  0.1004 -0.3270  0.3769
   78CHL1   C18 8205   3.447   1.781   7.500 -0.5331 -0.4349 -0.1649
   78CHL1  H18A 8206   3.524   1.839   7.555 -1.3108  0.7189 -0.2848
   78CHL1  H18B 8207   3.429   1.841   7.409 -3.1796 -0.6275  0.1861
   78CHL1  H18C 8208   3.344   1.777   7.542 -0.7272 -0.7838 -0.6714
   78CHL1   C12 8209   3.646   1.654   7.409 -0.3901 -0.9340  0.0761
   78CHL1  H12A 8210   3.715   1.691   7.487  0.1959  0.7599 -1.2090
   78CHL1  H12B 8211   3.689   1.554   7.388 -1.3361 -1.5926  1.2068
   78CHL1   C11 8212   3.638   1.734   7.278 -0.0878 -0.2627  0.5577
   78CHL1  H11A 8213   3.602   1.838   7.298  3.2728  1.1176 -0.1245
   78CHL1  H11B 8214   3.740   1.744   7.234 -0.6080  2.7278 -0.1253
   78CHL1    C9 8215   3.538   1.672   7.179  0.0041 -0.2532  0.0961
   78CHL1    H9 8216   3.592   1.579   7.152  2.6224  1.0667  0.6030
   78CHL1   C10 8217   3.522   1.751   7.049 -0.0039  0.6953 -0.3321
   78CHL1   C19 8218   3.497   1.898   7.075 -0.3006 -0.5889 -0.3064
   78CHL1  H19A 8219   3.589   1.934   7.126 -0.2122 -0.9403 -0.2204
   78CHL1  H19B 8220   3.480   1.960   6.984  0.4286 -0.9693 -0.7100
   78CHL1  H19C 8221   3.419   1.925   7.150  1.3087 -0.4204  1.3358
   78CHL1    C1 8222   3.648   1.731   6.964 -0.6071  0.3781 -0.7714
   78CHL1   H1A 8223   3.742   1.770   7.010 -0.3637 -0.9530 -0.0917
   78CHL1   H1B 8224   3.659   1.620   6.970  2.6805  0.6092 -1.3959
   78CHL1    C2 8225   3.644   1.762   6.815  0.3338 -0.6669 -0.0407
   78CHL1   H2A 8226   3.730   1.722   6.756  0.2755  2.9716 -2.8220
   78CHL1   H2B 8227   3.641   1.872   6.798  2.2227 -1.0059 -3.0218
   78CHL1   C20 8228   3.536   1.603   7.735  0.6966  0.2854  0.3355
   78CHL1   H20 8229   3.636   1.646   7.711  1.4962 -1.8646 -0.3451
   78CHL1   C21 8230   3.577   1.482   7.821 -0.0516 -0.1551 -0.3210
   78CHL1  H21A 8231   3.607   1.388   7.770 -0.3767 -1.3673  1.6635
   78CHL1  H21B 8232   3.491   1.441   7.878  2.0575  1.3017  4.1418
   78CHL1  H21C 8233   3.650   1.514   7.898  0.0021  1.6335 -1.0941
   78CHL1   C22 8234   3.455   1.703   7.806 -0.3338 -0.6125 -0.0133
   78CHL1  H22A 8235   3.425   1.787   7.740 -0.3064 -1.5452 -1.2283
   78CHL1  H22B 8236   3.356   1.671   7.844 -0.1721  0.2489  1.1997
   78CHL1   C23 8237   3.523   1.765   7.934 -0.3375 -0.0459  0.5169
   78CHL1  H23A 8238   3.630   1.735   7.933  0.1021  1.1860 -5.0276
   78CHL1  H23B 8239   3.523   1.875   7.921 -0.2940 -0.2094 -0.8670
   78CHL1   C24 8240   3.446   1.715   8.059 -0.4785 -0.3979 -0.0931
   78CHL1  H24A 8241   3.337   1.737   8.058 -0.1363  1.4837  1.2346
   78CHL1  H24B 8242   3.440   1.604   8.059  3.2339 -0.6613  0.6138
   78CHL1   C25 8243   3.511   1.758   8.194 -0.2600 -0.4514  1.0709
   78CHL1   H25 8244   3.527   1.868   8.191  0.4054 -0.5361  1.5318
   78CHL1   C26 8245   3.415   1.741   8.307  0.2424 -0.0445  0.1861
   78CHL1  H26A 8246   3.318   1.794   8.298 -0.6321 -1.8269 -1.2162
   78CHL1  H26B 8247   3.400   1.632   8.327  2.7661 -0.8912 -2.2606
   78CHL1  H26C 8248   3.472   1.777   8.395  1.3725 -0.9855 -0.1418
   78CHL1   C27 8249   3.639   1.671   8.231  0.3075 -0.3425 -0.2454
   78CHL1  H27A 8250   3.670   1.698   8.334 -0.9511 -0.9137  0.2918
   78CHL1  H27B 8251   3.620   1.564   8.209  0.7184 -0.1308 -1.6966
   78CHL1  H27C 8252   3.721   1.709   8.166  0.0341  1.7886  0.6231
   79CHL1    C3 8253   1.615   1.690   7.204 -0.2777 -0.5878  0.8711
   79CHL1    H3 8254   1.692   1.770   7.206  1.2854 -2.0580  1.3933
   79CHL1    O3 8255   1.571   1.685   7.071 -0.0799 -0.1835 -0.0863
   79CHL1   H3' 8256   1.515   1.608   7.065  0.0390 -0.3500  0.9192
   79CHL1    C4 8257   1.677   1.550   7.242 -0.0259 -0.7005  0.0359
   79CHL1   H4A 8258   1.609   1.474   7.197 -1.4149  0.8749 -0.5534
   79CHL1   H4B 8259   1.771   1.531   7.185  1.3002 -0.4849  2.0913
   79CHL1    C5 8260   1.714   1.538   7.389  0.0007 -0.7610  0.2250
   79CHL1    C6 8261   1.834   1.493   7.440  0.0244 -0.3445  0.1635
   79CHL1    H6 8262   1.914   1.453   7.376  0.3174  0.1749  0.2018
   79CHL1    C7 8263   1.863   1.471   7.583  0.8376 -0.2039  0.4213
   79CHL1   H7A 8264   1.917   1.376   7.602  0.2956  0.0066  3.2532
   79CHL1   H7B 8265   1.931   1.554   7.613  0.6972 -1.0152  3.1334
   79CHL1    C8 8266   1.734   1.474   7.675  0.6762 -0.5191 -0.1793
   79CHL1    H8 8267   1.687   1.374   7.661 -1.1019 -0.2295  3.0170
   79CHL1   C14 8268   1.776   1.491   7.822  0.4375 -0.3254 -0.1444
   79CHL1   H14 8269   1.829   1.588   7.837  2.0544 -1.6392  3.0356
   79CHL1   C15 8270   1.869   1.386   7.887  0.8729 -0.6092 -0.0066
   79CHL1  H15A 8271   1.835   1.280   7.882  0.7894 -0.6714  1.6336
   79CHL1  H15B 8272   1.967   1.394   7.837  0.4584  3.8864 -0.2995
   79CHL1   C16 8273   1.859   1.421   8.037 -0.0673 -0.4110 -0.2401
   79CHL1  H16A 8274   1.844   1.331   8.099  1.2866  1.1985  2.5139
   79CHL1  H16B 8275   1.951   1.468   8.078 -1.2573  1.6112  0.1698
   79CHL1   C17 8276   1.732   1.513   8.059  0.1867  0.9699 -0.7817
   79CHL1   H17 8277   1.768   1.618   8.064  1.8634  0.3606  0.4514
   79CHL1   C13 8278   1.657   1.510   7.917 -0.1939 -0.2227 -0.3361
   79CHL1   C18 8279   1.567   1.386   7.906  0.5626  0.0803 -0.2773
   79CHL1  H18A 8280   1.532   1.366   7.802 -1.3010  1.5622  0.0447
   79CHL1  H18B 8281   1.615   1.291   7.937 -0.4398 -0.8027 -1.4005
   79CHL1  H18C 8282   1.474   1.399   7.964 -1.3570  0.3180 -3.3207
   79CHL1   C12 8283   1.577   1.635   7.880  0.1789 -0.6157  0.6859
   79CHL1  H12A 8284   1.489   1.651   7.945  0.9072 -2.5977  2.1775
   79CHL1  H12B 8285   1.650   1.719   7.886 -2.1704  1.6037 -0.9026
   79CHL1   C11 8286   1.541   1.630   7.734  0.2006  0.4571 -0.0759
   79CHL1  H11A 8287   1.458   1.559   7.716  0.4929  0.3764 -1.1375
   79CHL1  H11B 8288   1.501   1.730   7.705  2.9546  1.2709 -1.2245
   79CHL1    C9 8289   1.648   1.590   7.633  0.7943 -0.6915  0.0475
   79CHL1    H9 8290   1.712   1.680   7.628 -0.2804  0.0024 -1.8096
   79CHL1   C10 8291   1.602   1.581   7.486 -0.3628 -0.0863  0.6837
   79CHL1   C19 8292   1.496   1.473   7.485 -0.4936  0.4142 -0.1368
   79CHL1  H19A 8293   1.400   1.504   7.531 -0.2499 -1.8085  2.0066
   79CHL1  H19B 8294   1.458   1.467   7.381 -0.5537  0.5024 -0.1202
   79CHL1  H19C 8295   1.517   1.376   7.534 -1.0830 -0.3597 -1.3724
   79CHL1    C1 8296   1.545   1.721   7.437 -0.6581  0.3350  0.1632
   79CHL1   H1A 8297   1.457   1.756   7.496 -2.0871 -2.4362 -0.2204
   79CHL1   H1B 8298   1.625   1.796   7.453  0.2984 -0.8806  1.2194
   79CHL1    C2 8299   1.503   1.725   7.295 -0.4590  0.3380 -0.4284
   79CHL1   H2A 8300   1.490   1.828   7.257  1.5015 -0.1869 -2.6275
   79CHL1   H2B 8301   1.413   1.662   7.278  1.2375 -2.8340  1.8401
   79CHL1   C20 8302   1.648   1.469   8.182  0.1786  0.5951  0.4944
   79CHL1   H20 8303   1.606   1.368   8.162 -1.7314  1.1673  1.4737
   79CHL1   C21 8304   1.526   1.563   8.199  0.2279 -0.1401  1.3362
   79CHL1  H21A 8305   1.470   1.539   8.291 -1.8674  0.3624  0.2226
   79CHL1  H21B 8306   1.447   1.542   8.123 -1.2118 -1.4512  3.1726
   79CHL1  H21C 8307   1.553   1.670   8.189 -1.5845  0.2800  0.7289
   79CHL1   C22 8308   1.725   1.453   8.319  0.3614 -0.2264  0.2428
   79CHL1  H22A 8309   1.812   1.386   8.299  0.4259 -0.1920  0.4114
   79CHL1  H22B 8310   1.763   1.551   8.354 -0.6772  0.1187  0.4189
   79CHL1   C23 8311   1.646   1.393   8.435  0.2701  0.5330  0.1457
   79CHL1  H23A 8312   1.568   1.465   8.468 -0.5027  0.2646 -1.0710
   79CHL1  H23B 8313   1.592   1.305   8.396  0.2402  1.3057 -1.6092
   79CHL1   C24 8314   1.750   1.350   8.543  0.0687  0.3033 -0.2895
   79CHL1  H24A 8315   1.823   1.280   8.499 -0.4229 -0.8999  0.7509
   79CHL1  H24B 8316   1.800   1.439   8.587 -2.5205  2.3916 -1.4180
   79CHL1   C25 8317   1.679   1.255   8.643 -0.0689  0.4207  0.0115
   79CHL1   H25 8318   1.622   1.188   8.577 -0.0394  0.0935  0.3165
   79CHL1   C26 8319   1.772   1.179   8.732 -0.1172  0.4228  0.5174
   79CHL1  H26A 8320   1.820   1.232   8.817 -2.2912  2.4528  0.5220
   79CHL1  H26B 8321   1.721   1.094   8.781  0.1402  0.2767  0.5334
   79CHL1  H26C 8322   1.844   1.136   8.659 -0.3910  1.7962 -0.5865
   79CHL1   C27 8323   1.587   1.329   8.744 -0.8900 -0.1355 -0.6611
   79CHL1  H27A 8324   1.652   1.392   8.808  2.0116 -0.3848 -3.2265
   79CHL1  H27B 8325   1.514   1.382   8.680  0.4648  0.8511 -1.4311
   79CHL1  H27C 8326   1.535   1.257   8.811  1.3579 -1.0745  0.1245
   80CHL1    C3 8327   0.222   5.634   6.908  0.6694 -0.2973 -0.4334
   80CHL1    H3 8328   0.128   5.685   6.939  1.1959  0.3106  0.1763
   80CHL1    O3 8329   0.224   5.648   6.771 -0.5819 -0.5114 -0.1429
   80CHL1   H3' 8330   0.277   5.572   6.746  0.5226  1.0443 -2.7543
   80CHL1    C4 8331   0.336   5.695   6.984  0.1456 -0.0027 -0.1624
   80CHL1   H4A 8332   0.429   5.643   6.953  0.9715 -0.1797  2.4926
   80CHL1   H4B 8333   0.344   5.803   6.958 -0.2837  0.7610  2.7479
   80CHL1    C5 8334   0.321   5.682   7.135  0.2863  0.1688  0.0535
   80CHL1    C6 8335   0.309   5.785   7.215 -0.3829 -0.1034  0.0316
   80CHL1    H6 8336   0.307   5.878   7.156  2.3070 -1.0835 -1.7198
   80CHL1    C7 8337   0.294   5.775   7.365  0.9257  0.7152 -0.3375
   80CHL1   H7A 8338   0.370   5.839   7.415  1.9446 -2.0568  1.7683
   80CHL1   H7B 8339   0.191   5.808   7.390  1.0821  2.9618 -2.4445
   80CHL1    C8 8340   0.309   5.633   7.424 -0.8043  0.5236 -0.7872
   80CHL1    H8 8341   0.415   5.605   7.439 -2.0475 -3.4071  1.2298
   80CHL1   C14 8342   0.244   5.639   7.566  0.2912  0.4468  0.2134
   80CHL1   H14 8343   0.139   5.662   7.539  0.4892  0.1593 -0.8294
   80CHL1   C15 8344   0.291   5.749   7.666 -0.0797  0.1499 -1.2049
   80CHL1  H15A 8345   0.400   5.741   7.684 -0.7636  0.1424  3.6342
   80CHL1  H15B 8346   0.259   5.850   7.631 -4.0967 -0.1170  1.3743
   80CHL1   C16 8347   0.222   5.704   7.792 -0.4555 -0.2015  0.2955
   80CHL1  H16A 8348   0.297   5.704   7.874  0.3547 -0.9889 -0.4373
   80CHL1  H16B 8349   0.140   5.770   7.827  0.9487  0.5225  2.3061
   80CHL1   C17 8350   0.178   5.553   7.761 -0.8837 -0.5588 -0.6461
   80CHL1   H17 8351   0.068   5.568   7.758 -0.6251  2.7566  2.2338
   80CHL1   C13 8352   0.243   5.507   7.631 -0.1096  0.0633 -0.1184
   80CHL1   C18 8353   0.387   5.465   7.650 -0.3603  0.1854 -0.1448
   80CHL1  H18A 8354   0.450   5.540   7.703 -0.6669 -1.4343  2.5791
   80CHL1  H18B 8355   0.385   5.377   7.717 -0.5229 -0.4235 -0.9444
   80CHL1  H18C 8356   0.430   5.433   7.553 -2.0135 -2.4091 -0.0601
   80CHL1   C12 8357   0.159   5.410   7.545 -0.2900  0.0083  0.4151
   80CHL1  H12A 8358   0.167   5.310   7.593  0.8318  0.6080  1.5116
   80CHL1  H12B 8359   0.057   5.456   7.543 -1.0128 -1.6207 -1.0316
   80CHL1   C11 8360   0.216   5.394   7.399 -0.2536 -0.4233 -0.2080
   80CHL1  H11A 8361   0.316   5.346   7.413  1.1545  2.3925 -0.3322
   80CHL1  H11B 8362   0.142   5.337   7.340 -0.4233  0.2022 -0.5965
   80CHL1    C9 8363   0.237   5.531   7.336  0.9158 -0.1399 -0.9545
   80CHL1    H9 8364   0.135   5.575   7.330  0.6363 -0.4592  1.2081
   80CHL1   C10 8365   0.298   5.537   7.195 -0.2708  0.2992 -0.4931
   80CHL1   C19 8366   0.428   5.453   7.196 -0.2561 -1.6709 -0.8562
   80CHL1  H19A 8367   0.505   5.481   7.271 -3.0186 -1.0547  1.8725
   80CHL1  H19B 8368   0.412   5.343   7.197 -1.0914 -1.5523  0.0392
   80CHL1  H19C 8369   0.471   5.473   7.096  4.2163 -0.0792  1.2517
   80CHL1    C1 8370   0.200   5.460   7.098  0.0982 -0.0384 -0.0248
   80CHL1   H1A 8371   0.195   5.350   7.111 -0.3010 -0.2412 -1.8716
   80CHL1   H1B 8372   0.097   5.496   7.120  0.1298  0.7988 -1.2133
   80CHL1    C2 8373   0.211   5.488   6.944  0.0975  0.0301  0.5970
   80CHL1   H2A 8374   0.116   5.455   6.896 -0.6431  4.0879 -0.9842
   80CHL1   H2B 8375   0.294   5.424   6.908  0.1711 -0.5287  1.7674
   80CHL1   C20 8376   0.193   5.467   7.891 -0.2303 -0.2947 -0.0502
   80CHL1   H20 8377   0.300   5.453   7.915 -0.0791 -0.7934 -0.9966
   80CHL1   C21 8378   0.145   5.323   7.865 -0.8811  0.1436 -0.5124
   80CHL1  H21A 8379   0.037   5.319   7.839 -1.1780  0.4906  0.6263
   80CHL1  H21B 8380   0.147   5.251   7.950 -0.2668  1.6170  0.7309
   80CHL1  H21C 8381   0.213   5.281   7.788  1.9935  0.8150  1.6130
   80CHL1   C22 8382   0.121   5.525   8.012 -0.1944 -0.5540 -0.4943
   80CHL1  H22A 8383   0.147   5.630   8.038  0.0189 -0.8906  0.6837
   80CHL1  H22B 8384   0.012   5.529   7.992  0.2292 -0.6668 -3.0243
   80CHL1   C23 8385   0.132   5.452   8.153 -0.3269  0.3452 -0.3465
   80CHL1  H23A 8386   0.033   5.464   8.203  0.8659  0.2141  2.1415
   80CHL1  H23B 8387   0.154   5.344   8.142 -0.4571  0.4984 -2.2031
   80CHL1   C24 8388   0.247   5.506   8.238 -0.3130 -0.0532  0.3414
   80CHL1  H24A 8389   0.331   5.520   8.167 -2.0363  0.5833 -1.6325
   80CHL1  H24B 8390   0.212   5.607   8.265 -0.3146  0.1322 -0.3487
   80CHL1   C25 8391   0.270   5.417   8.358 -0.0203  0.2696  0.1641
   80CHL1   H25 8392   0.250   5.312   8.328 -1.8964  0.1336  1.7942
   80CHL1   C26 8393   0.415   5.423   8.410  0.1501  0.0889  1.5484
   80CHL1  H26A 8394   0.425   5.533   8.425 -1.2619  0.3151  0.9485
   80CHL1  H26B 8395   0.421   5.383   8.513 -1.7848 -0.7020  1.3825
   80CHL1  H26C 8396   0.499   5.388   8.347 -1.5847  1.2322 -1.4950
   80CHL1   C27 8397   0.173   5.447   8.479  0.7802  0.0427 -0.1945
   80CHL1  H27A 8398   0.069   5.437   8.443  0.5638  3.0055 -0.4782
   80CHL1  H27B 8399   0.189   5.377   8.564 -0.7974 -0.1691 -0.0713
   80CHL1  H27C 8400   0.177   5.553   8.513 -1.3114  0.8024 -2.2274
   81CHL1    C3 8401   3.755   6.650   6.774  0.5433  0.3823 -0.1917
   81CHL1    H3 8402   3.804   6.746   6.799  1.3174  0.0400 -0.3760
   81CHL1    O3 8403   3.712   6.652   6.637  0.1753  0.2949  0.6692
   81CHL1   H3' 8404   3.696   6.558   6.625 -0.6156  0.4395  0.5798
   81CHL1    C4 8405   3.858   6.539   6.803 -0.3921  0.4689  0.4696
   81CHL1   H4A 8406   3.818   6.436   6.790  0.5249  0.3706 -1.6449
   81CHL1   H4B 8407   3.931   6.557   6.721  1.2054 -1.4407  1.4273
   81CHL1    C5 8408   3.911   6.543   6.942  0.7358  0.1882  0.3763
   81CHL1    C6 8409   4.046   6.547   6.964 -0.8890  0.0101 -0.4412
   81CHL1    H6 8410   4.124   6.550   6.886 -0.9683  1.5037 -0.4691
   81CHL1    C7 8411   4.097   6.552   7.103 -0.1319 -0.0012  0.3960
   81CHL1   H7A 8412   4.197   6.504   7.108 -0.4048 -0.5905  0.2137
   81CHL1   H7B 8413   4.122   6.659   7.118 -0.8714  0.2501 -0.1707
   81CHL1    C8 8414   3.996   6.513   7.219  0.1863 -0.1224 -0.4171
   81CHL1    H8 8415   3.986   6.403   7.205 -0.2710 -0.3072  1.2566
   81CHL1   C14 8416   4.047   6.545   7.361 -0.0616 -0.3307 -0.0710
   81CHL1   H14 8417   4.044   6.656   7.371 -1.1706 -0.4415  1.0308
   81CHL1   C15 8418   4.184   6.496   7.417 -0.2367  0.3976  0.4539
   81CHL1  H15A 8419   4.204   6.389   7.395  2.7849  0.9035  0.4529
   81CHL1  H15B 8420   4.260   6.553   7.359  0.5684 -2.5224 -1.4566
   81CHL1   C16 8421   4.188   6.527   7.566 -0.4669 -0.2020  0.2543
   81CHL1  H16A 8422   4.235   6.436   7.608 -1.3253 -1.0380 -0.5500
   81CHL1  H16B 8423   4.257   6.611   7.589 -0.0305 -0.0948 -1.3695
   81CHL1   C17 8424   4.034   6.553   7.604 -0.0484  0.2877  0.4199
   81CHL1   H17 8425   4.020   6.662   7.618  1.0813  0.2457  2.1315
   81CHL1   C13 8426   3.947   6.510   7.477 -0.0518  0.0655 -0.5151
   81CHL1   C18 8427   3.917   6.353   7.476  0.0044 -0.3866 -0.5551
   81CHL1  H18A 8428   3.873   6.319   7.380 -0.0895 -1.4228 -0.1478
   81CHL1  H18B 8429   4.016   6.305   7.489  0.9279  1.7100  0.5450
   81CHL1  H18C 8430   3.844   6.329   7.556 -1.0306 -0.0503 -1.3904
   81CHL1   C12 8431   3.810   6.583   7.452 -0.4064 -0.6886  0.2423
   81CHL1  H12A 8432   3.731   6.543   7.519  0.6446 -2.5740  0.3763
   81CHL1  H12B 8433   3.819   6.694   7.456 -0.4490 -0.6480 -0.7617
   81CHL1   C11 8434   3.754   6.556   7.311  0.4143 -0.0034  0.3019
   81CHL1  H11A 8435   3.726   6.449   7.303 -0.8356  0.1903  1.8691
   81CHL1  H11B 8436   3.661   6.616   7.316  1.3474  1.3108  2.2191
   81CHL1    C9 8437   3.858   6.578   7.194 -0.2394  0.0922  0.0372
   81CHL1    H9 8438   3.869   6.688   7.205  0.5277 -0.0519  0.7798
   81CHL1   C10 8439   3.807   6.546   7.050 -0.0013 -0.0362 -0.4460
   81CHL1   C19 8440   3.737   6.410   7.055  0.0751 -1.3705  0.6105
   81CHL1  H19A 8441   3.805   6.322   7.067 -1.5112 -2.6574  0.2723
   81CHL1  H19B 8442   3.660   6.407   7.134 -0.9284  0.6701 -0.2636
   81CHL1  H19C 8443   3.676   6.384   6.965 -0.1171  0.5123  0.1814
   81CHL1    C1 8444   3.696   6.650   7.018 -0.1413 -0.5117  0.0229
   81CHL1   H1A 8445   3.610   6.647   7.088 -0.6151 -0.2429 -0.5401
   81CHL1   H1B 8446   3.739   6.752   7.025 -1.2980  0.0914 -1.2662
   81CHL1    C2 8447   3.642   6.645   6.876  0.3570 -0.1437  0.3477
   81CHL1   H2A 8448   3.564   6.722   6.854 -1.0171 -1.0448  1.9290
   81CHL1   H2B 8449   3.591   6.549   6.855 -1.6378  1.2774 -1.4321
   81CHL1   C20 8450   3.997   6.492   7.743 -0.3441 -0.6000  0.2304
   81CHL1   H20 8451   4.001   6.382   7.733 -2.6604 -0.7558  0.8691
   81CHL1   C21 8452   3.855   6.535   7.769  0.3596 -0.0076  0.9853
   81CHL1  H21A 8453   3.845   6.644   7.749 -1.2344 -0.0350  1.5615
   81CHL1  H21B 8454   3.827   6.508   7.873 -1.4418 -0.3457  0.4176
   81CHL1  H21C 8455   3.795   6.482   7.692 -0.3739  1.0961  0.7754
   81CHL1   C22 8456   4.093   6.526   7.860  0.4687 -0.0267  0.0406
   81CHL1  H22A 8457   4.194   6.485   7.837 -0.5508 -2.1225 -0.7403
   81CHL1  H22B 8458   4.096   6.636   7.880  2.5799  0.4282 -2.4404
   81CHL1   C23 8459   4.071   6.463   7.998 -0.8027 -0.8012 -0.2559
   81CHL1  H23A 8460   4.128   6.514   8.079 -0.1551  0.7168 -1.6193
   81CHL1  H23B 8461   3.963   6.466   8.024 -0.5298 -1.5706  1.0344
   81CHL1   C24 8462   4.108   6.319   8.007 -0.8148 -0.1566 -0.4637
   81CHL1  H24A 8463   4.076   6.265   7.915  2.1632 -1.5737 -0.7322
   81CHL1  H24B 8464   4.218   6.325   8.014 -0.9109  0.8186  0.4049
   81CHL1   C25 8465   4.062   6.244   8.129 -0.6678  0.6433 -0.0156
   81CHL1   H25 8466   3.952   6.252   8.122 -0.4573  2.7578 -1.3633
   81CHL1   C26 8467   4.095   6.090   8.118 -0.1627  0.4903 -0.2180
   81CHL1  H26A 8468   4.018   6.048   8.050  0.6309  1.0358 -1.4731
   81CHL1  H26B 8469   4.190   6.086   8.060 -0.5000 -3.8420 -0.6736
   81CHL1  H26C 8470   4.102   6.040   8.217 -0.0675 -0.1652 -0.5479
   81CHL1   C27 8471   4.117   6.297   8.263 -0.4499  0.4288  0.0893
   81CHL1  H27A 8472   4.219   6.257   8.275 -0.8394 -1.1216 -1.5669
   81CHL1  H27B 8473   4.108   6.408   8.271 -2.1353  0.3275 -0.1542
   81CHL1  H27C 8474   4.065   6.235   8.339 -0.6067  1.5172  0.8791
   82CHL1    C3 8475   5.583   6.056   6.877 -0.9609 -0.0665  0.3999
   82CHL1    H3 8476   5.573   5.953   6.918 -2.6255 -0.6813 -1.4647
   82CHL1    O3 8477   5.651   6.057   6.756 -0.2999 -0.1493  0.4008
   82CHL1   H3' 8478   5.643   6.148   6.727 -2.1596 -0.7456 -1.0049
   82CHL1    C4 8479   5.443   6.118   6.869  0.5633 -1.0376 -0.0420
   82CHL1   H4A 8480   5.454   6.208   6.805 -0.1396  0.1085  1.4323
   82CHL1   H4B 8481   5.383   6.051   6.803 -2.4411  2.2983 -0.8691
   82CHL1    C5 8482   5.371   6.134   6.998  0.0824 -0.3575 -0.3485
   82CHL1    C6 8483   5.252   6.081   7.016 -0.6141  0.2197 -0.1383
   82CHL1    H6 8484   5.198   6.030   6.935 -1.0721 -0.3659  0.5274
   82CHL1    C7 8485   5.172   6.097   7.144  0.7055 -0.6875 -0.3085
   82CHL1   H7A 8486   5.067   6.123   7.119  0.7603  1.0682  1.1915
   82CHL1   H7B 8487   5.165   6.006   7.207 -0.0041 -0.3828  0.0614
   82CHL1    C8 8488   5.231   6.210   7.234 -0.1378 -0.1325 -0.1238
   82CHL1    H8 8489   5.195   6.305   7.189  0.0851 -0.0827 -0.1968
   82CHL1   C14 8490   5.180   6.206   7.378  0.3423  0.2068  0.3684
   82CHL1   H14 8491   5.214   6.111   7.424  0.3857 -0.9147 -1.8695
   82CHL1   C15 8492   5.030   6.193   7.393  0.6026 -0.5879  0.8047
   82CHL1  H15A 8493   4.972   6.267   7.334 -0.2702 -1.8135  0.1158
   82CHL1  H15B 8494   4.989   6.092   7.371 -1.1537  0.6694 -1.8120
   82CHL1   C16 8495   5.001   6.218   7.540 -0.0219 -0.6502 -0.2094
   82CHL1  H16A 8496   4.909   6.279   7.551  0.1444 -0.4409  0.0383
   82CHL1  H16B 8497   4.974   6.125   7.594 -2.6949  0.3382  0.2180
   82CHL1   C17 8498   5.134   6.273   7.595 -0.6373 -0.3829 -0.2164
   82CHL1   H17 8499   5.194   6.188   7.635  1.1467  0.7321 -0.4412
   82CHL1   C13 8500   5.224   6.321   7.477  0.1774  0.1686  0.3100
   82CHL1   C18 8501   5.172   6.454   7.419 -0.2015  0.7557  0.2400
   82CHL1  H18A 8502   5.062   6.466   7.424 -0.5881 -1.8531 -1.1167
   82CHL1  H18B 8503   5.220   6.535   7.478  0.3458 -0.4374  1.4700
   82CHL1  H18C 8504   5.206   6.474   7.315 -0.6235 -2.7617 -0.6311
   82CHL1   C12 8505   5.375   6.313   7.482  0.1184  0.5388 -0.1375
   82CHL1  H12A 8506   5.413   6.386   7.556  3.0773 -1.1022  0.0354
   82CHL1  H12B 8507   5.396   6.210   7.518 -2.0420 -0.4465 -1.5638
   82CHL1   C11 8508   5.437   6.318   7.343  0.4561 -0.1790  0.1488
   82CHL1  H11A 8509   5.407   6.419   7.307  0.5197 -0.3446 -0.3731
   82CHL1  H11B 8510   5.548   6.324   7.348  0.4002  0.1433  1.0213
   82CHL1    C9 8511   5.382   6.210   7.241  0.4462  0.2089  0.5990
   82CHL1    H9 8512   5.412   6.115   7.289 -1.1254 -0.5683  0.0751
   82CHL1   C10 8513   5.445   6.216   7.102 -0.3401  0.8750  0.7629
   82CHL1   C19 8514   5.444   6.360   7.056 -0.7324  0.6082  0.1071
   82CHL1  H19A 8515   5.479   6.362   6.951 -0.0280 -0.4187  0.3166
   82CHL1  H19B 8516   5.343   6.405   7.049 -0.1882  1.4962 -2.4935
   82CHL1  H19C 8517   5.507   6.431   7.114  0.2012  0.0976 -0.2738
   82CHL1    C1 8518   5.593   6.161   7.106 -0.0347  0.1998  0.5235
   82CHL1   H1A 8519   5.649   6.236   7.167  0.8145 -0.0898  0.1093
   82CHL1   H1B 8520   5.582   6.063   7.156  0.8827  0.2549  0.8462
   82CHL1    C2 8521   5.676   6.135   6.979 -0.4714  0.0076 -0.6115
   82CHL1   H2A 8522   5.766   6.074   7.001 -1.4161 -0.5998  1.6523
   82CHL1   H2B 8523   5.695   6.232   6.928 -1.6880  1.9077  2.3743
   82CHL1   C20 8524   5.108   6.365   7.715  0.8463 -0.0027 -1.0120
   82CHL1   H20 8525   5.040   6.445   7.676 -0.2763 -1.5631 -2.3630
   82CHL1   C21 8526   5.243   6.415   7.764  0.1032  0.0453  0.4738
   82CHL1  H21A 8527   5.239   6.479   7.854 -1.3397 -1.0591  1.2207
   82CHL1  H21B 8528   5.283   6.483   7.686  1.9324 -0.1995  1.1691
   82CHL1  H21C 8529   5.305   6.324   7.781  0.7367  0.2245 -0.8322
   82CHL1   C22 8530   5.031   6.290   7.833  0.2970  0.4529 -0.4425
   82CHL1  H22A 8531   4.959   6.214   7.797 -1.7226  0.9591  2.3783
   82CHL1  H22B 8532   5.104   6.230   7.892  0.8943  1.6957  0.1105
   82CHL1   C23 8533   4.963   6.390   7.928  0.3573 -0.3095 -0.6963
   82CHL1  H23A 8534   5.012   6.490   7.930  0.9340 -0.5958  0.1973
   82CHL1  H23B 8535   4.864   6.412   7.882 -0.0082 -0.3794  0.0371
   82CHL1   C24 8536   4.935   6.339   8.068 -0.0534  0.6448 -0.3881
   82CHL1  H24A 8537   4.887   6.239   8.072  1.3139 -0.0148  0.1136
   82CHL1  H24B 8538   5.029   6.309   8.121  0.0530  1.3429 -0.1825
   82CHL1   C25 8539   4.843   6.431   8.160  0.0060  0.6760  0.6011
   82CHL1   H25 8540   4.751   6.460   8.105 -0.1194 -0.6583  0.1007
   82CHL1   C26 8541   4.789   6.356   8.289 -0.3151 -0.4119  0.0741
   82CHL1  H26A 8542   4.715   6.274   8.278 -0.1856 -0.4998 -0.1690
   82CHL1  H26B 8543   4.870   6.306   8.347 -0.2883  1.6836  1.8940
   82CHL1  H26C 8544   4.742   6.427   8.360  0.9209 -0.7042  1.1987
   82CHL1   C27 8545   4.915   6.568   8.196 -0.8960  0.4104 -0.3594
   82CHL1  H27A 8546   5.008   6.542   8.250 -1.9426  0.4140  1.4998
   82CHL1  H27B 8547   4.934   6.626   8.103 -0.2751  1.4817  0.4365
   82CHL1  H27C 8548   4.851   6.627   8.265  0.1616  0.7061  0.3666
   83CHL1    C3 8549   1.800   1.024   6.887  0.8321 -0.2213 -0.6858
   83CHL1    H3 8550   1.861   0.934   6.864  0.7295 -0.2729 -0.7567
   83CHL1    O3 8551   1.753   1.087   6.766 -0.1374 -0.1720 -0.1543
   83CHL1   H3' 8552   1.686   1.149   6.795 -0.0586 -0.4855  0.7154
   83CHL1    C4 8553   1.687   0.975   6.973  0.3636  0.5018 -0.1911
   83CHL1   H4A 8554   1.609   1.053   6.985  0.0945  0.5382 -1.9835
   83CHL1   H4B 8555   1.641   0.893   6.913 -0.5961 -0.5766  1.9741
   83CHL1    C5 8556   1.741   0.923   7.108  0.4059  0.9134 -0.1685
   83CHL1    C6 8557   1.725   0.796   7.148 -0.7209  0.2895 -0.1346
   83CHL1    H6 8558   1.671   0.726   7.082  1.3734 -0.2387 -1.3384
   83CHL1    C7 8559   1.767   0.738   7.276 -0.7557  0.1051  0.1026
   83CHL1   H7A 8560   1.685   0.671   7.312  0.6018 -0.3342  2.4824
   83CHL1   H7B 8561   1.864   0.687   7.261 -1.2418 -1.0172  0.6795
   83CHL1    C8 8562   1.775   0.855   7.377 -0.4562 -0.1945 -0.2553
   83CHL1    H8 8563   1.672   0.897   7.378  0.4690  2.1763 -0.3046
   83CHL1   C14 8564   1.814   0.815   7.519  0.2375 -0.2008 -0.4357
   83CHL1   H14 8565   1.910   0.759   7.518 -1.0279 -2.4919  0.9567
   83CHL1   C15 8566   1.725   0.712   7.590  0.1043  0.6533  0.0260
   83CHL1  H15A 8567   1.617   0.716   7.563 -0.1202 -0.8676  0.6584
   83CHL1  H15B 8568   1.758   0.611   7.559  2.1926  1.2274  0.3467
   83CHL1   C16 8569   1.758   0.726   7.734 -0.5445 -0.5567  0.4721
   83CHL1  H16A 8570   1.666   0.752   7.791 -0.5570  2.2140 -0.7415
   83CHL1  H16B 8571   1.810   0.635   7.770 -0.2904 -1.1404 -1.2871
   83CHL1   C17 8572   1.855   0.848   7.749  0.2129 -0.5370 -0.2894
   83CHL1   H17 8573   1.955   0.799   7.750  0.9938  1.0237 -0.2354
   83CHL1   C13 8574   1.819   0.932   7.623  0.1413 -0.7505  0.0797
   83CHL1   C18 8575   1.681   1.000   7.644 -0.0133  0.2693  0.7486
   83CHL1  H18A 8576   1.648   1.045   7.548  0.6452 -1.6560 -0.4105
   83CHL1  H18B 8577   1.595   0.934   7.669 -1.2049  1.5438  0.0835
   83CHL1  H18C 8578   1.697   1.084   7.714  2.5619  0.6616 -0.2821
   83CHL1   C12 8579   1.937   1.022   7.576 -0.3035  0.3372  0.2437
   83CHL1  H12A 8580   1.951   1.114   7.638  2.3420  0.0809  0.0864
   83CHL1  H12B 8581   2.033   0.969   7.558 -0.2275  1.0024 -1.4743
   83CHL1   C11 8582   1.918   1.074   7.430  0.3429  0.3074  0.0545
   83CHL1  H11A 8583   1.834   1.147   7.434  1.2467  1.3296  0.6814
   83CHL1  H11B 8584   2.003   1.133   7.390  0.6860 -1.0356 -1.2626
   83CHL1    C9 8585   1.876   0.963   7.323 -0.7598 -0.3324  0.0716
   83CHL1    H9 8586   1.970   0.907   7.303 -1.1541 -1.4731  1.3528
   83CHL1   C10 8587   1.825   1.025   7.188  0.0124 -0.0427  0.2883
   83CHL1   C19 8588   1.730   1.137   7.226 -0.0390  0.1206  0.5723
   83CHL1  H19A 8589   1.785   1.230   7.252 -0.5229  0.0476  1.8871
   83CHL1  H19B 8590   1.663   1.174   7.145  2.4621 -0.0315 -1.6459
   83CHL1  H19C 8591   1.664   1.100   7.308  0.9619 -0.6323  1.0444
   83CHL1    C1 8592   1.936   1.074   7.096 -0.1835  0.3368 -0.4916
   83CHL1   H1A 8593   2.000   1.147   7.151  2.4182 -1.3762 -1.1415
   83CHL1   H1B 8594   2.011   0.995   7.072 -1.5991 -0.9461 -0.7633
   83CHL1    C2 8595   1.895   1.124   6.954 -0.1082 -0.0771 -0.5092
   83CHL1   H2A 8596   1.979   1.168   6.896  0.1637 -1.5053 -1.2138
   83CHL1   H2B 8597   1.838   1.216   6.980  4.6724  3.6996 -2.5237
   83CHL1   C20 8598   1.838   0.918   7.883  0.3678 -0.6779  0.3624
   83CHL1   H20 8599   1.737   0.964   7.884  1.0057  0.8531 -1.9179
   83CHL1   C21 8600   1.950   1.020   7.912  0.4644  0.1559  0.0456
   83CHL1  H21A 8601   1.929   1.069   8.009  0.7527 -3.7424  2.1671
   83CHL1  H21B 8602   1.956   1.105   7.840  0.0716  2.5200  2.6985
   83CHL1  H21C 8603   2.052   0.975   7.917  0.5061  0.2770  0.3141
   83CHL1   C22 8604   1.829   0.816   7.989  0.0134 -0.2715  0.0612
   83CHL1  H22A 8605   1.752   0.737   7.975 -1.3007  0.9662  0.2338
   83CHL1  H22B 8606   1.932   0.780   8.011 -0.2091 -0.8598  0.1466
   83CHL1   C23 8607   1.796   0.869   8.123  0.6499 -0.2481  0.0631
   83CHL1  H23A 8608   1.882   0.933   8.153 -0.2590  1.0044  0.0384
   83CHL1  H23B 8609   1.707   0.935   8.116 -0.1914 -1.3470  0.3056
   83CHL1   C24 8610   1.799   0.760   8.230 -0.7074  0.2843  0.1673
   83CHL1  H24A 8611   1.742   0.672   8.193  0.3133 -1.0548  1.6580
   83CHL1  H24B 8612   1.904   0.723   8.230 -0.2807  1.4562  1.5488
   83CHL1   C25 8613   1.775   0.802   8.375  0.7871  0.6762 -0.1148
   83CHL1   H25 8614   1.822   0.901   8.398 -1.2241  2.0955 -1.9186
   83CHL1   C26 8615   1.619   0.820   8.406 -0.0168  0.1264 -0.4411
   83CHL1  H26A 8616   1.566   0.897   8.347 -2.4502 -0.6428  0.6629
   83CHL1  H26B 8617   1.549   0.734   8.391 -0.1468  0.8662 -4.5013
   83CHL1  H26C 8618   1.607   0.842   8.514 -2.4771  1.0167 -0.8578
   83CHL1   C27 8619   1.832   0.704   8.482 -0.7071  0.2751  0.6138
   83CHL1  H27A 8620   1.774   0.609   8.480  0.9107 -0.7354  0.8851
   83CHL1  H27B 8621   1.937   0.689   8.450 -0.4599  2.5183  0.2976
   83CHL1  H27C 8622   1.826   0.744   8.585  0.1832  0.2267  0.6844
   84CHL1    C3 8623   3.708   4.152   7.002 -0.5848 -0.2256  0.4069
   84CHL1    H3 8624   3.643   4.238   7.029  2.5940  2.3122  0.3651
   84CHL1    O3 8625   3.650   4.081   6.891 -0.0601 -0.3556 -0.4812
   84CHL1   H3' 8626   3.615   4.146   6.830  0.9918  0.2842 -0.4118
   84CHL1    C4 8627   3.838   4.209   6.952  0.3947  0.0145 -0.7302
   84CHL1   H4A 8628   3.897   4.123   6.913  0.1617 -0.5214  0.0882
   84CHL1   H4B 8629   3.822   4.276   6.865 -0.9912 -1.2130 -1.4321
   84CHL1    C5 8630   3.914   4.274   7.063 -0.6286 -0.5500 -0.2877
   84CHL1    C6 8631   3.955   4.402   7.060  0.3203  0.0222  0.3168
   84CHL1    H6 8632   3.923   4.461   6.973  1.0311 -0.7279 -0.4678
   84CHL1    C7 8633   4.056   4.466   7.155 -0.1038 -0.0024  0.4428
   84CHL1   H7A 8634   4.133   4.517   7.093  0.6964 -1.2991  0.3558
   84CHL1   H7B 8635   3.998   4.537   7.219  2.5310  0.6570  2.1516
   84CHL1    C8 8636   4.120   4.370   7.256 -0.1403  0.1963 -0.3264
   84CHL1    H8 8637   4.204   4.327   7.198  1.8272  1.1651  1.7320
   84CHL1   C14 8638   4.157   4.436   7.385 -1.0606  0.1536 -0.9013
   84CHL1   H14 8639   4.061   4.470   7.429 -0.3615  0.2725  0.5599
   84CHL1   C15 8640   4.235   4.565   7.383  0.5123  0.0150  0.8648
   84CHL1  H15A 8641   4.326   4.553   7.321 -0.0710  1.3813 -0.2962
   84CHL1  H15B 8642   4.171   4.643   7.336  0.5807  0.0133  0.7703
   84CHL1   C16 8643   4.284   4.596   7.523 -0.5083  0.7372 -0.3402
   84CHL1  H16A 8644   4.393   4.610   7.508 -0.7696  2.7628 -0.4478
   84CHL1  H16B 8645   4.241   4.689   7.566 -1.2638 -0.5961  1.8682
   84CHL1   C17 8646   4.258   4.469   7.603 -0.8139 -0.3006  0.4568
   84CHL1   H17 8647   4.170   4.496   7.665  0.4156 -0.2926  2.2413
   84CHL1   C13 8648   4.228   4.362   7.503  0.7318 -0.4153 -0.6074
   84CHL1   C18 8649   4.363   4.302   7.453  0.6677 -1.1906 -0.0720
   84CHL1  H18A 8650   4.355   4.274   7.346  1.8210  0.3321 -0.5611
   84CHL1  H18B 8651   4.433   4.387   7.461 -0.6599  0.0461 -1.3257
   84CHL1  H18C 8652   4.391   4.213   7.514  0.4357 -2.3451 -1.6240
   84CHL1   C12 8653   4.126   4.255   7.539  0.0388 -0.3731 -0.3411
   84CHL1  H12A 8654   4.175   4.175   7.598 -1.4194 -0.2903  1.0282
   84CHL1  H12B 8655   4.038   4.293   7.596  1.1539 -0.7920  1.6829
   84CHL1   C11 8656   4.065   4.175   7.420 -0.1390  0.2112  0.3496
   84CHL1  H11A 8657   4.150   4.118   7.379 -1.7343 -2.3399  0.4734
   84CHL1  H11B 8658   3.977   4.112   7.446  0.0734 -1.0915 -2.0558
   84CHL1    C9 8659   4.016   4.264   7.302  0.0368 -0.3302 -0.8166
   84CHL1    H9 8660   3.932   4.316   7.351 -1.1921 -2.1140 -0.9944
   84CHL1   C10 8661   3.955   4.181   7.182  0.0204  0.0648 -0.1892
   84CHL1   C19 8662   4.042   4.066   7.136  0.2744  0.6358 -0.1745
   84CHL1  H19A 8663   4.146   4.094   7.108  0.2917 -0.1166 -0.8495
   84CHL1  H19B 8664   4.042   3.995   7.222 -0.2040  0.5077 -0.2793
   84CHL1  H19C 8665   3.987   4.025   7.049 -1.3467  2.2091  0.0568
   84CHL1    C1 8666   3.814   4.123   7.231 -0.7131  0.0070  0.3404
   84CHL1   H1A 8667   3.820   4.050   7.315 -1.7516 -0.6102 -0.1023
   84CHL1   H1B 8668   3.751   4.207   7.266 -1.3542  0.3340 -1.5413
   84CHL1    C2 8669   3.733   4.062   7.120  0.5624  0.4208  0.0941
   84CHL1   H2A 8670   3.635   4.029   7.161  1.3083 -2.5523 -0.3919
   84CHL1   H2B 8671   3.780   3.970   7.080  1.8626  0.0233  2.4747
   84CHL1   C20 8672   4.365   4.447   7.712 -0.5580  0.1228 -0.2909
   84CHL1   H20 8673   4.463   4.416   7.670 -1.5129 -2.4798 -0.7208
   84CHL1   C21 8674   4.328   4.330   7.802 -0.2871 -0.1100  0.1331
   84CHL1  H21A 8675   4.224   4.350   7.836 -0.3129  1.2560 -0.6951
   84CHL1  H21B 8676   4.390   4.324   7.894  1.4563 -1.8936 -1.1125
   84CHL1  H21C 8677   4.339   4.231   7.753 -3.0552 -0.6587  0.5358
   84CHL1   C22 8678   4.384   4.574   7.807  0.3605  0.8836 -0.0996
   84CHL1  H22A 8679   4.468   4.549   7.876  0.8197  1.2607 -0.5188
   84CHL1  H22B 8680   4.419   4.668   7.759  0.4176  0.5524 -0.7103
   84CHL1   C23 8681   4.260   4.613   7.890  0.7970 -0.2594 -0.4654
   84CHL1  H23A 8682   4.176   4.645   7.825  1.2157  0.0038 -0.8807
   84CHL1  H23B 8683   4.229   4.521   7.944  1.6814  0.4304  1.2229
   84CHL1   C24 8684   4.294   4.730   7.979 -0.0144  0.6243 -0.6466
   84CHL1  H24A 8685   4.379   4.701   8.044 -0.7143  1.7143  0.7796
   84CHL1  H24B 8686   4.332   4.815   7.918  1.1385 -0.0353 -0.8619
   84CHL1   C25 8687   4.170   4.782   8.066 -0.3717  0.6602 -1.0201
   84CHL1   H25 8688   4.093   4.823   7.997  0.2411  0.6509 -1.7236
   84CHL1   C26 8689   4.090   4.674   8.137  0.2564 -0.0622  0.3560
   84CHL1  H26A 8690   4.036   4.608   8.067  1.7827 -0.6918 -0.2581
   84CHL1  H26B 8691   4.156   4.624   8.212  0.4154  1.6277  1.3781
   84CHL1  H26C 8692   4.013   4.729   8.195 -0.9222 -0.1473 -1.1330
   84CHL1   C27 8693   4.218   4.884   8.166 -0.1470 -0.2553  0.5357
   84CHL1  H27A 8694   4.129   4.936   8.208  0.3066  1.9651 -1.1825
   84CHL1  H27B 8695   4.284   4.835   8.241 -0.0630  1.6398  1.7323
   84CHL1  H27C 8696   4.276   4.965   8.118  0.7693  0.3244  2.5698
   85CHL1    C3 8697   3.850   1.359   6.853 -0.2044 -0.0118 -0.3585
   85CHL1    H3 8698   3.904   1.447   6.894  2.4155 -1.4578 -0.6195
   85CHL1    O3 8699   3.815   1.365   6.716  0.3134  0.2113 -0.1199
   85CHL1   H3' 8700   3.899   1.347   6.673 -0.4666 -1.2907 -1.0722
   85CHL1    C4 8701   3.939   1.240   6.889  0.1432  0.9309 -0.8727
   85CHL1   H4A 8702   3.896   1.144   6.854 -1.3778  0.9656  0.8057
   85CHL1   H4B 8703   4.031   1.251   6.828 -0.3898 -1.5649 -2.1686
   85CHL1    C5 8704   3.972   1.228   7.039 -0.2745 -0.1791 -0.4560
   85CHL1    C6 8705   4.105   1.222   7.090  0.1584  0.6390  0.1393
   85CHL1    H6 8706   4.186   1.239   7.017  2.1298 -1.0298  1.8522
   85CHL1    C7 8707   4.137   1.217   7.231 -0.0152  0.1649 -1.0872
   85CHL1   H7A 8708   4.222   1.156   7.266 -0.2392  0.1864 -0.4942
   85CHL1   H7B 8709   4.160   1.322   7.259  2.8642 -0.0609 -2.4519
   85CHL1    C8 8710   4.017   1.179   7.326 -0.0184 -0.0487  0.9873
   85CHL1    H8 8711   3.997   1.070   7.327 -1.7721  0.2408  0.0304
   85CHL1   C14 8712   4.049   1.231   7.468 -0.5053 -0.0262 -0.0865
   85CHL1   H14 8713   4.074   1.340   7.462  1.6718 -0.5316 -0.8608
   85CHL1   C15 8714   4.185   1.178   7.527 -0.1025 -0.5598 -0.2572
   85CHL1  H15A 8715   4.203   1.071   7.501  0.6298  0.0585 -2.4011
   85CHL1  H15B 8716   4.267   1.228   7.471 -1.1427  0.8553 -0.5574
   85CHL1   C16 8717   4.168   1.209   7.682 -0.2087 -0.4976  0.1418
   85CHL1  H16A 8718   4.189   1.112   7.731  0.5030 -0.8527 -0.8707
   85CHL1  H16B 8719   4.245   1.286   7.702 -0.8719  0.1953  0.0724
   85CHL1   C17 8720   4.028   1.261   7.703 -0.2084  0.0770  0.3180
   85CHL1   H17 8721   4.032   1.372   7.703 -0.0933  0.0810  1.6752
   85CHL1   C13 8722   3.944   1.211   7.579  0.4076  0.1808 -0.1098
   85CHL1   C18 8723   3.918   1.058   7.588 -0.0956 -0.1394 -0.0834
   85CHL1  H18A 8724   4.011   1.008   7.621 -0.3373 -0.7907 -0.3601
   85CHL1  H18B 8725   3.829   1.042   7.653 -0.0415 -0.3216 -0.0539
   85CHL1  H18C 8726   3.897   1.016   7.487  2.3097  0.4565 -0.8601
   85CHL1   C12 8727   3.819   1.292   7.541 -0.7535  0.5153 -0.0027
   85CHL1  H12A 8728   3.738   1.281   7.616  1.9425  1.4607  3.2001
   85CHL1  H12B 8729   3.839   1.401   7.536 -0.8714  0.5382  0.0259
   85CHL1   C11 8730   3.786   1.254   7.393  0.1781 -0.2218 -0.1581
   85CHL1  H11A 8731   3.745   1.151   7.390  0.9940 -0.6270  1.8676
   85CHL1  H11B 8732   3.705   1.326   7.367 -0.2971 -0.6479  0.1442
   85CHL1    C9 8733   3.900   1.259   7.287 -0.0939  0.1984 -0.9746
   85CHL1    H9 8734   3.928   1.367   7.294  3.3049 -0.6519 -0.8402
   85CHL1   C10 8735   3.859   1.236   7.138  0.5910 -0.4002 -0.5018
   85CHL1   C19 8736   3.793   1.097   7.128 -0.1735  0.0153 -0.1406
   85CHL1  H19A 8737   3.856   1.017   7.173 -1.1090 -0.9994 -0.5993
   85CHL1  H19B 8738   3.697   1.095   7.184  1.6033 -1.9432  2.9720
   85CHL1  H19C 8739   3.774   1.062   7.024  0.0406  1.3370 -0.6335
   85CHL1    C1 8740   3.750   1.344   7.092  0.2926  0.1465 -0.1927
   85CHL1   H1A 8741   3.652   1.326   7.142 -0.3455  1.3654 -0.9594
   85CHL1   H1B 8742   3.785   1.445   7.124 -0.1168  0.1263  0.3272
   85CHL1    C2 8743   3.724   1.344   6.938  0.6899  0.6080  0.3473
   85CHL1   H2A 8744   3.650   1.421   6.908  0.6518 -0.5866 -2.8684
   85CHL1   H2B 8745   3.674   1.246   6.920 -0.2840  0.7890  2.0169
   85CHL1   C20 8746   3.988   1.205   7.843 -0.5225 -0.2283  0.2734
   85CHL1   H20 8747   3.983   1.094   7.844  0.9429 -0.3008  1.0579
   85CHL1   C21 8748   3.844   1.252   7.880  0.1504  0.4821  0.5153
   85CHL1  H21A 8749   3.808   1.215   7.979 -2.0284 -0.5915 -0.6536
   85CHL1  H21B 8750   3.768   1.224   7.804 -1.6751  0.7778  2.1814
   85CHL1  H21C 8751   3.845   1.364   7.879  1.2640  0.4617 -0.8049
   85CHL1   C22 8752   4.087   1.254   7.952  0.1734  0.1041 -0.0041
   85CHL1  H22A 8753   4.192   1.228   7.924  0.3118  1.6108 -0.9680
   85CHL1  H22B 8754   4.082   1.365   7.951  1.9231  0.2047  0.4385
   85CHL1   C23 8755   4.064   1.214   8.096 -0.1588 -0.1822  0.3460
   85CHL1  H23A 8756   3.963   1.256   8.115 -0.1931 -0.3320  0.4883
   85CHL1  H23B 8757   4.061   1.105   8.117  3.8925 -0.7478 -1.5336
   85CHL1   C24 8758   4.178   1.273   8.178 -0.2853  0.5344 -0.3789
   85CHL1  H24A 8759   4.272   1.240   8.129 -0.1513  1.5007 -0.7838
   85CHL1  H24B 8760   4.177   1.384   8.178  1.0336  0.5769  2.1453
   85CHL1   C25 8761   4.173   1.233   8.330 -0.4482  0.5069 -0.0628
   85CHL1   H25 8762   4.065   1.238   8.356 -1.1478  0.5662 -2.8564
   85CHL1   C26 8763   4.223   1.090   8.371  0.0055 -0.3384 -0.3973
   85CHL1  H26A 8764   4.331   1.081   8.346 -0.0928 -1.8472 -0.3707
   85CHL1  H26B 8765   4.208   1.071   8.479  0.5488  3.9554  0.5243
   85CHL1  H26C 8766   4.169   1.010   8.315 -2.2841  0.2270  0.9512
   85CHL1   C27 8767   4.253   1.335   8.413 -0.4476  0.2636 -0.1896
   85CHL1  H27A 8768   4.203   1.434   8.402  0.8514  1.2656  2.4467
   85CHL1  H27B 8769   4.261   1.325   8.524  1.3088 -0.9315 -0.4072
   85CHL1  H27C 8770   4.356   1.349   8.374 -0.6153  0.1160 -0.6877
   86CHL1    C3 8771   5.811   5.486   6.866  0.0930 -0.8050  0.2058
   86CHL1    H3 8772   5.728   5.559   6.879 -1.0753 -2.3879  1.9919
   86CHL1    O3 8773   5.833   5.468   6.733 -0.2892 -0.0888  0.2102
   86CHL1   H3' 8774   5.747   5.439   6.703 -1.3376 -1.3083  4.0949
   86CHL1    C4 8775   5.932   5.547   6.940  0.5569 -0.0199 -0.3022
   86CHL1   H4A 8776   6.020   5.483   6.919  1.3053  1.2064 -0.9471
   86CHL1   H4B 8777   5.948   5.647   6.894 -0.5604  0.4649  0.3149
   86CHL1    C5 8778   5.920   5.564   7.089  0.2552  0.7100  0.2313
   86CHL1    C6 8779   5.953   5.675   7.151  0.2246 -0.5196  0.3311
   86CHL1    H6 8780   5.983   5.763   7.092 -0.6192  0.5121  1.3951
   86CHL1    C7 8781   5.962   5.688   7.293  0.5567  0.1832 -0.0855
   86CHL1   H7A 8782   6.059   5.733   7.325 -1.4470  1.7825  4.1051
   86CHL1   H7B 8783   5.879   5.755   7.324  0.1724 -0.8931  1.2621
   86CHL1    C8 8784   5.937   5.556   7.376 -0.0584 -0.3131 -0.1203
   86CHL1    H8 8785   6.037   5.508   7.378 -0.2865 -0.7666  0.5227
   86CHL1   C14 8786   5.898   5.584   7.521  0.3287 -0.1861  0.1213
   86CHL1   H14 8787   5.808   5.648   7.507  1.0742  0.6213 -1.1236
   86CHL1   C15 8788   5.992   5.670   7.600 -0.3077 -0.3180 -0.4996
   86CHL1  H15A 8789   6.095   5.633   7.580  0.2586 -0.1829  1.9280
   86CHL1  H15B 8790   5.986   5.775   7.564  0.2535  0.8228  2.5773
   86CHL1   C16 8791   5.953   5.654   7.745  0.1718 -0.6444  0.0881
   86CHL1  H16A 8792   6.037   5.653   7.817 -0.2926  1.6006  0.7016
   86CHL1  H16B 8793   5.887   5.736   7.780  2.5639  1.4145 -0.1228
   86CHL1   C17 8794   5.868   5.521   7.750 -0.3930  1.0689  0.2748
   86CHL1   H17 8795   5.761   5.546   7.765 -1.2033 -1.4795 -1.0149
   86CHL1   C13 8796   5.877   5.456   7.605  0.2275  0.1100 -0.0144
   86CHL1   C18 8797   6.005   5.371   7.600  0.5367  0.7001 -0.6121
   86CHL1  H18A 8798   6.076   5.430   7.662  0.0874 -0.6302  1.2406
   86CHL1  H18B 8799   5.993   5.272   7.650  1.4091  0.0503 -1.6835
   86CHL1  H18C 8800   6.036   5.343   7.497 -2.1549 -0.6555 -1.1126
   86CHL1   C12 8801   5.760   5.372   7.550  0.0760 -0.4567  0.4262
   86CHL1  H12A 8802   5.758   5.273   7.602 -1.8177 -1.0347 -0.6904
   86CHL1  H12B 8803   5.667   5.429   7.568  1.1575  1.1916  0.8463
   86CHL1   C11 8804   5.789   5.343   7.401 -0.4543 -0.1319  0.3681
   86CHL1  H11A 8805   5.858   5.258   7.389 -0.4311 -0.1023  0.2963
   86CHL1  H11B 8806   5.695   5.296   7.363  1.3155 -0.0609 -4.3505
   86CHL1    C9 8807   5.832   5.468   7.313  0.0753 -0.5039  0.7937
   86CHL1    H9 8808   5.738   5.526   7.305 -0.1416 -1.1226 -1.6057
   86CHL1   C10 8809   5.872   5.437   7.162  0.1636  0.0868  0.7100
   86CHL1   C19 8810   5.990   5.330   7.170 -0.0698 -0.4374 -0.5434
   86CHL1  H19A 8811   6.031   5.305   7.069  1.2825 -1.9567  0.3561
   86CHL1  H19B 8812   6.076   5.369   7.229  1.9626  0.5360 -3.9965
   86CHL1  H19C 8813   5.961   5.235   7.218  0.0517 -0.2482 -0.0906
   86CHL1    C1 8814   5.740   5.381   7.087  0.0737  0.0001 -0.8783
   86CHL1   H1A 8815   5.710   5.293   7.149  0.7089  0.1638 -0.3306
   86CHL1   H1B 8816   5.658   5.454   7.103 -0.6930 -0.8359 -0.9343
   86CHL1    C2 8817   5.761   5.358   6.934 -0.4113  0.6068 -1.2124
   86CHL1   H2A 8818   5.667   5.314   6.893  1.3290 -1.8443 -2.7157
   86CHL1   H2B 8819   5.843   5.283   6.924 -1.7147 -0.8996 -0.8245
   86CHL1   C20 8820   5.900   5.435   7.871 -0.2843 -0.1895  0.2429
   86CHL1   H20 8821   6.002   5.390   7.861 -0.4324 -0.5284  0.2396
   86CHL1   C21 8822   5.813   5.310   7.876  0.2701 -0.0238  0.2981
   86CHL1  H21A 8823   5.717   5.331   7.825 -0.3741  0.1970  1.5649
   86CHL1  H21B 8824   5.796   5.282   7.983 -0.7858 -1.1172 -0.1418
   86CHL1  H21C 8825   5.866   5.226   7.828  0.9956  0.2708  0.5860
   86CHL1   C22 8826   5.889   5.513   8.005 -0.5673 -0.0717  0.1311
   86CHL1  H22A 8827   5.913   5.441   8.086  0.9173 -1.5181 -1.5446
   86CHL1  H22B 8828   5.971   5.588   8.006  0.4529 -1.1663  0.9182
   86CHL1   C23 8829   5.750   5.570   8.039  1.6345 -0.8976  0.1723
   86CHL1  H23A 8830   5.754   5.670   7.991 -0.3691 -1.0766 -0.4067
   86CHL1  H23B 8831   5.670   5.511   7.989  0.0644  0.5860  0.9176
   86CHL1   C24 8832   5.733   5.611   8.189  0.0353  0.1423 -0.0823
   86CHL1  H24A 8833   5.774   5.525   8.246 -0.5357  1.0954  1.7917
   86CHL1  H24B 8834   5.792   5.701   8.217  1.6651 -0.1877 -2.2821
   86CHL1   C25 8835   5.591   5.654   8.229 -0.0331  0.2276  0.0732
   86CHL1   H25 8836   5.569   5.747   8.171 -2.2066 -0.4294 -0.2233
   86CHL1   C26 8837   5.477   5.563   8.190 -0.2468  0.0482 -0.0800
   86CHL1  H26A 8838   5.514   5.460   8.207 -0.9815 -0.2044 -0.0154
   86CHL1  H26B 8839   5.389   5.578   8.256  0.1072 -1.6616  0.7984
   86CHL1  H26C 8840   5.452   5.575   8.082  2.8113  1.0410 -0.7363
   86CHL1   C27 8841   5.594   5.692   8.380  0.4432  0.5514 -0.1831
   86CHL1  H27A 8842   5.688   5.741   8.416  0.2576 -0.2984  1.5131
   86CHL1  H27B 8843   5.512   5.758   8.414  0.3377  0.2073  0.2327
   86CHL1  H27C 8844   5.598   5.604   8.448  1.8217  1.6290  1.1739
   87CHL1    C3 8845   5.898   3.895   6.957  0.0461 -0.2247 -0.2212
   87CHL1    H3 8846   5.841   3.800   6.942  0.4373 -0.2817 -1.3535
   87CHL1    O3 8847   5.934   3.937   6.823 -0.3158 -0.5036 -0.1474
   87CHL1   H3' 8848   6.029   3.955   6.824 -0.6476  1.2868  0.3211
   87CHL1    C4 8849   5.818   4.003   7.017  0.6200 -0.3709  0.4823
   87CHL1   H4A 8850   5.893   4.082   7.039  0.3740  0.1556 -0.5115
   87CHL1   H4B 8851   5.733   4.040   6.955 -0.1245 -1.1950  1.0169
   87CHL1    C5 8852   5.764   3.958   7.148 -0.2440  0.9084  0.3651
   87CHL1    C6 8853   5.629   3.961   7.173 -0.3540 -0.0335  0.0674
   87CHL1    H6 8854   5.562   4.004   7.097  1.3312 -1.1826 -2.1291
   87CHL1    C7 8855   5.573   3.918   7.308 -0.3344 -0.0906  0.5145
   87CHL1   H7A 8856   5.495   3.991   7.337  0.7341  0.8058  1.1859
   87CHL1   H7B 8857   5.513   3.825   7.302 -0.5296  0.0403  0.4315
   87CHL1    C8 8858   5.682   3.912   7.420  0.5609  0.4204  0.6919
   87CHL1    H8 8859   5.711   4.018   7.436  1.9973  0.0925  0.3512
   87CHL1   C14 8860   5.634   3.849   7.555  0.4798  0.3665 -0.3019
   87CHL1   H14 8861   5.626   3.745   7.515 -1.5801  0.8695 -1.2118
   87CHL1   C15 8862   5.508   3.896   7.625 -0.3881 -0.0058 -0.3196
   87CHL1  H15A 8863   5.507   4.007   7.625 -2.5247  0.0025 -1.6364
   87CHL1  H15B 8864   5.414   3.866   7.573  0.7459 -1.6739 -1.4474
   87CHL1   C16 8865   5.524   3.838   7.771 -0.2511 -0.0130 -0.3441
   87CHL1  H16A 8866   5.509   3.920   7.845  1.9246  1.6654 -1.7102
   87CHL1  H16B 8867   5.442   3.766   7.792 -0.2756  0.2120  0.3521
   87CHL1   C17 8868   5.668   3.776   7.783  0.0621 -0.4090  0.6473
   87CHL1   H17 8869   5.660   3.669   7.754 -1.8957 -0.3880  1.0067
   87CHL1   C13 8870   5.753   3.835   7.662 -0.2368  0.3779 -0.0799
   87CHL1   C18 8871   5.791   3.987   7.703  0.1800  0.5929 -0.1087
   87CHL1  H18A 8872   5.703   4.028   7.758  0.5518  0.4740  0.5805
   87CHL1  H18B 8873   5.876   3.986   7.775 -1.3733 -1.8152  1.7927
   87CHL1  H18C 8874   5.810   4.058   7.620 -0.0281 -0.7211 -1.2950
   87CHL1   C12 8875   5.860   3.746   7.614 -0.0787  0.1052  0.1390
   87CHL1  H12A 8876   5.952   3.723   7.672 -0.0389 -1.7614 -0.6146
   87CHL1  H12B 8877   5.814   3.647   7.593  0.6687 -0.2445  0.1190
   87CHL1   C11 8878   5.909   3.795   7.479 -0.2961  0.1803  0.0605
   87CHL1  H11A 8879   5.957   3.892   7.503 -0.6299  0.6842 -1.2660
   87CHL1  H11B 8880   5.981   3.721   7.438 -0.1741  0.7933 -0.8412
   87CHL1    C9 8881   5.808   3.834   7.368 -0.2674  0.1898 -0.4314
   87CHL1    H9 8882   5.769   3.736   7.334  0.0109  0.5621 -1.8298
   87CHL1   C10 8883   5.869   3.911   7.250 -0.0149 -0.0093  0.3118
   87CHL1   C19 8884   5.945   4.046   7.288 -0.1596  0.0490  0.3414
   87CHL1  H19A 8885   6.017   4.077   7.210 -1.3095 -0.9042 -1.1323
   87CHL1  H19B 8886   5.876   4.127   7.318  0.7056  1.1997 -0.7369
   87CHL1  H19C 8887   6.007   4.032   7.379 -0.4190  1.6417  0.7698
   87CHL1    C1 8888   5.974   3.816   7.182  0.0583  0.2892 -0.2183
   87CHL1   H1A 8889   6.064   3.801   7.246 -1.7332  0.2609  2.3500
   87CHL1   H1B 8890   5.941   3.710   7.178  2.3510 -0.4204 -1.4804
   87CHL1    C2 8891   6.016   3.858   7.035 -0.2178  0.4604 -0.0953
   87CHL1   H2A 8892   6.060   3.768   6.988  1.2499  1.3986 -0.5672
   87CHL1   H2B 8893   6.104   3.927   7.038 -0.9407  1.5191 -1.8679
   87CHL1   C20 8894   5.716   3.781   7.928 -0.5557 -0.2894  0.5869
   87CHL1   H20 8895   5.714   3.886   7.966 -0.9901 -0.4809  1.1159
   87CHL1   C21 8896   5.853   3.714   7.943  0.0195  0.4514 -0.7054
   87CHL1  H21A 8897   5.887   3.727   8.048 -2.7428 -1.9104  0.5295
   87CHL1  H21B 8898   5.926   3.755   7.870 -0.6980 -1.6651 -2.6758
   87CHL1  H21C 8899   5.849   3.604   7.931 -0.1180  0.3849 -0.0586
   87CHL1   C22 8900   5.610   3.721   8.029  0.4394 -0.9506 -0.2324
   87CHL1  H22A 8901   5.515   3.779   8.028  0.0435 -1.5389  1.2943
   87CHL1  H22B 8902   5.593   3.616   7.997 -1.5369 -0.5446 -0.5805
   87CHL1   C23 8903   5.651   3.709   8.175 -0.5407 -0.7372 -0.2741
   87CHL1  H23A 8904   5.740   3.643   8.172 -0.3824 -0.4864 -1.5096
   87CHL1  H23B 8905   5.673   3.813   8.207  1.0946 -0.7183 -1.4215
   87CHL1   C24 8906   5.532   3.658   8.260 -0.4521  0.2250  0.0107
   87CHL1  H24A 8907   5.459   3.741   8.275  0.0317  0.5580  0.5747
   87CHL1  H24B 8908   5.487   3.577   8.200  0.7301  1.1394 -2.1528
   87CHL1   C25 8909   5.569   3.582   8.391  0.2098 -0.3820 -0.2191
   87CHL1   H25 8910   5.635   3.495   8.369  1.3062  0.7455 -1.4577
   87CHL1   C26 8911   5.650   3.672   8.477  0.5430  0.4594  0.3096
   87CHL1  H26A 8912   5.754   3.680   8.440  0.2859  1.5316 -0.2342
   87CHL1  H26B 8913   5.595   3.769   8.479 -1.0059 -0.4152  2.1345
   87CHL1  H26C 8914   5.653   3.627   8.578  0.3430 -0.5537 -0.1321
   87CHL1   C27 8915   5.444   3.543   8.471  1.0260  0.3939 -0.5224
   87CHL1  H27A 8916   5.386   3.475   8.403  1.2253  0.6818 -0.9796
   87CHL1  H27B 8917   5.469   3.486   8.563 -2.3508 -0.9511 -0.3466
   87CHL1  H27C 8918   5.387   3.635   8.497  1.9287  0.8079  0.0111
   88CHL1    C3 8919   3.196   2.333   7.055 -0.1946 -0.1448 -0.0604
   88CHL1    H3 8920   3.089   2.364   7.057 -0.9343 -2.5484 -0.1909
   88CHL1    O3 8921   3.250   2.358   6.927  0.2582 -0.3049  0.4195
   88CHL1   H3' 8922   3.264   2.281   6.871  1.5188  0.7374 -0.7442
   88CHL1    C4 8923   3.275   2.417   7.161  0.5575  0.0345 -0.1042
   88CHL1   H4A 8924   3.384   2.396   7.152  0.6033 -0.6860  1.9236
   88CHL1   H4B 8925   3.262   2.526   7.141  0.6882  0.2922  1.1562
   88CHL1    C5 8926   3.234   2.382   7.303  0.3036  0.3352  0.7944
   88CHL1    C6 8927   3.191   2.479   7.384 -0.3228  0.6173  0.4280
   88CHL1    H6 8928   3.191   2.581   7.345 -2.4909  1.0922  1.5907
   88CHL1    C7 8929   3.159   2.439   7.525 -0.8083 -0.0605 -0.1814
   88CHL1   H7A 8930   3.198   2.513   7.598  0.0198 -1.3324  0.6725
   88CHL1   H7B 8931   3.048   2.441   7.540 -0.8980 -2.5064 -0.3330
   88CHL1    C8 8932   3.208   2.304   7.573  0.1587 -0.3086  0.0807
   88CHL1    H8 8933   3.318   2.295   7.578  0.3145  1.2859 -0.1450
   88CHL1   C14 8934   3.151   2.273   7.708 -0.5211  0.1271  0.2000
   88CHL1   H14 8935   3.042   2.271   7.690 -0.7960  1.6017  1.5742
   88CHL1   C15 8936   3.171   2.374   7.823 -0.0147 -0.0240  0.5758
   88CHL1  H15A 8937   3.274   2.416   7.831  0.0012 -0.1451  1.0090
   88CHL1  H15B 8938   3.105   2.461   7.807  0.6366  0.4721  0.5675
   88CHL1   C16 8939   3.133   2.292   7.945  1.0926  0.0185  0.6690
   88CHL1  H16A 8940   3.223   2.298   8.010  2.5046  2.1694 -1.3951
   88CHL1  H16B 8941   3.039   2.319   7.997  0.4987 -1.3875  0.3469
   88CHL1   C17 8942   3.097   2.144   7.897 -0.2781  0.7901 -0.4530
   88CHL1   H17 8943   2.990   2.150   7.866 -0.5741 -0.9636  0.1994
   88CHL1   C13 8944   3.185   2.126   7.769 -0.5263 -0.1371 -0.3756
   88CHL1   C18 8945   3.329   2.096   7.803 -0.1799 -0.5082 -0.1655
   88CHL1  H18A 8946   3.358   2.144   7.899  4.4686 -1.8974 -0.7648
   88CHL1  H18B 8947   3.355   1.989   7.817 -0.8205 -0.8885 -1.8062
   88CHL1  H18C 8948   3.400   2.130   7.725  2.2005 -3.6433  0.5552
   88CHL1   C12 8949   3.136   2.026   7.654  0.4451 -0.1466  0.1377
   88CHL1  H12A 8950   3.157   1.921   7.684 -1.3322 -0.5874 -0.0599
   88CHL1  H12B 8951   3.027   2.047   7.644  0.6669  1.6181  1.1609
   88CHL1   C11 8952   3.202   2.059   7.521  0.6752  0.3466 -0.0524
   88CHL1  H11A 8953   3.309   2.029   7.525  0.2770 -1.0224  0.6234
   88CHL1  H11B 8954   3.140   1.990   7.460 -1.4910  1.8714  0.3905
   88CHL1    C9 8955   3.178   2.199   7.470 -0.5028  0.5268  0.6463
   88CHL1    H9 8956   3.068   2.206   7.457 -0.3066  1.4956 -0.5938
   88CHL1   C10 8957   3.238   2.231   7.336  0.3130 -0.1866  0.2575
   88CHL1   C19 8958   3.382   2.186   7.326 -0.1953 -0.3192  0.1273
   88CHL1  H19A 8959   3.396   2.077   7.341 -0.6821 -0.8259 -2.8213
   88CHL1  H19B 8960   3.430   2.216   7.230  1.2393  0.1198  0.9581
   88CHL1  H19C 8961   3.439   2.235   7.407  1.2151 -2.1916  0.3029
   88CHL1    C1 8962   3.161   2.146   7.225  0.3413 -0.5504 -0.6742
   88CHL1   H1A 8963   3.183   2.037   7.234 -1.0382 -0.8605 -0.8652
   88CHL1   H1B 8964   3.053   2.160   7.247 -0.0395 -1.9336 -1.5566
   88CHL1    C2 8965   3.203   2.187   7.079 -0.0894  0.1504 -0.1705
   88CHL1   H2A 8966   3.142   2.128   7.007  0.5629  1.2715 -1.6570
   88CHL1   H2B 8967   3.310   2.158   7.071 -0.0158 -0.1901  1.9107
   88CHL1   C20 8968   3.091   2.038   7.996 -0.4859 -0.4310  0.1165
   88CHL1   H20 8969   3.192   2.001   8.026  1.2313  0.0827 -4.5210
   88CHL1   C21 8970   3.004   1.919   7.941 -0.3938  0.3750 -0.7895
   88CHL1  H21A 8971   3.043   1.899   7.839  0.0823 -0.8003 -0.3804
   88CHL1  H21B 8972   2.900   1.956   7.928  0.2309  1.8004 -1.7772
   88CHL1  H21C 8973   2.998   1.838   8.017 -0.4321 -0.7530 -1.9633
   88CHL1   C22 8974   3.020   2.092   8.126 -0.0105 -0.4973 -0.6370
   88CHL1  H22A 8975   3.074   2.180   8.167 -2.4744  0.4847  0.6756
   88CHL1  H22B 8976   2.915   2.121   8.105  0.0787 -0.3068 -0.8166
   88CHL1   C23 8977   3.019   1.982   8.235 -0.4624 -0.3821  0.8516
   88CHL1  H23A 8978   2.975   1.887   8.198  0.4731 -0.6140  0.3014
   88CHL1  H23B 8979   3.127   1.974   8.260  0.0961  0.3454 -1.2455
   88CHL1   C24 8980   2.958   2.037   8.361 -0.4842 -0.1518  0.0532
   88CHL1  H24A 8981   3.034   2.107   8.402 -0.6016 -1.1227  2.0038
   88CHL1  H24B 8982   2.866   2.094   8.336 -0.7400 -1.5010 -2.2175
   88CHL1   C25 8983   2.925   1.927   8.453  0.0075  0.4746 -0.3118
   88CHL1   H25 8984   2.888   1.837   8.399  0.2054  0.4883 -0.4712
   88CHL1   C26 8985   3.044   1.890   8.539 -0.1611  0.0174  0.5312
   88CHL1  H26A 8986   3.035   1.797   8.600  0.2172 -0.6148 -0.3787
   88CHL1  H26B 8987   3.131   1.876   8.471 -0.2209  1.5599  0.1071
   88CHL1  H26C 8988   3.077   1.980   8.596  0.8182  0.2171 -0.3371
   88CHL1   C27 8989   2.803   1.957   8.538 -0.0407  0.2897  0.3288
   88CHL1  H27A 8990   2.820   2.059   8.578 -0.2056  0.9285 -1.1854
   88CHL1  H27B 8991   2.717   1.960   8.467  0.2615  0.9256 -0.0086
   88CHL1  H27C 8992   2.796   1.883   8.620 -3.4219  0.6313  0.4092
   89CHL1    C3 8993   6.493   5.559   6.887  0.5029  0.6521 -0.2732
   89CHL1    H3 8994   6.421   5.644   6.883  0.4386  0.7129  1.8823
   89CHL1    O3 8995   6.543   5.530   6.758 -0.4516  0.1639  0.0376
   89CHL1   H3' 8996   6.582   5.444   6.776  1.8078  0.8404 -1.3724
   89CHL1    C4 8997   6.619   5.593   6.977  0.1922 -0.5135  0.1571
   89CHL1   H4A 8998   6.698   5.516   6.970  3.0040  2.0567  2.0940
   89CHL1   H4B 8999   6.666   5.688   6.944  1.6621 -1.3600 -0.2131
   89CHL1    C5 9000   6.590   5.609   7.127 -0.1528  0.1873 -0.1841
   89CHL1    C6 9001   6.637   5.713   7.195  0.7105  0.4431 -0.8300
   89CHL1    H6 9002   6.707   5.783   7.146  2.3683  0.2466  1.1824
   89CHL1    C7 9003   6.630   5.723   7.346  0.2440 -0.0281 -0.1803
   89CHL1   H7A 9004   6.725   5.742   7.400 -0.1440 -0.6841  0.7472
   89CHL1   H7B 9005   6.566   5.808   7.378 -1.8760 -2.2898  1.7887
   89CHL1    C8 9006   6.577   5.590   7.412 -1.2666 -0.1628  0.4056
   89CHL1    H8 9007   6.666   5.525   7.418  0.8804  2.7091  0.4326
   89CHL1   C14 9008   6.527   5.619   7.553 -0.2326 -0.4824 -0.7523
   89CHL1   H14 9009   6.432   5.676   7.543 -0.7259 -1.0420  0.6796
   89CHL1   C15 9010   6.624   5.694   7.648 -0.1417  0.1987 -0.4871
   89CHL1  H15A 9011   6.727   5.670   7.615 -1.1655 -1.2926 -2.6924
   89CHL1  H15B 9012   6.624   5.805   7.641 -0.3653  0.2379  0.1261
   89CHL1   C16 9013   6.582   5.647   7.791  0.4014  0.4833  0.1670
   89CHL1  H16A 9014   6.664   5.591   7.840 -1.6892 -1.7129  1.2905
   89CHL1  H16B 9015   6.534   5.725   7.854  1.1951  2.1116 -1.2337
   89CHL1   C17 9016   6.462   5.547   7.765  0.1246 -0.7984  0.0433
   89CHL1   H17 9017   6.369   5.608   7.761  1.3693  1.0668 -1.5669
   89CHL1   C13 9018   6.490   5.490   7.623 -0.8236 -0.3365 -0.6490
   89CHL1   C18 9019   6.604   5.382   7.630  0.0870  0.1913 -0.1249
   89CHL1  H18A 9020   6.627   5.324   7.539 -0.2995 -1.2424  0.6738
   89CHL1  H18B 9021   6.695   5.433   7.669 -0.3616  1.3835 -0.6107
   89CHL1  H18C 9022   6.578   5.303   7.704  1.1274  0.2630  0.3286
   89CHL1   C12 9023   6.371   5.434   7.545 -0.0281 -0.1922 -0.1289
   89CHL1  H12A 9024   6.343   5.342   7.601 -1.5710 -0.1746 -0.8396
   89CHL1  H12B 9025   6.281   5.499   7.542  0.4650  0.6076  1.8018
   89CHL1   C11 9026   6.401   5.396   7.395 -0.2260  0.2950 -0.7286
   89CHL1  H11A 9027   6.480   5.317   7.400 -0.2209  0.3469  0.0079
   89CHL1  H11B 9028   6.310   5.358   7.345 -0.5176  1.2955 -0.9636
   89CHL1    C9 9029   6.467   5.520   7.325  0.1356 -0.4552  0.2194
   89CHL1    H9 9030   6.389   5.600   7.324  0.1999 -0.3936  0.1209
   89CHL1   C10 9031   6.517   5.492   7.185  0.2695  0.5397  0.3625
   89CHL1   C19 9032   6.612   5.373   7.184  0.3010 -0.5323 -0.7127
   89CHL1  H19A 9033   6.708   5.410   7.225  0.1837  0.2399 -1.1268
   89CHL1  H19B 9034   6.576   5.277   7.226  1.2149 -0.3810  0.4289
   89CHL1  H19C 9035   6.638   5.340   7.082  0.6521 -1.7090 -0.2492
   89CHL1    C1 9036   6.392   5.461   7.098  0.3096  0.2197 -0.3901
   89CHL1   H1A 9037   6.334   5.373   7.134  1.8902 -0.7620 -0.1690
   89CHL1   H1B 9038   6.327   5.550   7.103 -0.4775 -0.4020  0.6543
   89CHL1    C2 9039   6.429   5.442   6.952 -0.3047  0.1144  0.5453
   89CHL1   H2A 9040   6.335   5.418   6.897 -0.5826  0.1168  1.0150
   89CHL1   H2B 9041   6.499   5.357   6.942  0.5448  1.1792 -3.3624
   89CHL1   C20 9042   6.436   5.449   7.870  0.3212  0.0462  0.3969
   89CHL1   H20 9043   6.407   5.351   7.828  1.2734  0.0057 -0.1991
   89CHL1   C21 9044   6.315   5.500   7.957  0.1508 -0.3596  0.4097
   89CHL1  H21A 9045   6.282   5.428   8.035  1.8822  1.6268  3.0473
   89CHL1  H21B 9046   6.229   5.519   7.890  2.0195 -0.9083 -2.2372
   89CHL1  H21C 9047   6.345   5.596   8.003  0.3036  0.1275 -0.6977
   89CHL1   C22 9048   6.545   5.421   7.969  0.0065 -0.3238  0.1209
   89CHL1  H22A 9049   6.645   5.399   7.925 -0.2899 -1.2681 -0.0845
   89CHL1  H22B 9050   6.564   5.517   8.022 -3.2540  1.2246 -1.3645
   89CHL1   C23 9051   6.525   5.294   8.053  0.2309 -0.2923 -0.2872
   89CHL1  H23A 9052   6.435   5.306   8.117  0.1965  0.2329 -0.4333
   89CHL1  H23B 9053   6.500   5.208   7.988 -1.7148 -0.6658  0.9054
   89CHL1   C24 9054   6.634   5.257   8.143 -0.7032 -0.0571 -0.2473
   89CHL1  H24A 9055   6.718   5.246   8.071  0.6019  3.4530  0.6101
   89CHL1  H24B 9056   6.654   5.341   8.213  0.2265  0.3606 -0.9996
   89CHL1   C25 9057   6.628   5.120   8.224 -0.3881  0.0248  0.8064
   89CHL1   H25 9058   6.624   5.037   8.150  1.4746  1.4587 -0.9658
   89CHL1   C26 9059   6.752   5.105   8.316 -0.0168 -0.6523 -0.2936
   89CHL1  H26A 9060   6.752   4.999   8.349 -0.6436 -0.7913 -0.7300
   89CHL1  H26B 9061   6.845   5.112   8.255 -0.9575  3.2596 -1.4278
   89CHL1  H26C 9062   6.754   5.176   8.402 -1.4095  0.4448 -1.1436
   89CHL1   C27 9063   6.498   5.108   8.298  0.5132 -0.1099 -0.4235
   89CHL1  H27A 9064   6.492   5.183   8.380 -0.9823 -0.2800 -0.3641
   89CHL1  H27B 9065   6.404   5.136   8.246 -0.1027 -0.1950  0.6317
   89CHL1  H27C 9066   6.486   5.008   8.343  0.3533 -0.0137 -0.2521
   90CHL1    C3 9067   6.253   0.241   6.872  0.2917  0.7663 -0.5115
   90CHL1    H3 9068   6.305   0.334   6.904  0.2839  0.4931  0.2891
   90CHL1    O3 9069   6.255   0.232   6.728  0.0732 -0.5946  0.7580
   90CHL1   H3' 9070   6.224   0.315   6.690 -0.1617 -0.3361  1.4943
   90CHL1    C4 9071   6.321   0.120   6.934 -0.6714  0.5604 -0.1457
   90CHL1   H4A 9072   6.278   0.027   6.890  0.7658  0.0249 -0.4246
   90CHL1   H4B 9073   6.420   0.117   6.884 -0.1162 -0.5135  0.9844
   90CHL1    C5 9074   6.315   0.120   7.095 -0.5168 -0.6609  0.7771
   90CHL1    C6 9075   6.427   0.098   7.167  0.2632 -0.5259 -0.7104
   90CHL1    H6 9076   6.521   0.071   7.116  0.8753 -2.8002  1.4985
   90CHL1    C7 9077   6.441   0.111   7.313  0.3370 -0.0455 -0.2989
   90CHL1   H7A 9078   6.513   0.039   7.358 -0.0980  0.1396  0.7186
   90CHL1   H7B 9079   6.495   0.207   7.327 -1.4549  0.8563  0.6048
   90CHL1    C8 9080   6.313   0.134   7.393  0.3714 -0.2097 -0.1897
   90CHL1    H8 9081   6.274   0.031   7.406  0.3671 -0.2815 -0.7536
   90CHL1   C14 9082   6.335   0.188   7.530  0.9714 -0.0513  0.0175
   90CHL1   H14 9083   6.373   0.292   7.524  0.7556  0.2331  2.8752
   90CHL1   C15 9084   6.436   0.101   7.613 -1.0083  0.0519  0.3515
   90CHL1  H15A 9085   6.410  -0.004   7.586 -0.7274  0.3662 -1.2263
   90CHL1  H15B 9086   6.543   0.115   7.587 -0.5889 -2.1313  0.8636
   90CHL1   C16 9087   6.399   0.143   7.754 -0.8336 -0.4151  0.0851
   90CHL1  H16A 9088   6.403   0.051   7.815  0.0821  0.4479  1.3377
   90CHL1  H16B 9089   6.489   0.198   7.789 -2.6038  1.8394  1.2209
   90CHL1   C17 9090   6.269   0.230   7.753 -0.2733 -0.6622 -0.8870
   90CHL1   H17 9091   6.301   0.336   7.743  2.3951 -1.1742  1.5657
   90CHL1   C13 9092   6.209   0.194   7.617  0.6233 -1.6561  0.2508
   90CHL1   C18 9093   6.133   0.057   7.635 -0.3340  0.4789  0.3660
   90CHL1  H18A 9094   6.205  -0.023   7.660 -0.6386  0.3697  0.9065
   90CHL1  H18B 9095   6.053   0.065   7.712  1.2426 -0.1625  2.1023
   90CHL1  H18C 9096   6.082   0.034   7.539 -2.2497  0.1916  1.4155
   90CHL1   C12 9097   6.123   0.303   7.545 -0.9019  0.0399 -0.0432
   90CHL1  H12A 9098   6.028   0.311   7.601 -0.3589  0.2445  0.8640
   90CHL1  H12B 9099   6.164   0.407   7.544 -0.2623 -0.1629  2.3661
   90CHL1   C11 9100   6.101   0.260   7.397 -0.1572 -0.5907  0.6127
   90CHL1  H11A 9101   6.025   0.181   7.381  1.1384 -1.1953 -2.9660
   90CHL1  H11B 9102   6.060   0.351   7.347 -1.2550 -1.8679 -0.8548
   90CHL1    C9 9103   6.222   0.226   7.311 -0.1129 -0.7060 -0.5156
   90CHL1    H9 9104   6.284   0.315   7.289  0.8125 -1.2017  0.0698
   90CHL1   C10 9105   6.185   0.173   7.170 -0.9156 -0.0400  0.1291
   90CHL1   C19 9106   6.084   0.055   7.176 -0.0525 -0.0634  0.2823
   90CHL1  H19A 9107   6.060  -0.009   7.088 -3.4027  1.0427  0.3357
   90CHL1  H19B 9108   6.105  -0.015   7.260  0.2018  0.3203  0.5400
   90CHL1  H19C 9109   5.989   0.109   7.194  0.0616  0.2353 -0.0122
   90CHL1    C1 9110   6.123   0.289   7.076  0.0923  0.0594 -1.0412
   90CHL1   H1A 9111   6.020   0.305   7.116  0.6769  2.0650 -0.3045
   90CHL1   H1B 9112   6.187   0.378   7.094  1.3535 -1.2502  1.1642
   90CHL1    C2 9113   6.115   0.257   6.930  0.0149 -0.6145 -0.0871
   90CHL1   H2A 9114   6.069   0.340   6.872  0.8731  1.2716  1.8597
   90CHL1   H2B 9115   6.052   0.167   6.911  0.5321 -0.6948 -1.4483
   90CHL1   C20 9116   6.187   0.233   7.891 -0.1103  0.3488 -0.3228
   90CHL1   H20 9117   6.148   0.129   7.896  1.3908 -0.1706  0.8278
   90CHL1   C21 9118   6.071   0.329   7.892  0.5170  0.0034 -0.1444
   90CHL1  H21A 9119   6.000   0.304   7.811 -0.0819 -3.0410  1.2544
   90CHL1  H21B 9120   6.107   0.432   7.867 -1.4227  0.2894 -1.8147
   90CHL1  H21C 9121   6.010   0.343   7.984 -0.1858  0.8278 -0.7306
   90CHL1   C22 9122   6.287   0.246   8.007 -0.0800  0.3126 -1.0500
   90CHL1  H22A 9123   6.359   0.162   8.003 -2.1510 -1.5412 -0.5048
   90CHL1  H22B 9124   6.356   0.333   8.012  1.0982 -0.6460 -0.5273
   90CHL1   C23 9125   6.221   0.229   8.145 -0.6918  0.6362  0.2867
   90CHL1  H23A 9126   6.149   0.308   8.176 -1.7769 -0.1641 -0.1579
   90CHL1  H23B 9127   6.164   0.134   8.143  1.6481 -0.8099  0.3867
   90CHL1   C24 9128   6.331   0.217   8.252 -0.9937 -0.0057  0.4742
   90CHL1  H24A 9129   6.414   0.153   8.214 -1.0535 -0.7424  1.5835
   90CHL1  H24B 9130   6.385   0.314   8.258 -1.0965  0.2371 -1.7967
   90CHL1   C25 9131   6.288   0.180   8.395  0.6577  0.2070 -0.0211
   90CHL1   H25 9132   6.190   0.230   8.408  0.6693  0.2580 -0.1274
   90CHL1   C26 9133   6.259   0.030   8.402 -0.4493  0.0681 -0.6794
   90CHL1  H26A 9134   6.210   0.012   8.500 -1.5506  0.5212 -1.1446
   90CHL1  H26B 9135   6.185  -0.010   8.329 -0.8760 -0.9077  0.2602
   90CHL1  H26C 9136   6.350  -0.034   8.393  0.2800  0.7087  1.8800
   90CHL1   C27 9137   6.392   0.219   8.499  0.5278  0.0459 -0.5116
   90CHL1  H27A 9138   6.485   0.172   8.460  2.0939  0.8038  2.1826
   90CHL1  H27B 9139   6.396   0.330   8.506 -0.1469  0.2010 -2.1996
   90CHL1  H27C 9140   6.379   0.168   8.597 -2.4427  3.7196  1.1603
   91CHL1    C3 9141   0.966   1.409   7.356  0.1461 -0.2312  0.1565
   91CHL1    H3 9142   1.009   1.308   7.376  1.7301  0.2375 -0.8055
   91CHL1    O3 9143   0.933   1.414   7.217 -0.2245  0.2265  0.5317
   91CHL1   H3' 9144   0.923   1.509   7.205  4.3871  0.7439 -0.0327
   91CHL1    C4 9145   0.837   1.422   7.444  0.1526 -0.6003  0.6449
   91CHL1   H4A 9146   0.798   1.523   7.420  0.1085 -0.5297  1.0182
   91CHL1   H4B 9147   0.758   1.364   7.391  0.7921 -1.2412  0.3713
   91CHL1    C5 9148   0.859   1.395   7.588  0.3264 -0.2668 -0.5983
   91CHL1    C6 9149   0.804   1.288   7.654  0.9330  0.9295  0.3539
   91CHL1    H6 9150   0.742   1.218   7.597  2.3610  0.0111 -0.0905
   91CHL1    C7 9151   0.836   1.263   7.799  0.1054 -0.5195  0.1756
   91CHL1   H7A 9152   0.749   1.219   7.853 -0.1887 -0.9490 -0.6410
   91CHL1   H7B 9153   0.914   1.185   7.806  0.2008 -0.4801 -0.4210
   91CHL1    C8 9154   0.883   1.392   7.873 -0.1527  0.0871 -0.0324
   91CHL1    H8 9155   0.798   1.463   7.868 -1.0426 -0.8986  0.9471
   91CHL1   C14 9156   0.920   1.360   8.015 -0.5346  0.2615 -0.2106
   91CHL1   H14 9157   0.995   1.278   8.002  1.5354  2.5128 -3.1955
   91CHL1   C15 9158   0.820   1.297   8.111 -0.2842  0.1678 -0.5307
   91CHL1  H15A 9159   0.717   1.336   8.097 -0.6180 -1.0149 -1.4484
   91CHL1  H15B 9160   0.803   1.189   8.092 -0.6783  0.0240  0.5668
   91CHL1   C16 9161   0.872   1.322   8.251 -0.3286 -0.0128 -0.4238
   91CHL1  H16A 9162   0.794   1.383   8.301  0.0067 -0.8661  1.1864
   91CHL1  H16B 9163   0.883   1.226   8.306 -1.4735 -0.6974 -1.3779
   91CHL1   C17 9164   1.005   1.400   8.230  0.1165 -0.1707 -0.3183
   91CHL1   H17 9165   1.079   1.318   8.218 -0.1107 -0.2880 -0.9157
   91CHL1   C13 9166   0.991   1.470   8.095  0.5877  0.1465  0.2916
   91CHL1   C18 9167   0.894   1.586   8.115  0.0760 -0.2794  0.1574
   91CHL1  H18A 9168   0.832   1.609   8.026  1.1460  1.7253 -0.0983
   91CHL1  H18B 9169   0.823   1.565   8.198 -3.8772  1.8379 -2.5341
   91CHL1  H18C 9170   0.940   1.685   8.133 -0.0518 -0.3745  1.0671
   91CHL1   C12 9171   1.124   1.514   8.029 -0.0438  0.1511  0.0866
   91CHL1  H12A 9172   1.167   1.603   8.079 -0.8960  0.7387 -0.2050
   91CHL1  H12B 9173   1.194   1.430   8.012 -0.7625 -0.0959 -1.7401
   91CHL1   C11 9174   1.088   1.553   7.881  0.1063 -0.5609 -0.3679
   91CHL1  H11A 9175   1.030   1.647   7.888 -0.0339 -0.5001 -2.0832
   91CHL1  H11B 9176   1.182   1.572   7.824  1.0374 -2.1758  0.5845
   91CHL1    C9 9177   1.005   1.450   7.796 -1.0761 -0.0227 -0.3518
   91CHL1    H9 9178   1.072   1.362   7.790 -0.9007  0.2086 -1.8866
   91CHL1   C10 9179   0.961   1.489   7.654 -0.1546  0.3200 -0.2763
   91CHL1   C19 9180   0.897   1.625   7.671 -0.5934  0.0564  0.2392
   91CHL1  H19A 9181   0.969   1.706   7.649  0.0995 -0.7817 -0.6425
   91CHL1  H19B 9182   0.819   1.639   7.594  2.1260 -0.2160 -2.6444
   91CHL1  H19C 9183   0.833   1.639   7.761 -1.7067 -1.0475 -0.3501
   91CHL1    C1 9184   1.084   1.510   7.554  0.4676  0.8525  0.5250
   91CHL1   H1A 9185   1.150   1.594   7.586  0.1641  1.0955  0.5153
   91CHL1   H1B 9186   1.152   1.423   7.567  0.0427  0.5274  0.5583
   91CHL1    C2 9187   1.049   1.528   7.405 -0.2434  0.4233  0.4205
   91CHL1   H2A 9188   1.138   1.530   7.339 -2.0343 -0.6647 -2.0703
   91CHL1   H2B 9189   0.991   1.622   7.395 -2.0545 -0.7098  0.0966
   91CHL1   C20 9190   1.053   1.496   8.351 -0.0894 -0.6878  0.2095
   91CHL1   H20 9191   1.014   1.597   8.330 -2.2379 -1.7623 -1.1442
   91CHL1   C21 9192   1.207   1.502   8.344 -0.0330 -0.3556 -0.1158
   91CHL1  H21A 9193   1.249   1.400   8.337  2.0945  0.4060  1.2935
   91CHL1  H21B 9194   1.250   1.560   8.428  0.8509  0.5917 -1.1932
   91CHL1  H21C 9195   1.243   1.563   8.257  2.4198 -0.5835  0.7041
   91CHL1   C22 9196   1.009   1.454   8.493 -0.3315  0.6029 -0.3543
   91CHL1  H22A 9197   0.908   1.408   8.490  0.0360 -0.2760  0.2800
   91CHL1  H22B 9198   1.082   1.379   8.531 -0.4797  0.3152 -0.6372
   91CHL1   C23 9199   1.020   1.566   8.596 -0.2600 -0.4518  0.1107
   91CHL1  H23A 9200   1.127   1.587   8.614 -0.1161 -1.3551  0.3587
   91CHL1  H23B 9201   0.965   1.656   8.563 -0.9465 -1.1469 -0.6809
   91CHL1   C24 9202   0.962   1.525   8.737  0.7243 -0.8002  0.0317
   91CHL1  H24A 9203   0.851   1.521   8.743  0.7598 -0.2550  1.1883
   91CHL1  H24B 9204   1.004   1.426   8.761 -1.4308 -1.6457  0.3870
   91CHL1   C25 9205   1.000   1.619   8.848  0.6236  0.3094 -0.3355
   91CHL1   H25 9206   1.106   1.650   8.835  0.4413  1.1111  0.0523
   91CHL1   C26 9207   0.917   1.741   8.871 -0.4711  0.3876 -0.1162
   91CHL1  H26A 9208   0.825   1.696   8.914  0.7892 -1.8943  0.2435
   91CHL1  H26B 9209   0.972   1.816   8.933  2.5141 -1.8043  0.0116
   91CHL1  H26C 9210   0.889   1.801   8.782 -1.9720 -0.6295 -0.3378
   91CHL1   C27 9211   1.017   1.540   8.983  0.6804 -0.2209 -0.0642
   91CHL1  H27A 9212   1.044   1.610   9.065 -0.6055  0.2082 -0.0041
   91CHL1  H27B 9213   0.918   1.497   9.011 -0.5579  1.4345 -1.7750
   91CHL1  H27C 9214   1.084   1.452   8.973  0.1065 -0.5532 -1.0385
   92CHL1    C3 9215   3.748   3.235   6.822 -0.3981 -0.5155 -0.0054
   92CHL1    H3 9216   3.811   3.148   6.795 -0.1931 -1.1720  2.4760
   92CHL1    O3 9217   3.697   3.277   6.691 -0.3326 -0.4088 -0.0900
   92CHL1   H3' 9218   3.660   3.365   6.699  0.9045  0.2138 -0.9804
   92CHL1    C4 9219   3.637   3.182   6.913  0.0207  0.5652  0.3523
   92CHL1   H4A 9220   3.559   3.259   6.928 -0.7982 -0.1492 -0.2073
   92CHL1   H4B 9221   3.600   3.102   6.846  3.2340 -2.0973  1.6061
   92CHL1    C5 9222   3.684   3.146   7.056  0.1412  0.6781 -0.7551
   92CHL1    C6 9223   3.670   3.022   7.091 -0.8390 -0.0861 -0.0683
   92CHL1    H6 9224   3.625   2.955   7.016  0.3081 -0.6638 -0.2574
   92CHL1    C7 9225   3.721   2.973   7.231  0.0610 -0.3373 -0.6734
   92CHL1   H7A 9226   3.642   2.907   7.273  1.6189 -2.1004 -0.4375
   92CHL1   H7B 9227   3.813   2.913   7.220  0.3599  0.0125 -0.1257
   92CHL1    C8 9228   3.743   3.093   7.332 -0.0850  0.1048  0.6437
   92CHL1    H8 9229   3.642   3.136   7.349 -0.0246  0.6948 -0.4503
   92CHL1   C14 9230   3.797   3.056   7.468  0.2770  0.0267 -0.2103
   92CHL1   H14 9231   3.899   3.015   7.452  0.4916  0.2880  0.4869
   92CHL1   C15 9232   3.718   2.944   7.550  0.8565 -0.3014 -0.4833
   92CHL1  H15A 9233   3.610   2.964   7.533  0.6095 -0.7410  0.5362
   92CHL1  H15B 9234   3.741   2.841   7.515 -1.3937 -1.0305  0.0955
   92CHL1   C16 9235   3.770   2.965   7.691  0.7324 -0.1478  0.5267
   92CHL1  H16A 9236   3.690   2.974   7.768  2.2003  1.0490  1.9352
   92CHL1  H16B 9237   3.820   2.868   7.710 -0.8002 -1.5523 -2.1432
   92CHL1   C17 9238   3.867   3.085   7.691  0.5747  0.0863  0.5709
   92CHL1   H17 9239   3.966   3.036   7.678  1.0849  1.1228  0.5462
   92CHL1   C13 9240   3.820   3.167   7.562 -0.0409  0.1852 -0.0523
   92CHL1   C18 9241   3.698   3.244   7.608  0.4732 -0.1780 -0.5542
   92CHL1  H18A 9242   3.717   3.318   7.689 -0.9731  0.2406 -0.5881
   92CHL1  H18B 9243   3.649   3.298   7.524 -0.7661  0.2332  0.4063
   92CHL1  H18C 9244   3.614   3.176   7.631  2.1363 -2.8698 -2.2625
   92CHL1   C12 9245   3.931   3.255   7.496  0.4065 -0.2298  0.4037
   92CHL1  H12A 9246   3.966   3.342   7.555  0.2917  0.2127 -0.1717
   92CHL1  H12B 9247   4.019   3.197   7.459  0.9080  0.9304 -0.2757
   92CHL1   C11 9248   3.867   3.312   7.367  0.3078 -0.3186  0.5947
   92CHL1  H11A 9249   3.791   3.387   7.398 -0.5628 -1.2129  0.6746
   92CHL1  H11B 9250   3.941   3.368   7.308  1.1672 -2.3042 -0.2599
   92CHL1    C9 9251   3.830   3.199   7.267  0.0559  0.1342  0.3637
   92CHL1    H9 9252   3.931   3.157   7.245  0.3798  0.1176  1.8827
   92CHL1   C10 9253   3.774   3.253   7.131  0.8234 -0.0748 -0.4733
   92CHL1   C19 9254   3.680   3.372   7.158 -0.6707  0.2698  0.0836
   92CHL1  H19A 9255   3.746   3.449   7.202 -0.6501  0.5636 -0.4610
   92CHL1  H19B 9256   3.627   3.420   7.073  1.4759  0.0509 -1.4147
   92CHL1  H19C 9257   3.602   3.347   7.234  0.4153  2.3988  1.9461
   92CHL1    C1 9258   3.892   3.296   7.034 -1.0954  0.6299  0.6160
   92CHL1   H1A 9259   3.943   3.386   7.073  0.5125 -0.1133  0.2528
   92CHL1   H1B 9260   3.966   3.213   7.024 -1.6006  0.4312 -1.7848
   92CHL1    C2 9261   3.847   3.343   6.888 -0.0853 -0.3047 -0.4050
   92CHL1   H2A 9262   3.934   3.361   6.820 -0.0093 -2.0785 -0.7947
   92CHL1   H2B 9263   3.776   3.428   6.884 -0.8143 -0.8947 -0.1199
   92CHL1   C20 9264   3.880   3.156   7.827 -0.7912 -0.4050  0.3800
   92CHL1   H20 9265   3.785   3.211   7.845 -1.0476 -0.4062 -0.8655
   92CHL1   C21 9266   4.002   3.244   7.830  0.4017 -0.0832  0.6857
   92CHL1  H21A 9267   4.089   3.185   7.795  1.8967  0.5521  3.2501
   92CHL1  H21B 9268   4.018   3.268   7.937  0.3307 -0.8293  0.8637
   92CHL1  H21C 9269   4.000   3.346   7.784  2.5547  0.7310  2.2959
   92CHL1   C22 9270   3.911   3.053   7.944  0.2200  0.4446 -0.0190
   92CHL1  H22A 9271   3.845   2.967   7.923 -2.5532  2.7785 -1.0800
   92CHL1  H22B 9272   4.019   3.029   7.929  0.3825  1.2185 -0.1260
   92CHL1   C23 9273   3.875   3.104   8.082 -0.0680 -0.3487 -0.2432
   92CHL1  H23A 9274   3.926   3.031   8.148 -0.7787 -0.3444  0.3149
   92CHL1  H23B 9275   3.905   3.209   8.099  1.8683 -0.9072 -0.1496
   92CHL1   C24 9276   3.720   3.090   8.120  0.2495 -0.4873  0.0099
   92CHL1  H24A 9277   3.675   3.173   8.062 -0.0065 -1.5425 -1.3331
   92CHL1  H24B 9278   3.668   2.995   8.093  0.2823 -0.5887  0.2998
   92CHL1   C25 9279   3.701   3.113   8.270  0.0473  0.8041  0.8074
   92CHL1   H25 9280   3.743   3.024   8.321  0.9272  0.1011 -1.1017
   92CHL1   C26 9281   3.766   3.238   8.326 -0.3041 -0.1364  0.1835
   92CHL1  H26A 9282   3.871   3.210   8.348 -0.7067 -0.3400  1.8753
   92CHL1  H26B 9283   3.774   3.318   8.248 -0.6080  0.2875  0.5901
   92CHL1  H26C 9284   3.723   3.280   8.419 -0.3354 -1.6780  0.8623
   92CHL1   C27 9285   3.552   3.116   8.311 -0.0291  0.1712  0.5119
   92CHL1  H27A 9286   3.509   3.014   8.293 -1.0167  0.7759 -0.6285
   92CHL1  H27B 9287   3.532   3.144   8.417 -0.2171  1.9675  0.0120
   92CHL1  H27C 9288   3.497   3.188   8.247  1.8831  0.0841 -1.2653
   93CHL1    C3 9289   2.326   1.488   6.931  0.1935  0.8724 -0.6192
   93CHL1    H3 9290   2.424   1.437   6.915  0.3674  0.8057  0.6524
   93CHL1    O3 9291   2.284   1.531   6.809 -0.3517 -0.8800 -0.3910
   93CHL1   H3' 9292   2.221   1.595   6.842  0.8686  0.2196 -0.1573
   93CHL1    C4 9293   2.221   1.389   6.997 -0.2648  0.5816  0.5366
   93CHL1   H4A 9294   2.128   1.449   6.983 -0.9620 -0.9186 -1.5255
   93CHL1   H4B 9295   2.210   1.294   6.940 -0.2793  1.1238 -0.3658
   93CHL1    C5 9296   2.261   1.347   7.137 -0.4425  0.3575  0.2391
   93CHL1    C6 9297   2.268   1.215   7.171  0.5717 -0.2644  1.0892
   93CHL1    H6 9298   2.238   1.137   7.099 -1.9450  2.4348 -0.8702
   93CHL1    C7 9299   2.301   1.167   7.302  0.0023  0.1977 -0.7521
   93CHL1   H7A 9300   2.225   1.095   7.339 -0.3063  0.9050 -0.0067
   93CHL1   H7B 9301   2.401   1.118   7.299 -1.1786 -2.3575  0.2858
   93CHL1    C8 9302   2.299   1.281   7.413  0.0186  0.0687 -1.2406
   93CHL1    H8 9303   2.193   1.305   7.438  0.5028  0.4931  0.5058
   93CHL1   C14 9304   2.366   1.236   7.541 -0.3381 -0.5179  0.9859
   93CHL1   H14 9305   2.472   1.222   7.510 -0.5711  1.8089 -1.0039
   93CHL1   C15 9306   2.322   1.098   7.599  0.3018  0.5267 -0.3439
   93CHL1  H15A 9307   2.212   1.090   7.584  0.2242  0.6066  0.1810
   93CHL1  H15B 9308   2.373   1.011   7.553 -1.9057 -0.7648 -0.3924
   93CHL1   C16 9309   2.373   1.109   7.747  0.4953  0.1524 -0.3134
   93CHL1  H16A 9310   2.291   1.086   7.819 -0.6100  0.5426 -1.4390
   93CHL1  H16B 9311   2.460   1.045   7.773  1.2500  1.7113  1.1423
   93CHL1   C17 9312   2.441   1.253   7.764 -0.3201 -0.3921  0.5580
   93CHL1   H17 9313   2.543   1.252   7.721 -0.4946  0.3406  0.1031
   93CHL1   C13 9314   2.366   1.336   7.659  0.5814 -0.5473  0.1033
   93CHL1   C18 9315   2.212   1.355   7.698 -0.3494  0.7665  0.2394
   93CHL1  H18A 9316   2.172   1.255   7.725  4.2476 -0.8725  1.5054
   93CHL1  H18B 9317   2.213   1.425   7.785  0.8794  1.5520 -0.3957
   93CHL1  H18C 9318   2.150   1.397   7.617 -2.1281 -0.2136  1.0668
   93CHL1   C12 9319   2.426   1.473   7.619 -0.3718  0.0680  0.2673
   93CHL1  H12A 9320   2.400   1.560   7.684  2.1128  2.4566 -1.8066
   93CHL1  H12B 9321   2.535   1.460   7.606 -0.4879 -0.3849 -0.2397
   93CHL1   C11 9322   2.375   1.518   7.475 -0.5599  0.4382  0.0514
   93CHL1  H11A 9323   2.272   1.554   7.499  0.6398  3.1926  1.3143
   93CHL1  H11B 9324   2.436   1.598   7.428  0.9645 -1.2171 -0.8444
   93CHL1    C9 9325   2.365   1.410   7.364  0.3901 -0.2871  0.1940
   93CHL1    H9 9326   2.466   1.376   7.336 -0.3416 -1.9596 -0.4989
   93CHL1   C10 9327   2.306   1.459   7.228 -0.8079 -0.4076 -0.0174
   93CHL1   C19 9328   2.174   1.542   7.267  0.4723 -0.1697 -0.1353
   93CHL1  H19A 9329   2.112   1.487   7.341 -0.6228  4.1674  2.3604
   93CHL1  H19B 9330   2.215   1.636   7.311  0.8032  0.1032 -1.0232
   93CHL1  H19C 9331   2.113   1.570   7.178 -1.3312  0.4793  1.2705
   93CHL1    C1 9332   2.404   1.560   7.157 -0.0478  0.0113  0.1382
   93CHL1   H1A 9333   2.406   1.657   7.211  1.5926 -0.2387  0.5564
   93CHL1   H1B 9334   2.503   1.515   7.132  1.3794  1.6713  2.5949
   93CHL1    C2 9335   2.353   1.607   7.028 -0.3872  0.5260  0.6239
   93CHL1   H2A 9336   2.429   1.667   6.973 -0.0905 -0.8853 -0.5180
   93CHL1   H2B 9337   2.259   1.667   7.027 -0.6449  0.1689  2.2625
   93CHL1   C20 9338   2.457   1.310   7.907 -0.0082  0.0329 -0.1132
   93CHL1   H20 9339   2.469   1.419   7.893  1.4349 -0.0945  0.0583
   93CHL1   C21 9340   2.591   1.248   7.961 -0.1999 -0.3686 -0.5190
   93CHL1  H21A 9341   2.677   1.262   7.893 -0.6717 -1.1491 -1.2889
   93CHL1  H21B 9342   2.581   1.141   7.989  1.8659 -0.5947 -0.5676
   93CHL1  H21C 9343   2.622   1.309   8.049  0.3870  0.9023 -1.5959
   93CHL1   C22 9344   2.333   1.285   8.004  0.5584 -0.2429 -0.1494
   93CHL1  H22A 9345   2.238   1.308   7.950  1.6620  1.8463 -1.2565
   93CHL1  H22B 9346   2.338   1.176   8.023  2.2584 -0.0567  0.5020
   93CHL1   C23 9347   2.327   1.353   8.144 -0.4445 -0.3402 -0.3693
   93CHL1  H23A 9348   2.428   1.352   8.191 -0.0430 -1.6630 -1.2300
   93CHL1  H23B 9349   2.309   1.463   8.134 -0.9160 -0.2456  1.4686
   93CHL1   C24 9350   2.225   1.291   8.240 -0.2390  0.7827 -0.8134
   93CHL1  H24A 9351   2.119   1.306   8.211 -0.6319 -0.6340 -0.1479
   93CHL1  H24B 9352   2.225   1.180   8.240 -0.3754  0.7706  0.2047
   93CHL1   C25 9353   2.240   1.351   8.386  0.8520 -0.1732  0.0338
   93CHL1   H25 9354   2.245   1.461   8.378 -2.5184 -0.0095 -0.7424
   93CHL1   C26 9355   2.130   1.304   8.486  0.0934 -0.2788 -0.0146
   93CHL1  H26A 9356   2.034   1.343   8.447 -0.5225  0.1701  1.9112
   93CHL1  H26B 9357   2.117   1.194   8.490  1.1429 -0.3429  3.5778
   93CHL1  H26C 9358   2.150   1.350   8.585  2.0582 -3.2770  1.0386
   93CHL1   C27 9359   2.372   1.307   8.447  0.4478  0.3715 -0.4594
   93CHL1  H27A 9360   2.446   1.390   8.444 -0.1570  0.9076 -0.8007
   93CHL1  H27B 9361   2.361   1.274   8.552  0.6510 -0.5713 -0.7265
   93CHL1  H27C 9362   2.418   1.221   8.394  1.8783  0.5500  0.4621
   94CHL1    C3 9363   4.888   3.643   6.896 -0.3796  0.3278  0.2670
   94CHL1    H3 9364   4.838   3.740   6.916 -1.7760 -0.3475  0.1321
   94CHL1    O3 9365   4.893   3.608   6.756  0.2792  0.1927  0.6500
   94CHL1   H3' 9366   4.984   3.577   6.751  0.7048  0.7596  3.9675
   94CHL1    C4 9367   5.025   3.651   6.956 -0.0055 -0.7740 -0.6584
   94CHL1   H4A 9368   5.067   3.550   6.932  2.5360 -0.1241  0.7951
   94CHL1   H4B 9369   5.077   3.732   6.901  1.7414 -1.0682  0.5198
   94CHL1    C5 9370   5.029   3.663   7.107 -0.3659 -0.4892 -0.6016
   94CHL1    C6 9371   5.090   3.768   7.168  0.0819 -0.4800  0.4413
   94CHL1    H6 9372   5.158   3.828   7.105 -1.7320 -0.7039 -1.8040
   94CHL1    C7 9373   5.108   3.778   7.316  0.4940 -0.8190  0.6489
   94CHL1   H7A 9374   5.219   3.781   7.329  0.4135  0.7799  1.1065
   94CHL1   H7B 9375   5.060   3.874   7.344 -0.5871 -1.6749  1.7459
   94CHL1    C8 9376   5.055   3.654   7.391  0.2688 -0.3019 -0.6572
   94CHL1    H8 9377   5.134   3.577   7.376 -1.2165 -1.9026 -0.5743
   94CHL1   C14 9378   5.039   3.684   7.536  0.1177  0.0503 -1.0039
   94CHL1   H14 9379   4.955   3.756   7.539 -1.4131 -1.7751  1.2856
   94CHL1   C15 9380   5.153   3.749   7.611 -0.3882 -0.0285 -0.0270
   94CHL1  H15A 9381   5.249   3.698   7.590 -0.2266 -0.4140  1.5562
   94CHL1  H15B 9382   5.149   3.856   7.580  0.1261  0.2619  0.8643
   94CHL1   C16 9383   5.109   3.735   7.759  0.5707 -0.2667 -0.0358
   94CHL1  H16A 9384   5.195   3.696   7.818  0.2838  0.0066  0.5714
   94CHL1  H16B 9385   5.078   3.833   7.801 -0.9218  0.0513 -1.8334
   94CHL1   C17 9386   4.993   3.631   7.758 -0.9191 -0.2106 -0.0404
   94CHL1   H17 9387   4.903   3.697   7.751 -1.6168 -1.2817 -1.4088
   94CHL1   C13 9388   4.998   3.560   7.620 -0.0006  0.2169  0.0823
   94CHL1   C18 9389   5.107   3.452   7.619 -0.0232  0.2399  0.3137
   94CHL1  H18A 9390   5.201   3.506   7.647 -1.3212  3.2786 -0.9661
   94CHL1  H18B 9391   5.077   3.365   7.681  0.0353 -0.1907 -0.2581
   94CHL1  H18C 9392   5.117   3.410   7.517 -0.6611  0.8073  0.0122
   94CHL1   C12 9393   4.865   3.505   7.571 -0.1898 -0.2897 -0.9175
   94CHL1  H12A 9394   4.828   3.410   7.614 -0.7155 -0.3117 -1.4009
   94CHL1  H12B 9395   4.786   3.583   7.582 -0.9881 -1.4559  1.7923
   94CHL1   C11 9396   4.869   3.478   7.419  0.0262 -0.1283  0.6547
   94CHL1  H11A 9397   4.926   3.384   7.404  0.2798 -0.0155  0.8769
   94CHL1  H11B 9398   4.764   3.456   7.392 -0.1056  2.9195 -1.4738
   94CHL1    C9 9399   4.927   3.595   7.326  0.3610 -0.4382 -1.3340
   94CHL1    H9 9400   4.854   3.677   7.342  0.6955 -0.6902  1.8373
   94CHL1   C10 9401   4.943   3.554   7.181 -0.9834 -0.7348  0.5790
   94CHL1   C19 9402   5.018   3.418   7.173 -0.0747  0.1308  0.1694
   94CHL1  H19A 9403   5.060   3.395   7.073 -2.5983 -0.9466 -0.6984
   94CHL1  H19B 9404   5.108   3.418   7.238  0.4882 -0.0369 -0.6010
   94CHL1  H19C 9405   4.946   3.339   7.203  1.0912 -1.2837 -0.6963
   94CHL1    C1 9406   4.800   3.550   7.119  0.0202 -0.2439 -0.5344
   94CHL1   H1A 9407   4.752   3.460   7.162  0.7117  0.3735  1.5791
   94CHL1   H1B 9408   4.746   3.642   7.150  0.1219 -0.6635  0.8947
   94CHL1    C2 9409   4.798   3.542   6.966  0.3582 -0.0797 -0.1709
   94CHL1   H2A 9410   4.691   3.560   6.941  0.7821  0.8494 -1.3559
   94CHL1   H2B 9411   4.829   3.439   6.938 -1.2370 -0.3532 -1.0068
   94CHL1   C20 9412   4.990   3.539   7.880  0.1213  0.8244  0.0705
   94CHL1   H20 9413   5.085   3.482   7.871 -0.3004  0.3603 -1.7643
   94CHL1   C21 9414   4.879   3.432   7.886  1.4260  0.3011 -0.2975
   94CHL1  H21A 9415   4.784   3.478   7.853  0.7326 -0.4174  0.6797
   94CHL1  H21B 9416   4.869   3.397   7.990  2.5242 -0.1328 -0.3250
   94CHL1  H21C 9417   4.917   3.356   7.813 -3.4618 -1.0886 -1.5784
   94CHL1   C22 9418   4.999   3.614   8.017 -0.2839 -0.6914  0.4795
   94CHL1  H22A 9419   5.013   3.531   8.089 -0.1950 -2.5097 -1.5887
   94CHL1  H22B 9420   5.089   3.679   8.021 -1.8728  1.6790 -0.5144
   94CHL1   C23 9421   4.873   3.695   8.049 -0.2185 -0.4405  0.6239
   94CHL1  H23A 9422   4.861   3.786   7.987  2.5017 -1.0013 -0.7965
   94CHL1  H23B 9423   4.782   3.640   8.017 -1.9092  3.0510 -0.8393
   94CHL1   C24 9424   4.861   3.730   8.198  0.0064 -0.7748  0.1483
   94CHL1  H24A 9425   4.776   3.801   8.209  1.4470  0.9456  0.2368
   94CHL1  H24B 9426   4.834   3.638   8.256 -0.9673 -0.2217  0.5935
   94CHL1   C25 9427   4.966   3.815   8.271  0.2511 -0.1554 -0.3275
   94CHL1   H25 9428   5.051   3.744   8.276  0.3986  0.0305 -0.2115
   94CHL1   C26 9429   4.999   3.934   8.186 -1.2649  0.3523  0.0737
   94CHL1  H26A 9430   4.911   3.999   8.168 -0.1838  1.3097 -1.9060
   94CHL1  H26B 9431   5.078   3.990   8.240 -1.2655 -0.2699  0.7283
   94CHL1  H26C 9432   5.042   3.887   8.095  0.8783 -0.0688  1.2626
   94CHL1   C27 9433   4.907   3.841   8.411  0.0864  0.1852 -1.1671
   94CHL1  H27A 9434   4.903   3.739   8.455  1.9364  0.1332 -1.0699
   94CHL1  H27B 9435   4.974   3.912   8.465  0.8753  0.0157 -1.9248
   94CHL1  H27C 9436   4.814   3.901   8.418 -0.6474 -0.9359 -1.2192
   95CHL1    C3 9437   4.435   3.445   6.791 -0.0601 -0.3544  0.7160
   95CHL1    H3 9438   4.538   3.487   6.791 -0.4115  0.6258 -2.1806
   95CHL1    O3 9439   4.388   3.469   6.654  0.4484  0.1357 -0.1673
   95CHL1   H3' 9440   4.441   3.408   6.603  0.7985 -0.0377  0.4028
   95CHL1    C4 9441   4.444   3.298   6.827 -0.2895  0.3125  0.1738
   95CHL1   H4A 9442   4.349   3.253   6.791  0.7268 -1.0067 -0.8481
   95CHL1   H4B 9443   4.522   3.253   6.763 -0.9187 -0.6300  0.0661
   95CHL1    C5 9444   4.466   3.278   6.975 -0.6556 -0.0300  0.9080
   95CHL1    C6 9445   4.567   3.199   7.024 -0.8529  0.2883 -0.3372
   95CHL1    H6 9446   4.630   3.153   6.946 -0.6822  1.0070 -0.6302
   95CHL1    C7 9447   4.595   3.154   7.168  0.1904 -0.0590 -0.3911
   95CHL1   H7A 9448   4.589   3.043   7.175 -1.3281 -0.0026 -0.6055
   95CHL1   H7B 9449   4.694   3.191   7.203  0.1650  1.2878 -1.6737
   95CHL1    C8 9450   4.489   3.216   7.268 -0.0299 -0.4950  0.0453
   95CHL1    H8 9451   4.405   3.144   7.260 -0.6307  0.1373  0.5545
   95CHL1   C14 9452   4.541   3.207   7.410 -0.6533  0.1636 -0.2585
   95CHL1   H14 9453   4.630   3.275   7.411  1.6023 -2.6866  1.3991
   95CHL1   C15 9454   4.593   3.066   7.454 -0.0256  0.4133 -0.3543
   95CHL1  H15A 9455   4.525   2.981   7.430  0.1516 -0.1857  1.2034
   95CHL1  H15B 9456   4.693   3.039   7.416 -0.2434 -0.0096 -0.6275
   95CHL1   C16 9457   4.597   3.087   7.609 -1.1458 -0.2368  0.6281
   95CHL1  H16A 9458   4.528   3.008   7.645 -1.8269 -0.0576 -0.2662
   95CHL1  H16B 9459   4.699   3.069   7.649 -1.9339 -2.1939  1.8117
   95CHL1   C17 9460   4.526   3.224   7.643  1.2163 -0.6111  0.3338
   95CHL1   H17 9461   4.608   3.298   7.649  0.2861  0.4298  0.5519
   95CHL1   C13 9462   4.444   3.262   7.517 -0.3938  0.0467  0.5251
   95CHL1   C18 9463   4.309   3.180   7.518  0.0640 -0.1245  0.1853
   95CHL1  H18A 9464   4.251   3.226   7.435 -3.4888 -1.9942  1.5158
   95CHL1  H18B 9465   4.326   3.071   7.519 -1.4429 -0.3755  3.1795
   95CHL1  H18C 9466   4.245   3.205   7.605 -0.5289  1.4892 -0.6798
   95CHL1   C12 9467   4.423   3.409   7.472  0.7664 -0.2841  0.0576
   95CHL1  H12A 9468   4.371   3.467   7.551 -1.0383 -0.0376 -1.2630
   95CHL1  H12B 9469   4.520   3.462   7.468  1.1183 -0.7492  2.1094
   95CHL1   C11 9470   4.359   3.429   7.330 -0.5067 -0.1102  0.1271
   95CHL1  H11A 9471   4.256   3.387   7.329 -0.2880 -0.6397 -2.7437
   95CHL1  H11B 9472   4.354   3.537   7.301  3.0369  0.2435  0.6435
   95CHL1    C9 9473   4.444   3.358   7.220  0.0954 -0.7429 -0.4456
   95CHL1    H9 9474   4.541   3.410   7.213  1.4644 -3.2775 -0.9934
   95CHL1   C10 9475   4.381   3.360   7.072  0.0742 -0.0875 -0.0937
   95CHL1   C19 9476   4.239   3.290   7.080 -0.5344  0.1683 -0.5795
   95CHL1  H19A 9477   4.246   3.192   7.133  0.9026  0.1681 -0.7491
   95CHL1  H19B 9478   4.184   3.366   7.140  0.4090  2.7086 -2.8604
   95CHL1  H19C 9479   4.189   3.287   6.981  1.6520 -0.3365 -1.6920
   95CHL1    C1 9480   4.372   3.509   7.030 -0.4268 -0.2676 -0.4845
   95CHL1   H1A 9481   4.292   3.550   7.093  0.2387  0.1992  0.0622
   95CHL1   H1B 9482   4.469   3.562   7.046 -0.1952 -0.8653  0.1313
   95CHL1    C2 9483   4.338   3.519   6.879 -0.5184  0.2494 -0.1472
   95CHL1   H2A 9484   4.332   3.627   6.856  0.4564  0.4264  0.4022
   95CHL1   H2B 9485   4.238   3.480   6.849 -0.5493  1.7453 -2.0900
   95CHL1   C20 9486   4.467   3.231   7.786 -0.2725  0.2287 -0.0723
   95CHL1   H20 9487   4.379   3.163   7.794  1.4337 -1.9274  0.6670
   95CHL1   C21 9488   4.423   3.372   7.816 -0.3259  0.5970  0.4958
   95CHL1  H21A 9489   4.387   3.365   7.921  0.5661 -1.3066  0.6944
   95CHL1  H21B 9490   4.336   3.394   7.750 -1.2250 -0.2870  1.3743
   95CHL1  H21C 9491   4.495   3.457   7.808 -0.6995  0.8562 -0.1353
   95CHL1   C22 9492   4.575   3.181   7.891  1.2207  0.3483 -0.9387
   95CHL1  H22A 9493   4.601   3.074   7.878  0.3190 -0.1252  0.9895
   95CHL1  H22B 9494   4.665   3.246   7.883  0.3315  1.7527  0.1392
   95CHL1   C23 9495   4.533   3.179   8.040  0.3576  0.1678 -0.8708
   95CHL1  H23A 9496   4.615   3.137   8.101  1.0683  1.7026 -0.7470
   95CHL1  H23B 9497   4.516   3.279   8.086 -0.3290 -0.3355 -0.0228
   95CHL1   C24 9498   4.413   3.088   8.076 -0.5470 -0.3123 -0.0069
   95CHL1  H24A 9499   4.327   3.125   8.015 -1.1539  0.2994  1.1994
   95CHL1  H24B 9500   4.431   2.983   8.045 -0.3235 -1.0166  2.4614
   95CHL1   C25 9501   4.373   3.086   8.226  0.2992  0.0882  0.4894
   95CHL1   H25 9502   4.469   3.087   8.282  1.0053  0.2822 -0.7049
   95CHL1   C26 9503   4.288   3.210   8.256 -0.2141 -0.0446  0.6378
   95CHL1  H26A 9504   4.260   3.213   8.364 -2.1487 -0.2559  0.1602
   95CHL1  H26B 9505   4.357   3.296   8.242  0.5384 -0.8565 -0.7082
   95CHL1  H26C 9506   4.202   3.218   8.186 -0.1719  1.0971  0.7146
   95CHL1   C27 9507   4.292   2.955   8.260  0.1041 -0.0808 -0.3239
   95CHL1  H27A 9508   4.291   2.927   8.368  0.3418  0.5652 -0.1480
   95CHL1  H27B 9509   4.185   2.966   8.232 -0.7068 -0.1938  2.5837
   95CHL1  H27C 9510   4.338   2.870   8.205 -1.1003 -0.7212 -0.3509
   96CHL1    C3 9511   4.473   2.317   6.805  0.8256  0.4991  1.1703
   96CHL1    H3 9512   4.575   2.361   6.805  1.5445 -0.9942 -2.4233
   96CHL1    O3 9513   4.432   2.325   6.667 -0.0941 -0.0396 -0.1463
   96CHL1   H3' 9514   4.357   2.266   6.659 -0.2551 -0.3482  2.8960
   96CHL1    C4 9515   4.471   2.166   6.856  0.3174  0.0431  1.1372
   96CHL1   H4A 9516   4.378   2.112   6.830  1.0214 -0.8670  0.4445
   96CHL1   H4B 9517   4.544   2.104   6.800 -1.4535  0.8579 -2.1806
   96CHL1    C5 9518   4.498   2.159   7.004 -0.4321 -0.4534 -0.4412
   96CHL1    C6 9519   4.591   2.083   7.060  0.0177 -0.2034 -0.3247
   96CHL1    H6 9520   4.659   2.020   7.000  3.2322  0.1824  2.7606
   96CHL1    C7 9521   4.609   2.066   7.206 -0.2479 -0.3839 -0.3098
   96CHL1   H7A 9522   4.623   1.960   7.238 -1.0720  0.0163  1.4504
   96CHL1   H7B 9523   4.699   2.123   7.238 -0.8651  1.3517 -1.5970
   96CHL1    C8 9524   4.494   2.121   7.292 -0.4723  0.3200 -0.1469
   96CHL1    H8 9525   4.408   2.051   7.283 -1.3184  1.4307 -0.7768
   96CHL1   C14 9526   4.534   2.131   7.443 -0.1834 -0.3209 -0.1839
   96CHL1   H14 9527   4.608   2.214   7.444  0.3988 -0.8313  1.4807
   96CHL1   C15 9528   4.589   2.008   7.509  0.2367 -0.2575  0.3029
   96CHL1  H15A 9529   4.523   1.921   7.490  0.0535 -0.2366  0.8334
   96CHL1  H15B 9530   4.688   1.967   7.480  0.6791  1.4222 -0.6279
   96CHL1   C16 9531   4.563   2.045   7.660 -0.3027  1.0530 -0.4569
   96CHL1  H16A 9532   4.499   1.964   7.702 -1.9183  1.9735 -1.0772
   96CHL1  H16B 9533   4.658   2.048   7.717 -0.2257 -1.8568 -0.3504
   96CHL1   C17 9534   4.486   2.171   7.667 -0.2295 -0.2746  0.1560
   96CHL1   H17 9535   4.562   2.251   7.680 -0.4296  0.1454 -1.1581
   96CHL1   C13 9536   4.414   2.181   7.534 -0.0988 -0.6161 -0.4763
   96CHL1   C18 9537   4.306   2.079   7.532  0.2637  0.3932 -0.0343
   96CHL1  H18A 9538   4.335   1.985   7.584  0.2033  1.3599  1.7441
   96CHL1  H18B 9539   4.216   2.114   7.585 -0.3645  1.5400 -1.8011
   96CHL1  H18C 9540   4.276   2.059   7.426  1.6861  0.5156 -0.4710
   96CHL1   C12 9541   4.383   2.320   7.481  0.9141  0.1870  0.5730
   96CHL1  H12A 9542   4.294   2.348   7.542 -1.7216 -0.7086 -2.7131
   96CHL1  H12B 9543   4.469   2.387   7.501  0.8771  0.8376 -1.4055
   96CHL1   C11 9544   4.341   2.332   7.330  0.3971 -0.2634 -0.4028
   96CHL1  H11A 9545   4.243   2.282   7.313 -1.3661  4.1370 -4.4505
   96CHL1  H11B 9546   4.317   2.435   7.295 -3.5137 -1.0560 -0.3624
   96CHL1    C9 9547   4.445   2.256   7.235 -0.0615 -0.3171  0.4319
   96CHL1    H9 9548   4.536   2.319   7.230  0.7045 -1.5516 -1.8481
   96CHL1   C10 9549   4.394   2.241   7.085  0.2441 -0.1970  0.0513
   96CHL1   C19 9550   4.258   2.171   7.066 -0.9029  0.6370  0.8004
   96CHL1  H19A 9551   4.180   2.214   7.132 -1.3001 -1.2660  1.5749
   96CHL1  H19B 9552   4.228   2.164   6.959  1.2552  1.4834  0.1022
   96CHL1  H19C 9553   4.269   2.067   7.102  1.1688 -0.2560 -2.2314
   96CHL1    C1 9554   4.392   2.388   7.029 -0.4686 -0.0443 -0.7926
   96CHL1   H1A 9555   4.316   2.449   7.083  0.6618 -0.3978  1.2439
   96CHL1   H1B 9556   4.489   2.440   7.044 -1.9154  2.9331 -1.2020
   96CHL1    C2 9557   4.362   2.395   6.882  0.2174 -0.3778  0.5315
   96CHL1   H2A 9558   4.365   2.498   6.839  3.2029 -1.5723 -2.2479
   96CHL1   H2B 9559   4.264   2.349   6.858 -0.4503  0.9081  0.7129
   96CHL1   C20 9560   4.394   2.170   7.801  0.0671  0.3467  0.0182
   96CHL1   H20 9561   4.335   2.076   7.799  0.4380  0.1177 -0.2764
   96CHL1   C21 9562   4.295   2.290   7.812  0.7502 -0.4291  0.4597
   96CHL1  H21A 9563   4.220   2.288   7.730  0.2722  1.4827  0.8370
   96CHL1  H21B 9564   4.345   2.388   7.828 -1.1730  0.9154 -1.4594
   96CHL1  H21C 9565   4.230   2.270   7.900 -0.2581 -1.7406 -0.5579
   96CHL1   C22 9566   4.493   2.170   7.924 -0.5211  0.3792 -0.3286
   96CHL1  H22A 9567   4.554   2.077   7.916  1.2254  1.2677  2.0772
   96CHL1  H22B 9568   4.555   2.262   7.932 -2.4356  1.7092 -0.4220
   96CHL1   C23 9569   4.425   2.171   8.059  0.3948 -0.6457  0.1324
   96CHL1  H23A 9570   4.358   2.258   8.076 -1.5708 -1.7409 -1.8791
   96CHL1  H23B 9571   4.353   2.087   8.065 -0.4752  0.0619 -0.3283
   96CHL1   C24 9572   4.523   2.151   8.177  0.1439  0.0271  0.0492
   96CHL1  H24A 9573   4.593   2.069   8.151 -0.0478  0.0534 -0.5426
   96CHL1  H24B 9574   4.588   2.242   8.181  2.0613 -1.0878 -3.2101
   96CHL1   C25 9575   4.457   2.141   8.313 -0.6414 -0.0410 -0.0032
   96CHL1   H25 9576   4.408   2.237   8.339 -3.2750 -1.6459  1.1084
   96CHL1   C26 9577   4.348   2.029   8.325 -0.2419 -0.6229  0.2020
   96CHL1  H26A 9578   4.317   2.013   8.430 -0.3677 -1.2342  0.0740
   96CHL1  H26B 9579   4.251   2.047   8.274 -0.7962  0.0982  1.5051
   96CHL1  H26C 9580   4.385   1.930   8.289 -0.5365 -0.4007 -0.7471
   96CHL1   C27 9581   4.564   2.116   8.422  0.5331  0.4482 -0.0135
   96CHL1  H27A 9582   4.625   2.029   8.390  1.1640  1.4643 -1.6131
   96CHL1  H27B 9583   4.632   2.200   8.448  0.0432  0.1927  2.1600
   96CHL1  H27C 9584   4.522   2.083   8.520  0.8869 -0.1792 -0.0628
   97OSM      N 9585   2.640   3.855  11.025 -0.1839  0.1811 -0.0543
   97OSM    C15 9586   2.593   3.811  11.163  0.1035  0.2247  0.2700
   97OSM   H15A 9587   2.655   3.746  11.222 -1.0363 -0.9022  0.2414
   97OSM   H15B 9588   2.493   3.771  11.149 -0.0598  1.1065 -1.1641
   97OSM   H15C 9589   2.583   3.895  11.231 -3.2104 -0.2202  0.4430
   97OSM    C14 9590   2.539   3.956  10.978 -0.6311  0.7341  0.5892
   97OSM   H14A 9591   2.572   3.995  10.883  0.4154  0.7804  0.9699
   97OSM   H14B 9592   2.533   4.042  11.043 -0.2784  2.2212 -1.3034
   97OSM   H14C 9593   2.443   3.908  10.963  1.9907 -4.4258 -1.0382
   97OSM    C13 9594   2.770   3.923  11.048  0.4136  0.1891  0.1644
   97OSM   H13A 9595   2.769   3.994  11.129 -0.9451  1.1308 -0.6550
   97OSM   H13B 9596   2.806   3.974  10.959 -0.8512  0.0550 -0.4371
   97OSM   H13C 9597   2.847   3.854  11.077 -0.7952 -0.6138  1.4863
   97OSM    C12 9598   2.650   3.736  10.935 -0.1917 -0.0058  0.5937
   97OSM   H12A 9599   2.694   3.658  10.996  1.7840  0.8352  0.2784
   97OSM   H12B 9600   2.725   3.768  10.865  1.5724  1.8517  3.2149
   97OSM    C11 9601   2.522   3.684  10.867  0.0526  0.3140  0.2543
   97OSM   H11A 9602   2.544   3.599  10.798  1.2582 -1.6534  2.9570
   97OSM   H11B 9603   2.479   3.765  10.804 -0.5754  0.9274  1.4638
   97OSM      P 9604   2.391   3.528  11.045 -0.2686 -0.6405 -0.0571
   97OSM    O13 9605   2.525   3.457  11.071  0.4986 -0.4563  0.3207
   97OSM    O14 9606   2.296   3.548  11.155 -0.1596  0.3857  0.3523
   97OSM    O11 9607   2.322   3.440  10.933 -0.4554 -0.3217  0.8945
   97OSM    O12 9608   2.417   3.660  10.962 -0.0396  0.4540 -0.1494
   97OSM    C1S 9609   2.200   3.487  10.866 -0.5465  0.1822 -0.1319
   97OSM    H1S 9610   2.155   3.579  10.908  1.2580  0.4653  1.2800
   97OSM    H1T 9611   2.126   3.405  10.881 -1.1677  0.9344  0.9149
   97OSM     NF 9612   2.119   3.587  10.661 -0.0631  0.4157  0.2821
   97OSM    HNF 9613   2.045   3.534  10.621 -0.9820  1.1352  1.0004
   97OSM    C2S 9614   2.224   3.511  10.715  0.2911 -0.0642  0.1557
   97OSM    H2S 9615   2.320   3.567  10.711  0.7805 -0.8778  0.5319
   97OSM    C3S 9616   2.253   3.366  10.648 -0.0933  0.3379  0.3618
   97OSM    H3S 9617   2.156   3.312  10.641  0.8671 -1.4315  0.3494
   97OSM     O3 9618   2.337   3.279  10.721  0.0806 -0.1129  0.2564
   97OSM    HO3 9619   2.348   3.322  10.806  1.1032  0.0968  0.0226
   97OSM    C4S 9620   2.320   3.385  10.510 -0.7305  0.5937  0.0894
   97OSM    H4S 9621   2.249   3.393  10.427 -0.9650 -0.6428  0.1686
   97OSM    C5S 9622   2.453   3.412  10.488  0.1353  0.1751 -0.0907
   97OSM    H5S 9623   2.526   3.405  10.569  0.5929  1.2052 -0.4113
   97OSM    C6S 9624   2.516   3.446  10.347  0.5104  0.2634 -0.2090
   97OSM    H6S 9625   2.544   3.552  10.331  1.7861 -0.3515 -2.2090
   97OSM    H6T 9626   2.441   3.426  10.267  1.1101  1.1619 -0.9986
   97OSM    C7S 9627   2.643   3.348  10.337 -0.6903  0.6056  0.7385
   97OSM    H7S 9628   2.605   3.245  10.319  1.8370 -0.7371  2.7632
   97OSM    H7T 9629   2.688   3.352  10.439 -3.1774  1.5861  1.8378
   97OSM    C8S 9630   2.756   3.393  10.239  0.1504  0.8647  0.1123
   97OSM    H8S 9631   2.792   3.496  10.258 -1.5544  1.8752 -1.9597
   97OSM    H8T 9632   2.715   3.381  10.136  0.2148  0.4339  0.1345
   97OSM    C9S 9633   2.878   3.304  10.253  0.5801 -0.4536  0.0950
   97OSM    H9S 9634   2.849   3.200  10.225  1.2409 -1.0121  1.4239
   97OSM    H9T 9635   2.924   3.314  10.353  2.1813 -0.4748 -0.6347
   97OSM   C10S 9636   2.982   3.345  10.148 -0.0266  0.3897 -0.4616
   97OSM   H10S 9637   3.079   3.327  10.198 -0.7209  1.4101  1.2872
   97OSM   H10T 9638   2.977   3.448  10.108 -2.7285 -0.0873 -1.5246
   97OSM   C11S 9639   2.972   3.250  10.023 -0.1908 -0.5035 -0.5681
   97OSM   H11S 9640   2.875   3.271   9.974 -0.0530 -0.7794 -0.9614
   97OSM   H11T 9641   2.970   3.146  10.061  3.0218 -0.3269  0.2558
   97OSM   C12S 9642   3.077   3.274   9.907  0.3192  0.2362 -0.2425
   97OSM   H12S 9643   3.176   3.249   9.951 -0.0500 -1.2883 -0.2334
   97OSM   H12T 9644   3.070   3.381   9.880 -1.3220  0.1405 -0.2335
   97OSM   C13S 9645   3.044   3.187   9.789  0.8249  0.1378 -0.4755
   97OSM   H13S 9646   2.940   3.190   9.751  1.6392  0.1964 -2.7643
   97OSM   H13T 9647   3.067   3.085   9.828 -0.2752  0.0842  0.0589
   97OSM   C14S 9648   3.132   3.221   9.670 -0.6866 -0.5899  0.2423
   97OSM   H14S 9649   3.223   3.167   9.704 -0.0745 -2.2041 -3.7612
   97OSM   H14T 9650   3.146   3.330   9.651  1.0593 -0.8237  0.1554
   97OSM   C15S 9651   3.082   3.149   9.538 -0.1189 -0.2160  0.1982
   97OSM   H15S 9652   2.979   3.185   9.518  1.2609  4.4614  0.8696
   97OSM   H15T 9653   3.086   3.038   9.547 -1.0265 -0.1500  1.5663
   97OSM   C16S 9654   3.168   3.186   9.420 -0.3509 -0.6075 -0.4903
   97OSM   H16S 9655   3.277   3.171   9.439 -0.4872  0.7443  1.6331
   97OSM   H16T 9656   3.148   3.293   9.398  0.7968 -0.6000 -1.5267
   97OSM   C17S 9657   3.134   3.100   9.305  0.1213  0.3874  0.8335
   97OSM   H17S 9658   3.023   3.092   9.297  0.1127 -1.5066  2.3796
   97OSM   H17T 9659   3.179   3.001   9.329  1.1744  0.4411 -0.8203
   97OSM   C18S 9660   3.198   3.148   9.176  0.1540 -0.9333  0.3853
   97OSM   H18S 9661   3.178   3.255   9.152 -0.0217 -0.8113  1.0664
   97OSM   H18T 9662   3.155   3.089   9.092 -1.1424  1.4081 -0.6446
   97OSM   H18U 9663   3.306   3.122   9.176  0.1561 -0.9364 -0.7741
   97OSM    C1F 9664   2.093   3.718  10.677 -0.5214 -1.0161 -0.0136
   97OSM     OF 9665   2.142   3.789  10.762 -0.5776 -0.2248 -0.2048
   97OSM    C2F 9666   1.976   3.771  10.603 -0.0623 -0.1448  0.2643
   97OSM    H2F 9667   1.917   3.847  10.658 -1.1481 -2.5138  2.4566
   97OSM    H2G 9668   1.896   3.696  10.580 -0.1962 -0.7266  2.5123
   97OSM    C3F 9669   2.015   3.835  10.466 -0.8938  0.5265  0.8403
   97OSM    H3F 9670   2.101   3.902  10.484  0.7391 -1.3744  0.3180
   97OSM    H3G 9671   1.922   3.878  10.424 -1.3121 -0.3191  0.8843
   97OSM    C4F 9672   2.067   3.723  10.368 -0.0629 -0.9816  0.0670
   97OSM    H4F 9673   1.997   3.637  10.364 -2.4355  0.8593  1.3678
   97OSM    H4G 9674   2.172   3.693  10.392 -0.5556 -2.0284  0.9513
   97OSM    C5F 9675   2.083   3.776  10.224  0.0189  0.3858 -0.0019
   97OSM    H5F 9676   2.150   3.864  10.227  0.9208 -0.3118  0.8511
   97OSM    H5G 9677   1.980   3.801  10.189  0.5013 -0.9461 -2.4705
   97OSM    C6F 9678   2.133   3.663  10.131  0.5205 -0.0944 -0.2329
   97OSM    H6F 9679   2.058   3.583  10.149 -1.0371  1.6212  1.1199
   97OSM    H6G 9680   2.230   3.626  10.171 -0.2659 -0.2590  1.5680
   97OSM    C7F 9681   2.143   3.708   9.977  0.7455 -0.1007  0.5353
   97OSM    H7F 9682   2.208   3.797   9.967 -1.4397  1.9025  3.2324
   97OSM    H7G 9683   2.042   3.726   9.934  0.5733 -0.1865  0.8923
   97OSM    C8F 9684   2.212   3.588   9.901  0.3295 -0.2035 -0.5542
   97OSM    H8F 9685   2.185   3.590   9.793  0.8241 -2.4438 -0.7417
   97OSM    H8G 9686   2.181   3.496   9.955 -2.8730  1.3616  0.4022
   97OSM    C9F 9687   2.359   3.584   9.914 -0.1646 -0.3327 -0.0553
   97OSM    H9F 9688   2.419   3.676   9.916 -1.9263  0.8276  0.3501
   97OSM   C10F 9689   2.429   3.471   9.915 -0.6439  0.1062 -0.4740
   97OSM   H10F 9690   2.538   3.461   9.910 -0.5424  1.2229 -0.5474
   97OSM   C11F 9691   2.375   3.332   9.894 -0.1524  0.4295 -0.0033
   97OSM   H11F 9692   2.265   3.319   9.887 -0.0170 -0.7065 -0.1138
   97OSM   H11G 9693   2.408   3.263   9.975  3.8167  1.9881 -0.1924
   97OSM   C12F 9694   2.436   3.277   9.765  0.1689 -0.1010 -0.5487
   97OSM   H12F 9695   2.415   3.168   9.763 -0.8978  0.0977 -0.2106
   97OSM   H12G 9696   2.547   3.287   9.757  0.1655 -0.4340 -1.0854
   97OSM   C13F 9697   2.366   3.317   9.631 -0.4438 -0.0010 -0.5611
   97OSM   H13F 9698   2.256   3.317   9.642 -0.3662 -0.5988  0.2002
   97OSM   H13G 9699   2.389   3.233   9.562 -1.9764 -3.0082  2.4841
   97OSM   C14F 9700   2.414   3.449   9.566 -0.7235 -0.4404 -0.3705
   97OSM   H14F 9701   2.523   3.440   9.550 -0.7232 -1.4049  0.1110
   97OSM   H14G 9702   2.389   3.535   9.631  0.9503  0.7712 -1.2931
   97OSM   C15F 9703   2.370   3.456   9.422  0.1251  0.0658 -0.0576
   97OSM   H15F 9704   2.368   3.566   9.408  0.5294  0.1995  0.8860
   97OSM   H15G 9705   2.273   3.406   9.401  0.6793 -1.0261 -0.0536
   97OSM   C16F 9706   2.460   3.398   9.314  0.2082  0.0893  0.4169
   97OSM   H16F 9707   2.481   3.296   9.353 -1.3476 -0.7798 -0.9546
   97OSM   H16G 9708   2.555   3.455   9.319 -0.2422  1.2159 -2.6676
   97OSM   C17F 9709   2.407   3.408   9.169 -0.0404  0.1601  0.3100
   97OSM   H17F 9710   2.317   3.345   9.150  0.8946 -0.9070 -0.7395
   97OSM   H17G 9711   2.477   3.370   9.091 -0.6386  0.7214 -0.5097
   97OSM   C18F 9712   2.385   3.551   9.115  0.1844  0.2202  0.0236
   97OSM   H18F 9713   2.352   3.550   9.009  1.7228 -0.1049 -0.4652
   97OSM   H18G 9714   2.484   3.600   9.127  0.6670 -0.5402 -0.8414
   97OSM   H18H 9715   2.319   3.606   9.186 -0.2665  0.5091 -0.6193
   98OSM      N 9716   1.665   3.720  11.121  0.0747 -0.7023  0.4584
   98OSM    C15 9717   1.616   3.585  11.150 -0.4313 -0.3114  0.1969
   98OSM   H15A 9718   1.518   3.592  11.195 -1.0157  2.1823 -1.3209
   98OSM   H15B 9719   1.685   3.530  11.212 -0.2247 -0.0777  0.1739
   98OSM   H15C 9720   1.600   3.527  11.060  0.1444 -0.0882 -0.0519
   98OSM    C14 9721   1.550   3.802  11.065  0.6127 -0.5676  0.0353
   98OSM   H14A 9722   1.572   3.876  10.989  1.5961 -1.7489 -0.8540
   98OSM   H14B 9723   1.493   3.854  11.141 -0.0366 -0.1555 -0.7188
   98OSM   H14C 9724   1.486   3.729  11.017 -4.9338  3.4159  0.8450
   98OSM    C13 9725   1.701   3.777  11.260 -0.4721 -1.3144  0.0258
   98OSM   H13A 9726   1.723   3.882  11.249  0.3260 -1.7249 -2.6355
   98OSM   H13B 9727   1.784   3.717  11.295  0.5576  0.0491 -0.0311
   98OSM   H13C 9728   1.611   3.774  11.320 -0.4294 -0.7012  0.1243
   98OSM    C12 9729   1.784   3.710  11.031  0.3651 -0.3780 -0.4273
   98OSM   H12A 9730   1.861   3.656  11.084  0.5731  0.7281  0.4096
   98OSM   H12B 9731   1.838   3.803  11.026  3.4749 -1.8660  3.1411
   98OSM    C11 9732   1.762   3.643  10.890  0.4312 -0.1902 -0.3973
   98OSM   H11A 9733   1.861   3.633  10.841 -0.2539  1.1702 -2.1074
   98OSM   H11B 9734   1.705   3.715  10.828  0.7657  2.0434  1.7632
   98OSM      P 9735   1.781   3.380  10.902  0.1720  0.3245 -0.0572
   98OSM    O13 9736   1.892   3.382  10.806 -0.2057 -0.1614  0.5635
   98OSM    O14 9737   1.815   3.350  11.044  0.5062 -0.0512  0.0946
   98OSM    O11 9738   1.661   3.282  10.859  0.1875 -0.4371  0.4146
   98OSM    O12 9739   1.706   3.518  10.896 -0.2135 -0.2142 -0.1236
   98OSM    C1S 9740   1.604   3.287  10.727 -0.0597  0.2534  0.4203
   98OSM    H1S 9741   1.605   3.392  10.689  3.2204  0.2736  0.4422
   98OSM    H1T 9742   1.501   3.248  10.740 -0.8523  1.4057 -2.0298
   98OSM     NF 9743   1.572   3.196  10.502 -0.2558  0.3734  0.6034
   98OSM    HNF 9744   1.500   3.127  10.494  0.9822 -0.9439  0.5849
   98OSM    C2S 9745   1.662   3.187  10.613 -0.6742  0.1588 -0.7033
   98OSM    H2S 9746   1.763   3.215  10.576 -0.0724  1.3982  1.8180
   98OSM    C3S 9747   1.666   3.043  10.678  0.3874  0.1172 -0.6029
   98OSM    H3S 9748   1.574   3.023  10.738  0.0643 -0.0107 -1.1374
   98OSM     O3 9749   1.766   3.018  10.774  0.1202 -0.0867 -0.3875
   98OSM    HO3 9750   1.790   3.104  10.810 -1.3409  0.5569 -0.8798
   98OSM    C4S 9751   1.692   2.937  10.576 -0.3429  0.4483  0.2415
   98OSM    H4S 9752   1.793   2.954  10.535 -0.4117  0.7944  0.2137
   98OSM    C5S 9753   1.616   2.836  10.537 -0.1050 -0.4195  1.1117
   98OSM    H5S 9754   1.516   2.817  10.578 -0.2328  1.6501  1.7962
   98OSM    C6S 9755   1.644   2.733  10.429 -0.1861  0.0917 -0.0208
   98OSM    H6S 9756   1.550   2.724  10.369  0.1305 -1.2372 -0.3160
   98OSM    H6T 9757   1.664   2.634  10.474 -0.6874  0.9786  2.2054
   98OSM    C7S 9758   1.761   2.773  10.336 -0.4956 -0.3904 -0.1191
   98OSM    H7S 9759   1.851   2.752  10.398 -0.5963 -2.3125 -0.6018
   98OSM    H7T 9760   1.748   2.879  10.305 -1.5030 -1.0389 -1.9718
   98OSM    C8S 9761   1.763   2.690  10.212  0.0261  0.1807  0.2205
   98OSM    H8S 9762   1.666   2.705  10.161 -0.5224 -1.2402  0.8166
   98OSM    H8T 9763   1.774   2.584  10.242  0.4383  0.6358  1.7308
   98OSM    C9S 9764   1.878   2.716  10.112 -0.0276 -0.5589 -0.1040
   98OSM    H9S 9765   1.974   2.728  10.167  0.7209  4.0100 -2.2383
   98OSM    H9T 9766   1.845   2.805  10.055  0.8446  0.2160  0.5778
   98OSM   C10S 9767   1.905   2.591  10.015  1.2032  0.2727 -0.2246
   98OSM   H10S 9768   1.921   2.498  10.073  2.4541 -0.7713 -2.1955
   98OSM   H10T 9769   2.004   2.602   9.965  0.4259  0.8188 -1.6687
   98OSM   C11S 9770   1.795   2.578   9.915 -0.5018  0.3986  0.1956
   98OSM   H11S 9771   1.701   2.588   9.974 -0.2848 -1.5144  0.9224
   98OSM   H11T 9772   1.797   2.473   9.879  0.0950  0.8558 -1.1305
   98OSM   C12S 9773   1.795   2.681   9.793 -0.4092  0.1571 -0.2580
   98OSM   H12S 9774   1.895   2.675   9.744  0.7306 -0.6297  2.0938
   98OSM   H12T 9775   1.776   2.783   9.833 -1.2759 -0.1346  0.0935
   98OSM   C13S 9776   1.676   2.655   9.706 -0.7043  0.5050 -0.0047
   98OSM   H13S 9777   1.584   2.635   9.765 -1.2495  1.9355 -0.3620
   98OSM   H13T 9778   1.707   2.569   9.641 -1.6256 -1.9126  2.6563
   98OSM   C14S 9779   1.635   2.763   9.611 -0.2528 -0.4775  0.3521
   98OSM   H14S 9780   1.720   2.775   9.540  1.0610 -2.2330  1.5733
   98OSM   H14T 9781   1.624   2.868   9.644 -0.1397 -0.5050  0.4783
   98OSM   C15S 9782   1.516   2.725   9.522 -0.1256 -0.2058  0.0828
   98OSM   H15S 9783   1.509   2.798   9.438  0.1382  0.4906  0.6628
   98OSM   H15T 9784   1.428   2.748   9.586 -0.3680 -1.1545  0.0945
   98OSM   C16S 9785   1.532   2.585   9.460  0.1525  0.0435  0.3397
   98OSM   H16S 9786   1.433   2.584   9.410  0.2692  1.2082  0.0700
   98OSM   H16T 9787   1.528   2.500   9.533 -1.8983  0.1378  0.3860
   98OSM   C17S 9788   1.644   2.563   9.361  0.0823  0.0052 -0.2021
   98OSM   H17S 9789   1.744   2.578   9.409  0.5293 -0.6704 -0.9156
   98OSM   H17T 9790   1.626   2.632   9.276 -0.4790  2.4316  1.7980
   98OSM   C18S 9791   1.643   2.418   9.307  0.0474 -0.2185 -0.2110
   98OSM   H18S 9792   1.541   2.376   9.291 -1.4237  1.4762  4.1358
   98OSM   H18T 9793   1.704   2.354   9.373 -1.4313 -0.5256  0.8794
   98OSM   H18U 9794   1.710   2.415   9.218  1.3429 -1.0351  0.7834
   98OSM    C1F 9795   1.594   3.289  10.412  0.4043  1.3630 -0.5223
   98OSM     OF 9796   1.698   3.349  10.407 -0.1880 -0.0357 -0.1860
   98OSM    C2F 9797   1.483   3.302  10.311  0.0226 -0.0002  0.1166
   98OSM    H2F 9798   1.464   3.409  10.289 -0.6156 -0.0172  0.5535
   98OSM    H2G 9799   1.392   3.266  10.364  0.8053  0.9915  2.1989
   98OSM    C3F 9800   1.513   3.230  10.176  0.0156  0.2681  0.5821
   98OSM    H3F 9801   1.611   3.269  10.141 -0.7555  1.3490 -0.4363
   98OSM    H3G 9802   1.434   3.262  10.105 -0.2626  1.0006  1.2165
   98OSM    C4F 9803   1.487   3.078  10.184  0.1025  0.8712  0.2595
   98OSM    H4F 9804   1.382   3.065  10.219  0.2643  0.4781  0.6114
   98OSM    H4G 9805   1.551   3.043  10.268 -0.5451  1.0468  0.8276
   98OSM    C5F 9806   1.494   2.999  10.052 -0.0709  0.1752  0.7661
   98OSM    H5F 9807   1.592   2.946  10.048 -1.9549 -3.4155  0.4571
   98OSM    H5G 9808   1.484   3.062   9.961  0.3874  0.7267  1.0894
   98OSM    C6F 9809   1.390   2.888  10.040 -0.6562 -0.2389 -0.7520
   98OSM    H6F 9810   1.289   2.934  10.050 -1.2756 -1.3243 -1.7915
   98OSM    H6G 9811   1.401   2.820  10.127 -1.0989 -0.9915 -1.2820
   98OSM    C7F 9812   1.397   2.814   9.906  0.2334 -0.0729  0.3847
   98OSM    H7F 9813   1.502   2.800   9.873  0.1219 -0.3679  0.1535
   98OSM    H7G 9814   1.355   2.879   9.827  0.0336 -2.3516 -1.4533
   98OSM    C8F 9815   1.322   2.688   9.910  0.6547 -0.0737 -0.9823
   98OSM    H8F 9816   1.332   2.635   9.813  0.0951 -1.0967 -0.4970
   98OSM    H8G 9817   1.212   2.697   9.919  0.6967  0.6104 -1.1047
   98OSM    C9F 9818   1.368   2.585  10.014 -0.4284  0.0626 -0.0689
   98OSM    H9F 9819   1.476   2.580  10.034 -0.0759  3.4444 -0.8100
   98OSM   C10F 9820   1.283   2.510  10.091  0.5550 -0.4123  0.6390
   98OSM   H10F 9821   1.328   2.434  10.158  0.2377 -2.9421 -1.9085
   98OSM   C11F 9822   1.128   2.522  10.102 -0.4758  0.1744  0.6884
   98OSM   H11F 9823   1.088   2.606  10.042 -0.7213  0.0882  0.7331
   98OSM   H11G 9824   1.115   2.550  10.209  1.7880 -0.1467  1.0763
   98OSM   C12F 9825   1.056   2.385  10.084 -0.6129 -0.1015 -0.0112
   98OSM   H12F 9826   0.947   2.375  10.105 -0.3889 -4.6997 -0.4283
   98OSM   H12G 9827   1.090   2.306  10.155  1.0029 -1.5933 -2.3803
   98OSM   C13F 9828   1.080   2.326   9.941  0.5969  0.5484 -0.8723
   98OSM   H13F 9829   1.012   2.239   9.928  2.6785 -1.1657 -0.4657
   98OSM   H13G 9830   1.187   2.296   9.936  0.3979 -0.4654  0.6848
   98OSM   C14F 9831   1.052   2.422   9.822 -0.5918 -0.0656  0.6857
   98OSM   H14F 9832   1.126   2.504   9.837 -0.0849 -0.5491  0.8576
   98OSM   H14G 9833   0.949   2.463   9.826 -0.9277 -0.7917 -0.3350
   98OSM   C15F 9834   1.085   2.353   9.686  0.2105 -0.2998 -1.0400
   98OSM   H15F 9835   1.019   2.264   9.683 -0.4545 -0.0723  3.1364
   98OSM   H15G 9836   1.190   2.317   9.677 -0.3545 -2.2301 -0.1525
   98OSM   C16F 9837   1.045   2.444   9.569  0.0561  0.5607 -0.0986
   98OSM   H16F 9838   0.943   2.487   9.572 -0.7856 -1.0033 -3.2660
   98OSM   H16G 9839   1.045   2.374   9.483 -0.8036  0.8259 -0.3147
   98OSM   C17F 9840   1.146   2.557   9.534 -0.0062  0.0023 -0.8643
   98OSM   H17F 9841   1.166   2.543   9.425  0.1442  0.0502 -0.8423
   98OSM   H17G 9842   1.239   2.543   9.592 -0.9468  1.1585  0.9789
   98OSM   C18F 9843   1.084   2.695   9.557 -0.9499 -0.3064 -0.2505
   98OSM   H18F 9844   0.984   2.715   9.513 -1.6187 -0.1014  1.2975
   98OSM   H18G 9845   1.155   2.769   9.516 -0.7046 -0.4418 -0.0718
   98OSM   H18H 9846   1.085   2.712   9.667  1.6627 -1.6200 -0.0269
   99OSM      N 9847   3.501   3.728  10.984 -0.0865 -0.0697 -0.0024
   99OSM    C15 9848   3.351   3.714  10.983  0.5279  0.2364 -0.3391
   99OSM   H15A 9849   3.297   3.784  10.922 -0.2423  0.6781  0.8244
   99OSM   H15B 9850   3.299   3.714  11.078 -1.3128 -1.0550 -1.3165
   99OSM   H15C 9851   3.323   3.616  10.948 -0.1695 -0.7692  2.8202
   99OSM    C14 9852   3.558   3.747  10.845  0.6469  0.3280  0.9978
   99OSM   H14A 9853   3.665   3.761  10.841  0.9656 -2.1603  0.1574
   99OSM   H14B 9854   3.498   3.821  10.793 -0.8213 -0.1944  1.9284
   99OSM   H14C 9855   3.537   3.662  10.782  2.0819 -0.5985  1.7500
   99OSM    C13 9856   3.520   3.859  11.055 -0.6098 -0.5359 -0.4668
   99OSM   H13A 9857   3.619   3.865  11.097 -0.9712  1.2783  0.1993
   99OSM   H13B 9858   3.449   3.883  11.133 -0.5465 -0.0989 -0.5409
   99OSM   H13C 9859   3.505   3.938  10.982 -1.4668 -1.2787 -1.1103
   99OSM    C12 9860   3.575   3.622  11.064 -0.0050  0.2495  0.4815
   99OSM   H12A 9861   3.534   3.615  11.163  0.2807  0.1651  0.5953
   99OSM   H12B 9862   3.676   3.660  11.066  0.6118 -1.2281 -1.2149
   99OSM    C11 9863   3.567   3.478  11.002  0.0018 -1.0127 -0.3175
   99OSM   H11A 9864   3.463   3.438  11.002  0.1990 -1.5465  0.2646
   99OSM   H11B 9865   3.634   3.432  11.079  1.6439  0.0215 -1.0983
   99OSM      P 9866   3.788   3.487  10.857 -0.0972 -0.6632  0.1992
   99OSM    O13 9867   3.845   3.590  10.949 -1.1026  0.2779  0.3135
   99OSM    O14 9868   3.846   3.352  10.862  0.3309 -0.1211  0.6279
   99OSM    O11 9869   3.801   3.541  10.710 -0.1235 -0.1554 -0.3473
   99OSM    O12 9870   3.628   3.471  10.869 -0.2461 -1.2469 -0.0095
   99OSM    C1S 9871   3.723   3.476  10.609  0.4473 -0.7505  0.0203
   99OSM    H1S 9872   3.622   3.523  10.604  0.5330 -0.6049 -0.3525
   99OSM    H1T 9873   3.705   3.370  10.637 -2.0149 -0.9593 -2.1087
   99OSM     NF 9874   3.696   3.404  10.380 -0.2083  0.7643  0.1943
   99OSM    HNF 9875   3.708   3.305  10.378  0.9922  0.8774 -3.6585
   99OSM    C2S 9876   3.786   3.471  10.477  0.4224  0.4151  0.6873
   99OSM    H2S 9877   3.795   3.573  10.433 -1.1356 -0.1989 -1.1265
   99OSM    C3S 9878   3.922   3.393  10.481  0.1242  0.0380 -0.1157
   99OSM    H3S 9879   3.900   3.285  10.491  0.6054  0.0873  1.4586
   99OSM     O3 9880   4.011   3.429  10.590 -0.4134 -0.4137 -0.6667
   99OSM    HO3 9881   3.957   3.466  10.661  0.9825  1.7243 -0.6815
   99OSM    C4S 9882   4.012   3.412  10.358  0.5249  0.1285  0.1663
   99OSM    H4S 9883   4.016   3.515  10.319 -0.4625 -0.1364 -0.6651
   99OSM    C5S 9884   4.048   3.315  10.267 -0.1905 -0.4742 -0.8636
   99OSM    H5S 9885   4.010   3.214  10.292  0.0097 -0.4581 -0.4909
   99OSM    C6S 9886   4.119   3.342  10.136  0.0561  0.5621  0.4883
   99OSM    H6S 9887   4.213   3.284  10.124  0.0027  0.5687  0.0029
   99OSM    H6T 9888   4.154   3.447  10.141  1.1738  0.3189 -1.6866
   99OSM    C7S 9889   4.030   3.314  10.011 -0.3155  0.5653  0.0607
   99OSM    H7S 9890   3.946   3.386  10.015 -0.4605  0.3262  1.6413
   99OSM    H7T 9891   3.989   3.212  10.023  0.5746  0.3485  1.3534
   99OSM    C8S 9892   4.105   3.326   9.878  0.4680  0.0514  1.3977
   99OSM    H8S 9893   4.199   3.267   9.873  1.1984  1.3385 -0.7778
   99OSM    H8T 9894   4.135   3.433   9.871 -1.2716  0.5945  1.9314
   99OSM    C9S 9895   4.027   3.293   9.755  0.2447  0.5163 -0.0681
   99OSM    H9S 9896   3.951   3.370   9.733 -0.7058 -1.1034 -2.6353
   99OSM    H9T 9897   3.973   3.198   9.771  0.3120  0.2506 -1.3240
   99OSM   C10S 9898   4.107   3.288   9.626  0.0965  0.1520 -0.3809
   99OSM   H10S 9899   4.188   3.214   9.641  1.7551  2.0796  0.3468
   99OSM   H10T 9900   4.142   3.392   9.608  0.3531  0.1213 -0.0611
   99OSM   C11S 9901   4.020   3.226   9.514 -0.2608 -0.6114 -0.1281
   99OSM   H11S 9902   3.916   3.257   9.542  0.4529  1.7713  0.0351
   99OSM   H11T 9903   4.030   3.116   9.518 -2.0831 -0.8651 -1.7842
   99OSM   C12S 9904   4.062   3.263   9.374 -0.4523  0.3633 -0.0338
   99OSM   H12S 9905   4.053   3.371   9.349  0.7933  0.5604  0.3334
   99OSM   H12T 9906   4.172   3.246   9.374 -0.5822 -0.5333  0.5731
   99OSM   C13S 9907   4.017   3.181   9.253  0.5173 -0.5639 -0.0565
   99OSM   H13S 9908   3.917   3.225   9.234  1.0990  0.8036 -0.0734
   99OSM   H13T 9909   4.015   3.074   9.280 -2.3794 -0.2948  0.9244
   99OSM   C14S 9910   4.108   3.196   9.131 -0.1986  0.7347 -0.4391
   99OSM   H14S 9911   4.101   3.106   9.066  1.4671  0.4143 -0.1947
   99OSM   H14T 9912   4.215   3.213   9.156 -0.6065  2.3943  0.2416
   99OSM   C15S 9913   4.063   3.307   9.035 -0.5761  0.1528 -0.5645
   99OSM   H15S 9914   4.148   3.328   8.966  1.1263  1.6224  1.9396
   99OSM   H15T 9915   4.047   3.404   9.086  1.6338 -0.8594  2.1336
   99OSM   C16S 9916   3.942   3.269   8.947  0.4864 -0.2262 -0.6362
   99OSM   H16S 9917   3.851   3.238   9.003  0.4386  2.1578  0.6784
   99OSM   H16T 9918   3.979   3.181   8.891  0.3411  1.0654 -2.8331
   99OSM   C17S 9919   3.889   3.387   8.856  0.4565  0.2870 -0.1864
   99OSM   H17S 9920   3.985   3.428   8.818  0.0658 -1.0396 -2.7588
   99OSM   H17T 9921   3.834   3.461   8.918 -0.3074  1.6726 -2.4388
   99OSM   C18S 9922   3.804   3.347   8.735 -0.5675 -0.1409 -0.2704
   99OSM   H18S 9923   3.792   3.430   8.663  2.2962 -1.5092 -2.4375
   99OSM   H18T 9924   3.705   3.309   8.769 -0.3222  0.1831  0.8350
   99OSM   H18U 9925   3.859   3.265   8.684  1.7205  2.1021 -1.4760
   99OSM    C1F 9926   3.588   3.454  10.326  0.4466  0.1899 -0.4938
   99OSM     OF 9927   3.547   3.565  10.357 -0.2231 -0.0509  0.6980
   99OSM    C2F 9928   3.518   3.355  10.234  0.4397  0.0860  0.1875
   99OSM    H2F 9929   3.466   3.282  10.301 -0.7048  2.9707  2.5907
   99OSM    H2G 9930   3.593   3.299  10.175 -1.6593 -2.7302  0.0963
   99OSM    C3F 9931   3.405   3.413  10.141 -0.4265 -0.6515 -0.0859
   99OSM    H3F 9932   3.352   3.328  10.092  0.3262 -2.1822  1.6586
   99OSM    H3G 9933   3.330   3.452  10.213 -2.0574  0.2099 -2.1842
   99OSM    C4F 9934   3.443   3.522  10.037 -1.0983 -0.5236 -0.3709
   99OSM    H4F 9935   3.519   3.486   9.965  1.4461 -0.7451  2.3031
   99OSM    H4G 9936   3.479   3.604  10.103 -2.9056 -1.1387  1.4364
   99OSM    C5F 9937   3.315   3.580   9.980  0.6246 -0.4066  0.5363
   99OSM    H5F 9938   3.268   3.636  10.063  1.7929  1.5758 -0.1071
   99OSM    H5G 9939   3.246   3.504   9.937  0.5877  0.5847 -1.2268
   99OSM    C6F 9940   3.342   3.659   9.851  1.0619 -0.9065 -0.4211
   99OSM    H6F 9941   3.389   3.583   9.785 -1.7396 -0.3282 -3.1797
   99OSM    H6G 9942   3.423   3.732   9.874  0.7107 -0.6414 -0.0199
   99OSM    C7F 9943   3.220   3.731   9.802  0.3818  1.0142  0.5592
   99OSM    H7F 9944   3.191   3.812   9.871 -2.2464  2.7888 -2.4713
   99OSM    H7G 9945   3.136   3.658   9.801 -0.6176  2.1574 -2.0574
   99OSM    C8F 9946   3.220   3.788   9.657 -0.1005 -0.5461 -0.6761
   99OSM    H8F 9947   3.306   3.857   9.642 -0.2904  0.0499  0.8740
   99OSM    H8G 9948   3.124   3.839   9.632  1.5710  1.2018 -3.7329
   99OSM    C9F 9949   3.235   3.670   9.557 -0.2754 -0.0014  0.4468
   99OSM    H9F 9950   3.176   3.582   9.588 -1.9212 -0.0009 -2.4214
   99OSM   C10F 9951   3.316   3.666   9.444  0.3208 -0.2091 -0.5622
   99OSM   H10F 9952   3.331   3.567   9.399 -0.8955 -0.4040 -0.5456
   99OSM   C11F 9953   3.405   3.773   9.389 -0.1054 -0.7359 -0.3833
   99OSM   H11F 9954   3.473   3.712   9.325  0.8488  2.3333 -2.4222
   99OSM   H11G 9955   3.467   3.812   9.473  0.5403 -2.8098  0.1278
   99OSM   C12F 9956   3.336   3.889   9.312 -0.4347 -0.3984  0.0043
   99OSM   H12F 9957   3.413   3.934   9.246 -0.0956 -1.7302 -0.5229
   99OSM   H12G 9958   3.297   3.966   9.382  3.1567  2.1965 -0.6975
   99OSM   C13F 9959   3.214   3.851   9.224  0.6255 -0.0699 -0.4157
   99OSM   H13F 9960   3.145   3.790   9.288  2.4658 -1.8233 -0.0443
   99OSM   H13G 9961   3.260   3.781   9.151  0.6518 -0.3203 -0.1599
   99OSM   C14F 9962   3.142   3.975   9.160  0.1416  0.0040 -0.2289
   99OSM   H14F 9963   3.101   4.027   9.249 -0.5140  0.3795 -0.7515
   99OSM   H14G 9964   3.061   3.939   9.093  0.7397 -1.0521 -0.4045
   99OSM   C15F 9965   3.241   4.073   9.093 -0.0526  0.4316  0.2526
   99OSM   H15F 9966   3.329   4.098   9.156 -0.7044  0.3336  1.2128
   99OSM   H15G 9967   3.192   4.171   9.076  1.8764  1.2999 -0.4677
   99OSM   C16F 9968   3.283   4.022   8.949 -0.0425  0.2930  0.9113
   99OSM   H16F 9969   3.314   3.916   8.965 -1.5682  0.0548  2.3369
   99OSM   H16G 9970   3.377   4.072   8.916 -1.2485  0.6687 -2.1350
   99OSM   C17F 9971   3.189   4.030   8.834  0.4791 -0.1355 -0.8793
   99OSM   H17F 9972   3.082   4.043   8.863  0.5441 -0.7223 -0.3710
   99OSM   H17G 9973   3.206   3.933   8.783 -0.2472 -1.4632  1.3255
   99OSM   C18F 9974   3.223   4.135   8.729  0.4605 -0.1982 -0.2755
   99OSM   H18F 9975   3.156   4.147   8.642 -0.2942 -0.6292  0.2492
   99OSM   H18G 9976   3.321   4.110   8.683  0.7824 -0.5320  0.5819
   99OSM   H18H 9977   3.225   4.235   8.778 -2.1026 -1.1589  1.9277
  100OSM      N 9978   5.918   4.798  11.027 -0.8363 -0.6794 -0.6753
  100OSM    C15 9979   5.806   4.722  10.963  0.1773 -0.2569 -0.2082
  100OSM   H15A 9980   5.825   4.616  10.957 -0.8145 -0.4303 -0.4007
  100OSM   H15B 9981   5.790   4.769  10.867 -0.3464 -1.2278 -0.5971
  100OSM   H15C 9982   5.715   4.727  11.021 -0.5985 -2.6528 -1.1808
  100OSM    C14 9983   5.884   4.941  11.043  0.5277 -0.3427  1.1531
  100OSM   H14A 9984   5.955   5.007  11.091  0.5460  0.2425  0.3395
  100OSM   H14B 9985   5.795   4.969  11.096 -0.5958  0.7265 -1.2072
  100OSM   H14C 9986   5.877   4.981  10.942  0.3818 -3.8375 -0.2911
  100OSM    C13 9987   5.951   4.748  11.159  0.1113  1.0567  0.2182
  100OSM   H13A 9988   6.018   4.817  11.208  1.3078  0.3481 -0.3957
  100OSM   H13B 9989   5.999   4.651  11.165 -1.6310  0.1895  0.4754
  100OSM   H13C 9990   5.868   4.737  11.228 -1.3194  0.7004 -1.5383
  100OSM    C12 9991   6.047   4.782  10.939 -0.3097 -0.5102  0.1307
  100OSM   H12A 9992   6.133   4.828  10.986 -1.5841 -0.2627  2.3181
  100OSM   H12B 9993   6.028   4.844  10.853 -1.8373 -3.0375 -1.4051
  100OSM    C11 9994   6.077   4.639  10.896  0.0809 -0.0947 -0.1108
  100OSM   H11A 9995   6.178   4.634  10.852 -0.4421  0.4840 -1.4205
  100OSM   H11B 9996   6.001   4.612  10.820  0.0853  0.1057 -0.1865
  100OSM      P 9997   6.008   4.404  10.988  0.2711 -0.3883 -0.3184
  100OSM    O13 9998   6.080   4.314  11.082  0.0369  0.1231  0.0017
  100OSM    O14 9999   5.861   4.413  10.988 -0.2797  0.4978  0.1990
  100OSM    O1110000   6.061   4.367  10.843 -0.1569 -0.0114  0.1459
  100OSM    O1210001   6.070   4.548  11.003 -0.1033  0.6123 -0.0891
  100OSM    C1S10002   6.068   4.227  10.814  0.0494  0.4844  0.1337
  100OSM    H1S10003   5.978   4.172  10.848  0.0881  0.8358  0.8208
  100OSM    H1T10004   6.161   4.182  10.855 -0.0278 -1.2990 -1.6137
  100OSM     NF10005   6.092   4.078  10.605 -0.4170  0.5290 -0.2175
  100OSM    HNF10006   6.176   4.036  10.573 -0.3560  0.1459  0.4404
  100OSM    C2S10007   6.087   4.219  10.654  0.0050  1.0224  0.7787
  100OSM    H2S10008   5.999   4.267  10.606 -0.6717 -0.7821  0.1809
  100OSM    C3S10009   6.215   4.300  10.604  0.0211  0.0184 -0.0044
  100OSM    H3S10010   6.304   4.259  10.657  0.0852 -1.5001 -1.2398
  100OSM     O310011   6.224   4.435  10.643 -0.0467 -0.0620 -0.3110
  100OSM    HO310012   6.176   4.426  10.726  0.3017 -1.0651 -0.2137
  100OSM    C4S10013   6.235   4.282  10.454 -1.1041 -0.2175  0.1593
  100OSM    H4S10014   6.297   4.195  10.428  1.3920  1.5042  0.1987
  100OSM    C5S10015   6.190   4.361  10.365 -0.4459 -0.1842 -0.4091
  100OSM    H5S10016   6.125   4.442  10.401  0.9056 -0.3471  2.5235
  100OSM    C6S10017   6.226   4.343  10.219  0.0822  0.9573  0.0613
  100OSM    H6S10018   6.294   4.422  10.180 -1.9164  1.8915 -1.6616
  100OSM    H6T10019   6.124   4.344  10.173 -0.1080  0.3248  0.4635
  100OSM    C7S10020   6.293   4.204  10.177  0.8182 -0.2245  0.1225
  100OSM    H7S10021   6.227   4.119  10.204 -2.4165  1.1080 -3.1144
  100OSM    H7T10022   6.388   4.194  10.234  0.1006 -0.6835  1.2616
  100OSM    C8S10023   6.319   4.181  10.025  0.0308 -0.0225 -0.6298
  100OSM    H8S10024   6.380   4.090  10.007 -2.0772 -2.0295  1.9991
  100OSM    H8T10025   6.380   4.263   9.981  0.0614 -0.1276 -0.7831
  100OSM    C9S10026   6.196   4.170   9.930  0.3386 -0.1921 -0.0926
  100OSM    H9S10027   6.137   4.263   9.939 -1.9635 -1.7665  1.4521
  100OSM    H9T10028   6.138   4.081   9.961  0.5787 -1.0668 -2.0888
  100OSM   C10S10029   6.235   4.164   9.779  0.6796 -0.8256  0.9257
  100OSM   H10S10030   6.296   4.076   9.750 -0.6479 -0.6519 -2.6903
  100OSM   H10T10031   6.286   4.260   9.759  0.1891 -0.4528  1.4530
  100OSM   C11S10032   6.113   4.167   9.684 -0.4481  0.2103  0.4792
  100OSM   H11S10033   6.027   4.223   9.726 -2.1053 -0.9514 -1.2668
  100OSM   H11T10034   6.076   4.063   9.673 -1.9255  0.9147 -1.7328
  100OSM   C12S10035   6.148   4.215   9.542 -0.4562  0.8266 -0.1332
  100OSM   H12S10036   6.237   4.159   9.506 -0.4349  1.2785 -0.7955
  100OSM   H12T10037   6.185   4.320   9.551 -0.7627  0.8071  1.4913
  100OSM   C13S10038   6.039   4.211   9.436  0.8078  0.1260  0.1462
  100OSM   H13S10039   5.944   4.244   9.485 -1.6106 -1.1522 -3.4384
  100OSM   H13T10040   6.020   4.105   9.406 -0.2132  0.4584 -0.4244
  100OSM   C14S10041   6.082   4.281   9.315  0.1665  0.3730 -0.3854
  100OSM   H14S10042   6.172   4.221   9.290  1.3736  1.3675  1.4614
  100OSM   H14T10043   6.108   4.385   9.342  0.4782  0.0617  0.5245
  100OSM   C15S10044   5.976   4.278   9.212 -0.5766 -0.2841  0.5236
  100OSM   H15S10045   5.879   4.317   9.252 -1.4547 -1.3952 -0.5060
  100OSM   H15T10046   5.950   4.177   9.175  3.2411 -2.0769  2.4606
  100OSM   C16S10047   6.002   4.358   9.080  0.0129 -0.9270  0.1432
  100OSM   H16S10048   6.088   4.314   9.027  2.2285  4.1155 -0.6398
  100OSM   H16T10049   6.021   4.460   9.119  1.2490 -0.5506 -1.3978
  100OSM   C17S10050   5.880   4.362   8.993  0.6632 -0.0100  0.6891
  100OSM   H17S10051   5.785   4.396   9.040  1.7690  2.4895  1.1772
  100OSM   H17T10052   5.865   4.252   8.994 -1.0282  0.1947 -0.4895
  100OSM   C18S10053   5.884   4.423   8.849  0.2341 -0.3881 -0.1558
  100OSM   H18S10054   5.917   4.529   8.847 -1.0405  0.0325  0.4659
  100OSM   H18T10055   5.781   4.417   8.808 -0.2428  0.6324  0.8409
  100OSM   H18U10056   5.962   4.365   8.796  1.6720  0.6579  0.7898
  100OSM    C1F10057   5.982   4.002  10.604 -0.4639 -0.4676 -0.2081
  100OSM     OF10058   5.876   4.041  10.652  0.0225  0.1233  0.0578
  100OSM    C2F10059   6.004   3.862  10.556  0.0653 -0.2484  0.3532
  100OSM    H2F10060   5.971   3.784  10.627 -1.1614  1.7423  2.0528
  100OSM    H2G10061   6.111   3.850  10.530 -0.0247 -1.3286  0.4887
  100OSM    C3F10062   5.914   3.819  10.435 -0.4979 -0.2240  0.5845
  100OSM    H3F10063   5.806   3.817  10.464 -0.1254  1.4084  2.1790
  100OSM    H3G10064   5.945   3.721  10.393 -0.1501 -0.8909  2.3351
  100OSM    C4F10065   5.932   3.925  10.318 -0.3818 -0.7284 -0.8321
  100OSM    H4F10066   6.038   3.940  10.289  0.5241 -2.2219  1.5837
  100OSM    H4G10067   5.890   4.018  10.362  0.0386 -1.5779  1.3995
  100OSM    C5F10068   5.858   3.877  10.186 -0.4277 -0.1414 -0.1761
  100OSM    H5F10069   5.750   3.868  10.212 -1.0597  0.2459 -2.4941
  100OSM    H5G10070   5.882   3.772  10.161  1.6163  0.4419 -0.7163
  100OSM    C6F10071   5.865   3.975  10.071  0.8781  0.1469  0.2790
  100OSM    H6F10072   5.971   4.005  10.055  0.1503  1.5949 -2.1094
  100OSM    H6G10073   5.805   4.065  10.097 -1.0075 -0.6738 -1.0371
  100OSM    C7F10074   5.817   3.909   9.946  0.3079  0.0244 -0.1106
  100OSM    H7F10075   5.715   3.868   9.962 -0.3453  2.0462  1.1213
  100OSM    H7G10076   5.879   3.824   9.911 -0.0883 -0.3684  0.1376
  100OSM    C8F10077   5.804   3.999   9.822  0.2344  0.0191  0.5893
  100OSM    H8F10078   5.893   4.064   9.827 -0.9851  1.7411  0.3844
  100OSM    H8G10079   5.722   4.074   9.822  0.0171 -0.2149  0.8481
  100OSM    C9F10080   5.819   3.932   9.685  0.1258 -0.0375 -0.8932
  100OSM    H9F10081   5.903   3.861   9.672  0.1052  0.2246 -2.5572
  100OSM   C10F10082   5.724   3.935   9.586 -0.9806  0.0824 -0.1929
  100OSM   H10F10083   5.766   3.885   9.497 -0.0977  0.0223  0.2572
  100OSM   C11F10084   5.594   4.012   9.588 -0.0908  0.1985  0.1469
  100OSM   H11F10085   5.572   4.053   9.689 -1.6551 -0.6803  0.1833
  100OSM   H11G10086   5.513   3.938   9.570 -0.9105  1.6295 -2.2000
  100OSM   C12F10087   5.574   4.124   9.476  0.0914 -0.0204 -0.6053
  100OSM   H12F10088   5.649   4.206   9.475  1.0123 -0.8559 -0.9060
  100OSM   H12G10089   5.482   4.178   9.504 -1.2844 -1.2241 -2.6499
  100OSM   C13F10090   5.569   4.063   9.336 -0.2164 -0.0773 -0.1392
  100OSM   H13F10091   5.496   3.979   9.339 -0.4786  0.1362 -0.5192
  100OSM   H13G10092   5.662   4.007   9.312 -1.7023 -3.0466  0.7055
  100OSM   C14F10093   5.548   4.169   9.222 -0.8276 -0.1778  0.2126
  100OSM   H14F10094   5.638   4.234   9.222 -0.7520 -0.2828 -0.9607
  100OSM   H14G10095   5.454   4.229   9.219  0.3665  1.7429  0.0095
  100OSM   C15F10096   5.546   4.096   9.084 -0.2454 -0.2490  0.6359
  100OSM   H15F10097   5.459   4.027   9.081 -0.1381 -0.3830  0.5966
  100OSM   H15G10098   5.638   4.033   9.085 -0.9932 -1.3805 -0.5711
  100OSM   C16F10099   5.530   4.194   8.970  0.2598  0.1783 -0.1227
  100OSM   H16F10100   5.622   4.255   8.963 -0.5830  1.5842  0.8600
  100OSM   H16G10101   5.447   4.261   9.001 -0.9342 -0.4070 -1.9623
  100OSM   C17F10102   5.501   4.126   8.840 -0.1244  0.1724  0.6186
  100OSM   H17F10103   5.464   4.207   8.773 -1.7884  1.2236  2.7465
  100OSM   H17G10104   5.418   4.053   8.854 -0.2119  0.7970  3.5174
  100OSM   C18F10105   5.622   4.065   8.773  0.0082  0.2497  0.3135
  100OSM   H18F10106   5.716   4.114   8.805  0.4400 -1.1871  1.2757
  100OSM   H18G10107   5.607   4.064   8.662  1.6516  2.8103  0.0431
  100OSM   H18H10108   5.629   3.960   8.809  0.7896  0.8482  1.9036
  101OSM      N10109   1.254   4.564  11.009 -0.3018  0.1913  0.4982
  101OSM    C1510110   1.363   4.579  11.096 -0.1169  0.1520  0.2733
  101OSM   H15A10111   1.338   4.559  11.199 -0.4739  2.2241  0.6153
  101OSM   H15B10112   1.411   4.676  11.099  0.1746  0.0320 -0.5614
  101OSM   H15C10113   1.441   4.510  11.069  2.0062  1.2910  3.2637
  101OSM    C1410114   1.177   4.449  11.061 -0.0824  0.2333 -0.2380
  101OSM   H14A10115   1.082   4.449  11.011  1.5175 -0.9960 -3.3650
  101OSM   H14B10116   1.162   4.471  11.166  0.1688 -1.0865  0.0884
  101OSM   H14C10117   1.231   4.355  11.058 -0.5065  0.0064 -0.7600
  101OSM    C1310118   1.167   4.688  11.013 -0.2014 -0.0863  0.1051
  101OSM   H13A10119   1.084   4.683  10.944  0.0924  2.1540 -0.4281
  101OSM   H13B10120   1.231   4.771  10.987  0.2882 -0.2973  0.6165
  101OSM   H13C10121   1.124   4.697  11.112 -0.5722 -2.5992  0.2218
  101OSM    C1210122   1.296   4.541  10.861  0.0624 -0.1221  0.5721
  101OSM   H12A10123   1.359   4.625  10.835 -0.0846  0.0863  0.8936
  101OSM   H12B10124   1.207   4.556  10.803  1.1056 -0.1466 -1.0588
  101OSM    C1110125   1.362   4.409  10.822  0.0689 -0.0923 -0.0490
  101OSM   H11A10126   1.397   4.421  10.717 -1.6554  0.9933 -0.5131
  101OSM   H11B10127   1.281   4.333  10.816 -1.1191  1.2836 -2.3789
  101OSM      P10128   1.486   4.243  10.984  0.4429  0.5131 -0.1479
  101OSM    O1310129   1.602   4.256  11.069 -0.0160 -0.5587 -0.4104
  101OSM    O1410130   1.362   4.192  11.049 -0.0895 -0.6679 -0.1474
  101OSM    O1110131   1.526   4.143  10.861  0.3366  0.3399  0.0608
  101OSM    O1210132   1.470   4.379  10.912  0.2424 -0.1203 -0.2544
  101OSM    C1S10133   1.626   4.192  10.767 -0.4726 -0.2085  0.1976
  101OSM    H1S10134   1.710   4.239  10.823 -1.3638 -1.0972  2.3524
  101OSM    H1T10135   1.592   4.269  10.695  1.1566 -2.1030 -2.7120
  101OSM     NF10136   1.778   4.124  10.582 -0.1290  0.0290 -0.7182
  101OSM    HNF10137   1.747   4.128  10.487 -2.4963  0.7533  0.0621
  101OSM    C2S10138   1.683   4.074  10.676 -0.0265 -0.7260  1.0094
  101OSM    H2S10139   1.733   3.996  10.737  1.2610  1.6956  3.1644
  101OSM    C3S10140   1.560   4.011  10.602  0.0845  0.3616  0.0821
  101OSM    H3S10141   1.518   4.101  10.551 -0.0632  2.0414  3.0246
  101OSM     O310142   1.458   3.966  10.695 -0.3627  0.1122  0.4536
  101OSM    HO310143   1.454   4.042  10.755 -4.7029  0.7410 -0.4940
  101OSM    C4S10144   1.588   3.907  10.503 -0.3648  0.0801  0.3329
  101OSM    H4S10145   1.593   3.957  10.405 -0.8208  0.4141  0.4782
  101OSM    C5S10146   1.616   3.774  10.519 -0.1241  0.0327 -0.2015
  101OSM    H5S10147   1.614   3.733  10.621  1.2922  2.3965  0.8208
  101OSM    C6S10148   1.650   3.682  10.405  0.6566 -0.2722 -0.4154
  101OSM    H6S10149   1.571   3.605  10.397  0.2229  0.1930 -0.6267
  101OSM    H6T10150   1.743   3.627  10.433  0.5602 -1.3282 -2.1402
  101OSM    C7S10151   1.680   3.744  10.261  0.4736  0.2301 -0.7156
  101OSM    H7S10152   1.766   3.814  10.264 -0.2037  1.1314 -1.8347
  101OSM    H7T10153   1.592   3.801  10.222 -0.0927  0.3993  0.7746
  101OSM    C8S10154   1.721   3.639  10.158 -0.2057 -0.6281 -0.1558
  101OSM    H8S10155   1.653   3.551  10.150  1.8292 -2.1299 -1.4990
  101OSM    H8T10156   1.810   3.588  10.201  0.8115  1.5781  0.4363
  101OSM    C9S10157   1.741   3.695  10.011  0.1532  0.2384  0.4917
  101OSM    H9S10158   1.810   3.782  10.017  0.4245  0.2239 -1.8594
  101OSM    H9T10159   1.643   3.727   9.969 -0.2743 -1.1952  0.3825
  101OSM   C10S10160   1.787   3.591   9.910  0.4636  0.0143 -0.0814
  101OSM   H10S10161   1.728   3.497   9.911  0.8798 -0.2387  1.5163
  101OSM   H10T10162   1.879   3.542   9.948  0.1950 -0.0343  0.5181
  101OSM   C11S10163   1.812   3.649   9.779  0.0097 -0.0624  0.4051
  101OSM   H11S10164   1.902   3.713   9.792 -1.5107  1.9920  1.0980
  101OSM   H11T10165   1.734   3.715   9.734  0.7287 -0.7080 -1.8415
  101OSM   C12S10166   1.846   3.539   9.672 -0.4029  0.5766 -0.1349
  101OSM   H12S10167   1.752   3.493   9.637 -2.2612  2.8560  1.7036
  101OSM   H12T10168   1.917   3.462   9.710  1.6228  2.0371 -0.8914
  101OSM   C13S10169   1.902   3.595   9.547  0.6528 -0.3236 -0.5941
  101OSM   H13S10170   2.001   3.638   9.575  0.2453  0.0257  0.3105
  101OSM   H13T10171   1.839   3.681   9.516  0.7799  0.0224  0.1030
  101OSM   C14S10172   1.915   3.494   9.436 -0.1584 -0.6910  0.0843
  101OSM   H14S10173   1.817   3.454   9.404 -0.1752 -0.8064  0.2753
  101OSM   H14T10174   1.985   3.413   9.465 -0.4060 -0.3311  1.7422
  101OSM   C15S10175   1.985   3.552   9.315  0.1327 -0.2965 -0.3183
  101OSM   H15S10176   2.095   3.537   9.320  0.2153  0.7597  1.2822
  101OSM   H15T10177   1.970   3.662   9.313 -2.5928 -0.6526 -0.8965
  101OSM   C16S10178   1.912   3.503   9.187 -0.3726  0.5385 -0.1599
  101OSM   H16S10179   1.804   3.530   9.192 -0.7033 -0.7022 -0.4345
  101OSM   H16T10180   1.920   3.394   9.171  0.0253  0.8802 -2.4629
  101OSM   C17S10181   1.966   3.561   9.062 -0.5015  0.0528  0.2844
  101OSM   H17S10182   1.932   3.508   8.971 -0.4270  0.4185  0.0463
  101OSM   H17T10183   2.076   3.547   9.070 -0.5126 -1.2238 -1.5288
  101OSM   C18S10184   1.943   3.715   9.043  0.4984 -0.9297 -0.0918
  101OSM   H18S10185   1.839   3.730   9.007 -0.1615 -1.3735  1.5915
  101OSM   H18T10186   2.003   3.763   8.962  1.4882  1.5825  2.0261
  101OSM   H18U10187   1.971   3.781   9.129 -0.1732 -0.7686  0.0031
  101OSM    C1F10188   1.896   4.169  10.623 -0.7703  0.3713  0.5294
  101OSM     OF10189   1.947   4.145  10.725  0.0404  0.0962 -0.4145
  101OSM    C2F10190   1.967   4.271  10.535  0.9397  0.4007 -0.2845
  101OSM    H2F10191   2.034   4.336  10.595  2.0722  0.2347 -1.3586
  101OSM    H2G10192   1.894   4.329  10.475 -1.5527 -3.6204 -1.3108
  101OSM    C3F10193   2.046   4.186  10.435 -0.1518  0.2669  0.2381
  101OSM    H3F10194   1.983   4.110  10.386  0.9877 -0.8264  0.4474
  101OSM    H3G10195   2.126   4.125  10.484 -0.9775 -1.1610 -0.1813
  101OSM    C4F10196   2.116   4.258  10.323 -0.2765 -0.1224  0.0085
  101OSM    H4F10197   2.048   4.330  10.273 -0.8912 -0.5479  0.2193
  101OSM    H4G10198   2.138   4.179  10.247  0.3871 -0.5774  0.6646
  101OSM    C5F10199   2.242   4.329  10.358  0.1928  0.0662 -0.9750
  101OSM    H5F10200   2.308   4.258  10.413 -0.0030 -0.0232 -0.8512
  101OSM    H5G10201   2.237   4.423  10.417 -0.4014  0.4196 -1.5768
  101OSM    C6F10202   2.311   4.377  10.229 -0.0608  0.5238  0.0869
  101OSM    H6F10203   2.329   4.299  10.152 -0.9442 -0.3658  0.7687
  101OSM    H6G10204   2.236   4.445  10.182 -0.7338 -0.7994 -0.7791
  101OSM    C7F10205   2.430   4.465  10.270  0.0166  0.0346  0.5049
  101OSM    H7F10206   2.495   4.409  10.341  0.4612  1.2338  1.0610
  101OSM    H7G10207   2.391   4.552  10.326 -0.9824 -1.5147  2.2741
  101OSM    C8F10208   2.526   4.505  10.150  0.4535  0.2671 -0.0984
  101OSM    H8F10209   2.469   4.535  10.060 -0.8855  0.3183  0.7519
  101OSM    H8G10210   2.587   4.415  10.126  1.1946  1.1747 -1.6872
  101OSM    C9F10211   2.618   4.624  10.198  0.5046  0.0946 -0.0434
  101OSM    H9F10212   2.573   4.717  10.162 -0.1920 -0.6999 -1.2519
  101OSM   C10F10213   2.738   4.616  10.262 -0.9879  0.4023 -0.4550
  101OSM   H10F10214   2.789   4.708  10.294 -1.4533  0.7859 -0.8183
  101OSM   C11F10215   2.799   4.485  10.307 -0.0008 -0.4788  0.4396
  101OSM   H11F10216   2.731   4.403  10.340  0.6817 -1.4473 -0.5077
  101OSM   H11G10217   2.859   4.490  10.401  0.9578 -0.3906 -0.1704
  101OSM   C12F10218   2.884   4.421  10.205 -0.2669 -0.4753  0.5106
  101OSM   H12F10219   2.966   4.485  10.168 -2.1683  0.7919 -1.6171
  101OSM   H12G10220   2.823   4.394  10.116 -0.0521  0.7124 -0.0025
  101OSM   C13F10221   2.958   4.297  10.253 -0.0833 -0.1932 -0.2135
  101OSM   H13F10222   2.899   4.203  10.263  0.4327 -0.5300 -0.2884
  101OSM   H13G10223   3.015   4.310  10.348  0.2330  0.1639 -0.4486
  101OSM   C14F10224   3.062   4.257  10.151 -0.4218 -0.4178  0.0423
  101OSM   H14F10225   3.130   4.344  10.136 -0.5505  0.4154  3.7968
  101OSM   H14G10226   3.012   4.234  10.054  0.2497  1.3597 -0.7402
  101OSM   C15F10227   3.139   4.127  10.190  0.4593 -0.1207 -0.1516
  101OSM   H15F10228   3.071   4.040  10.200  1.2438 -0.5720  1.3997
  101OSM   H15G10229   3.184   4.148  10.290 -1.2877 -0.8803  0.8129
  101OSM   C16F10230   3.233   4.070  10.088 -0.3302  0.8087 -0.1395
  101OSM   H16F10231   3.305   4.144  10.046 -0.2145  0.8763  0.1758
  101OSM   H16G10232   3.167   4.043  10.003 -2.5747  1.5069  1.3360
  101OSM   C17F10233   3.311   3.947  10.140  0.3030 -0.2256 -0.0878
  101OSM   H17F10234   3.376   3.904  10.061 -0.0674  1.1969 -1.1863
  101OSM   H17G10235   3.240   3.864  10.162 -0.8413  0.5016 -1.0134
  101OSM   C18F10236   3.410   3.975  10.258 -0.4375 -0.2992 -0.4576
  101OSM   H18F10237   3.374   4.043  10.339 -0.1327 -0.3337 -0.2914
  101OSM   H18G10238   3.497   4.035  10.224 -0.1795 -0.1055  0.5159
  101OSM   H18H10239   3.458   3.887  10.306  0.7628  1.4058  1.5862
  102OSM      N10240   4.952   6.041  10.959 -0.4731  0.6398  0.1469
  102OSM    C1510241   4.973   6.131  11.084  0.2682  0.4678  0.2073
  102OSM   H15A10242   4.985   6.075  11.176  1.3950  1.6219  0.7813
  102OSM   H15B10243   4.897   6.208  11.097  0.0468  0.2368  0.2774
  102OSM   H15C10244   5.064   6.189  11.077  0.6934 -0.2055  0.1670
  102OSM    C1410245   5.046   5.924  10.960  0.8449 -0.6267 -0.3890
  102OSM   H14A10246   5.145   5.963  10.951  0.3651  1.1856  1.8630
  102OSM   H14B10247   5.021   5.845  10.889  0.7571 -0.3373 -0.6815
  102OSM   H14C10248   5.042   5.880  11.058  2.0149  1.8115  0.7751
  102OSM    C1310249   4.808   5.992  10.953 -0.4318 -0.0550 -0.0731
  102OSM   H13A10250   4.769   5.961  10.857 -0.0670 -1.3866  0.1921
  102OSM   H13B10251   4.743   6.069  10.990 -1.5570 -0.8232 -0.4310
  102OSM   H13C10252   4.807   5.904  11.016  0.3127 -0.1847 -0.2383
  102OSM    C1210253   4.996   6.128  10.834  0.8998  0.2426 -0.1792
  102OSM   H12A10254   5.006   6.051  10.759 -1.4443 -0.8117  0.5217
  102OSM   H12B10255   5.095   6.168  10.847  0.8636  0.8887 -1.7571
  102OSM    C1110256   4.909   6.240  10.793  0.5191  0.0086 -0.8092
  102OSM   H11A10257   4.804   6.203  10.794  0.6743 -0.4332 -0.9765
  102OSM   H11B10258   4.934   6.264  10.688  0.9312 -1.3808 -1.0428
  102OSM      P10259   4.855   6.489  10.836  0.0737 -0.0643 -0.2493
  102OSM    O1310260   4.711   6.461  10.869  0.5490  0.8329 -0.3726
  102OSM    O1410261   4.914   6.601  10.907  0.7390 -0.1921  0.0287
  102OSM    O1110262   4.862   6.519  10.687  0.7317  0.7070  0.2751
  102OSM    O1210263   4.936   6.357  10.868 -0.1960 -0.5944  0.2672
  102OSM    C1S10264   4.986   6.545  10.619  0.3938 -0.0144 -0.5281
  102OSM    H1S10265   5.069   6.476  10.645 -1.0551 -2.7153 -2.7561
  102OSM    H1T10266   5.015   6.647  10.654 -1.4107  1.2769 -2.6879
  102OSM     NF10267   5.116   6.514  10.419  0.3380  0.0378 -0.0144
  102OSM    HNF10268   5.169   6.598  10.409 -0.8376  0.9810  1.4129
  102OSM    C2S10269   4.981   6.535  10.465  0.1878 -0.4294 -0.3613
  102OSM    H2S10270   4.920   6.446  10.440 -2.1046  0.6373  1.2071
  102OSM    C3S10271   4.909   6.657  10.406  0.4600 -0.0856  0.0767
  102OSM    H3S10272   4.976   6.743  10.430 -2.1296  2.2146 -0.7285
  102OSM     O310273   4.779   6.680  10.469  0.2592  0.1592  0.2402
  102OSM    HO310274   4.769   6.617  10.541 -0.0087 -1.4076 -1.1359
  102OSM    C4S10275   4.908   6.654  10.255  0.5835 -0.7258  0.2792
  102OSM    H4S10276   4.979   6.726  10.213 -0.1232  0.7753  1.6036
  102OSM    C5S10277   4.807   6.600  10.184  0.1264 -0.3904 -0.5141
  102OSM    H5S10278   4.713   6.583  10.236 -0.5165 -0.0524 -1.5403
  102OSM    C6S10279   4.793   6.610  10.036 -0.8391  0.2882  0.5720
  102OSM    H6S10280   4.690   6.578  10.009  0.2242 -2.6683 -0.2321
  102OSM    H6T10281   4.857   6.524  10.004  0.8143 -0.6289  5.9130
  102OSM    C7S10282   4.810   6.741   9.964 -0.5439  0.3519  0.1180
  102OSM    H7S10283   4.819   6.710   9.857 -0.9963 -1.4436  0.5920
  102OSM    H7T10284   4.899   6.786  10.013 -0.6259 -0.9496  1.4760
  102OSM    C8S10285   4.691   6.841   9.975 -0.0023  0.2560 -0.2306
  102OSM    H8S10286   4.664   6.857  10.082  2.0378 -0.7929  0.4715
  102OSM    H8T10287   4.599   6.798   9.931 -0.4682  1.3869 -0.3852
  102OSM    C9S10288   4.738   6.976   9.906 -0.5013  0.8015 -0.6843
  102OSM    H9S10289   4.840   6.999   9.945 -0.2797 -0.2740 -0.5901
  102OSM    H9T10290   4.663   7.054   9.927 -2.2926 -0.1161 -3.3466
  102OSM   C10S10291   4.754   6.962   9.751 -0.0982  0.1966  0.1120
  102OSM   H10S10292   4.826   6.884   9.719 -1.4191 -0.9559 -0.0783
  102OSM   H10T10293   4.798   7.056   9.710 -0.4532  0.7091  0.8889
  102OSM   C11S10294   4.614   6.960   9.691  0.3911  0.5879 -0.2355
  102OSM   H11S10295   4.555   7.046   9.728  0.2921 -0.0833  1.1832
  102OSM   H11T10296   4.575   6.865   9.734  1.3715  1.4698  2.7020
  102OSM   C12S10297   4.617   6.944   9.534 -0.3314  1.2605 -0.9507
  102OSM   H12S10298   4.644   6.841   9.500  0.6188  0.5225  1.9245
  102OSM   H12T10299   4.700   7.003   9.491  1.4393 -0.2393  0.3167
  102OSM   C13S10300   4.478   6.984   9.475  0.1209  0.8304  0.0731
  102OSM   H13S10301   4.455   7.086   9.510  0.3717  0.4156  1.4592
  102OSM   H13T10302   4.406   6.906   9.509  1.0670  0.1573  0.5545
  102OSM   C14S10303   4.485   6.992   9.322  0.0180  0.2825 -0.7193
  102OSM   H14S10304   4.494   6.887   9.286 -1.9521 -0.2122  0.1884
  102OSM   H14T10305   4.580   7.043   9.296 -0.0696  0.1949 -1.2226
  102OSM   C15S10306   4.364   7.062   9.266  0.6564  0.4756  0.0666
  102OSM   H15S10307   4.329   7.143   9.334 -2.1689  0.5139 -1.3513
  102OSM   H15T10308   4.286   6.984   9.280  0.3259  0.9319  0.8683
  102OSM   C16S10309   4.378   7.112   9.123  0.2315  0.5803  0.0569
  102OSM   H16S10310   4.465   7.177   9.101  0.8443 -0.3052 -0.1239
  102OSM   H16T10311   4.281   7.153   9.086 -1.3679 -1.9027  1.3347
  102OSM   C17S10312   4.413   7.003   9.019 -0.5175 -0.0096 -0.4287
  102OSM   H17S10313   4.339   6.920   9.017  1.6129 -1.9655 -0.7065
  102OSM   H17T10314   4.510   6.959   9.053 -1.3353 -1.8661 -0.4314
  102OSM   C18S10315   4.426   7.051   8.878 -0.2419 -0.2665 -0.8832
  102OSM   H18S10316   4.511   7.121   8.866 -0.3381 -0.1579 -0.9359
  102OSM   H18T10317   4.339   7.105   8.834 -2.6106 -3.2768 -0.0356
  102OSM   H18U10318   4.454   6.969   8.809  1.4815 -0.6705  0.2748
  102OSM    C1F10319   5.172   6.395  10.420 -0.3144 -0.3075 -0.8476
  102OSM     OF10320   5.110   6.293  10.462  0.4693 -0.0826  0.3902
  102OSM    C2F10321   5.323   6.395  10.382  0.2349 -0.1234  0.2033
  102OSM    H2F10322   5.387   6.382  10.472  0.3966 -0.6910  0.0053
  102OSM    H2G10323   5.356   6.485  10.326  1.0892  0.1204  1.0758
  102OSM    C3F10324   5.349   6.276  10.287  0.3796 -0.7744 -0.1914
  102OSM    H3F10325   5.335   6.184  10.347  1.2230 -0.6865  0.1614
  102OSM    H3G10326   5.457   6.282  10.260  0.3753  0.8373  0.0621
  102OSM    C4F10327   5.250   6.264  10.164 -0.3932 -0.8716  0.4072
  102OSM    H4F10328   5.142   6.245  10.184 -0.4651 -0.7351  0.1430
  102OSM    H4G10329   5.287   6.178  10.105 -0.8203 -0.2452 -0.7949
  102OSM    C5F10330   5.247   6.395  10.082  0.5443 -0.6741 -0.3850
  102OSM    H5F10331   5.351   6.432  10.079 -0.0184  0.9466 -0.0706
  102OSM    H5G10332   5.189   6.473  10.136  1.6128 -1.6936  2.3080
  102OSM    C6F10333   5.184   6.387   9.941  0.0756 -0.1067  0.4071
  102OSM    H6F10334   5.098   6.317   9.952 -0.4580  0.7079  1.5175
  102OSM    H6G10335   5.256   6.340   9.871  0.3101  1.1828 -0.2308
  102OSM    C7F10336   5.135   6.518   9.876  0.0131  0.3408 -0.0760
  102OSM    H7F10337   5.226   6.579   9.859  0.3565  0.0426  0.6527
  102OSM    H7G10338   5.072   6.572   9.949 -1.2037 -0.3504 -0.6037
  102OSM    C8F10339   5.058   6.500   9.741 -0.2423 -0.9802 -0.3390
  102OSM    H8F10340   5.131   6.451   9.672 -0.4092 -3.1677  1.0095
  102OSM    H8G10341   5.052   6.601   9.693 -1.5678 -0.6722  0.4683
  102OSM    C9F10342   4.923   6.421   9.741 -0.3240  1.0019 -0.1594
  102OSM    H9F10343   4.935   6.328   9.798 -2.2377  0.6355 -0.3357
  102OSM   C10F10344   4.799   6.451   9.689  0.1824  0.6842  0.5508
  102OSM   H10F10345   4.718   6.377   9.694  0.1591  0.5588 -1.4234
  102OSM   C11F10346   4.763   6.580   9.621 -0.1915  0.3805 -0.2649
  102OSM   H11F10347   4.853   6.645   9.621 -0.4974  0.8103 -0.2732
  102OSM   H11G10348   4.697   6.634   9.692 -0.5263  0.3956 -0.5831
  102OSM   C12F10349   4.698   6.541   9.479  0.0236 -0.2659 -1.0315
  102OSM   H12F10350   4.669   6.635   9.429 -0.2102  0.0828 -0.2534
  102OSM   H12G10351   4.601   6.488   9.491  0.3716 -0.2472  2.4234
  102OSM   C13F10352   4.797   6.455   9.399  0.0180 -0.2431  0.1446
  102OSM   H13F10353   4.813   6.357   9.448 -0.4369 -0.7445 -0.6914
  102OSM   H13G10354   4.895   6.508   9.396 -0.5684  0.8451 -0.5337
  102OSM   C14F10355   4.769   6.443   9.246  0.0516 -0.5376 -0.3772
  102OSM   H14F10356   4.733   6.543   9.216  0.6238  0.3000  1.6743
  102OSM   H14G10357   4.681   6.374   9.243 -0.5299  0.2115 -0.6732
  102OSM   C15F10358   4.892   6.399   9.165  0.3138  0.2988  0.0333
  102OSM   H15F10359   4.938   6.315   9.220  0.6521  0.5152  0.0804
  102OSM   H15G10360   4.967   6.481   9.155  0.6678  0.6938  4.7311
  102OSM   C16F10361   4.854   6.378   9.015  0.0228  0.0458  0.4336
  102OSM   H16F10362   4.811   6.475   8.984 -0.1700 -0.4972 -1.0218
  102OSM   H16G10363   4.784   6.292   9.013 -0.3211  0.3448 -0.6011
  102OSM   C17F10364   4.961   6.357   8.906  0.2872 -0.0329  0.7339
  102OSM   H17F10365   5.039   6.284   8.937 -1.1506 -1.5236  0.9523
  102OSM   H17G10366   5.011   6.455   8.890 -1.6937  0.6624 -1.5952
  102OSM   C18F10367   4.900   6.314   8.765  0.4274  0.4940 -0.0149
  102OSM   H18F10368   4.828   6.231   8.781  1.1441 -0.2119 -0.4287
  102OSM   H18G10369   4.975   6.294   8.685 -0.7000  0.3160 -1.0391
  102OSM   H18H10370   4.840   6.396   8.720 -2.4727 -1.3298  0.3599
  103OSM      N10371   3.415   2.549  10.961 -0.2792 -0.2411  0.2220
  103OSM    C1510372   3.466   2.633  10.848  0.2820  0.0053  0.3203
  103OSM   H15A10373   3.525   2.562  10.792  0.4944  0.1931  0.3056
  103OSM   H15B10374   3.529   2.719  10.864  1.7244 -1.1017  0.8328
  103OSM   H15C10375   3.387   2.660  10.780  0.2762  0.8577  0.6659
  103OSM    C1410376   3.527   2.461  11.016 -0.0824 -0.3079  0.1917
  103OSM   H14A10377   3.497   2.414  11.108 -0.7401 -0.0369  0.1200
  103OSM   H14B10378   3.617   2.517  11.037  0.8831 -1.8597  0.2186
  103OSM   H14C10379   3.549   2.389  10.939 -0.1904  0.3015 -0.4230
  103OSM    C1310380   3.366   2.649  11.063  0.1237  0.3099 -0.0290
  103OSM   H13A10381   3.445   2.701  11.115 -0.5172 -0.3691  1.6644
  103OSM   H13B10382   3.336   2.586  11.145  2.4220 -1.6033 -0.5934
  103OSM   H13C10383   3.286   2.716  11.035 -1.0338 -0.2458  1.8782
  103OSM    C1210384   3.297   2.458  10.915 -0.4524  0.1450  0.5919
  103OSM   H12A10385   3.337   2.383  10.848  0.4399  1.0576  0.0795
  103OSM   H12B10386   3.227   2.521  10.862 -2.0007 -0.8767  1.3885
  103OSM    C1110387   3.220   2.381  11.019 -0.2100 -0.1053  0.3794
  103OSM   H11A10388   3.206   2.446  11.108 -0.0638 -0.6955  0.8334
  103OSM   H11B10389   3.285   2.294  11.042  1.4764  0.4653 -1.9390
  103OSM      P10390   3.054   2.191  10.933  0.2160 -0.2231  0.1331
  103OSM    O1310391   3.175   2.109  10.945 -0.3389  0.1838 -0.4067
  103OSM    O1410392   2.940   2.156  11.016  0.5333  0.1089  0.0383
  103OSM    O1110393   3.004   2.183  10.786  0.8276 -0.4498  0.3172
  103OSM    O1210394   3.091   2.342  10.957  0.4119 -0.0881  0.2481
  103OSM    C1S10395   3.017   2.298  10.703 -0.4209 -0.1977  0.0272
  103OSM    H1S10396   3.123   2.317  10.674 -0.6965 -0.2854 -1.0378
  103OSM    H1T10397   2.967   2.385  10.751  2.2963  1.0377  0.7318
  103OSM     NF10398   2.982   2.391  10.483 -0.7193  0.5491 -0.1246
  103OSM    HNF10399   2.934   2.479  10.480 -0.8082  0.6005  1.9181
  103OSM    C2S10400   2.930   2.293  10.570 -0.0999  1.0457  0.2069
  103OSM    H2S10401   2.945   2.195  10.519  1.5676  0.1641  2.3272
  103OSM    C3S10402   2.778   2.298  10.605  1.0678 -0.3590  0.7690
  103OSM    H3S10403   2.761   2.402  10.641  0.6020 -0.2389  0.2231
  103OSM     O310404   2.743   2.203  10.703 -0.1426  0.1045  0.1872
  103OSM    HO310405   2.823   2.182  10.752 -1.2092  2.2093  3.0407
  103OSM    C4S10406   2.695   2.272  10.479 -0.6405 -0.7146 -0.1772
  103OSM    H4S10407   2.682   2.165  10.459  0.2718 -1.3861  2.6768
  103OSM    C5S10408   2.636   2.361  10.394  0.3584 -1.2939  0.0428
  103OSM    H5S10409   2.649   2.469  10.403  0.2676 -1.1535 -1.3655
  103OSM    C6S10410   2.567   2.322  10.270  0.1922 -0.4783 -0.1170
  103OSM    H6S10411   2.457   2.335  10.271  0.2874  0.2814  1.2101
  103OSM    H6T10412   2.586   2.219  10.231 -0.8729  0.1651 -2.4361
  103OSM    C7S10413   2.619   2.422  10.156 -0.1091  0.4721 -0.2761
  103OSM    H7S10414   2.730   2.431  10.158 -0.0381 -0.1997 -1.0656
  103OSM    H7T10415   2.570   2.521  10.160 -0.0506  0.4531  1.3763
  103OSM    C8S10416   2.587   2.359  10.013  0.5678  0.2713  0.2189
  103OSM    H8S10417   2.478   2.349  10.000  0.3288  2.1370  0.5932
  103OSM    H8T10418   2.636   2.261   9.995  0.1211  0.5610 -2.8545
  103OSM    C9S10419   2.639   2.455   9.906  0.3614 -0.3348 -0.2730
  103OSM    H9S10420   2.746   2.482   9.917  0.1872 -0.3742  1.8585
  103OSM    H9T10421   2.585   2.550   9.928  1.5410  0.1923  0.3974
  103OSM   C10S10422   2.609   2.405   9.771  0.4585  0.8186 -0.0299
  103OSM   H10S10423   2.525   2.332   9.770  0.1585  1.1647 -0.0005
  103OSM   H10T10424   2.707   2.357   9.747  0.7257 -0.0568  2.6032
  103OSM   C11S10425   2.585   2.515   9.669 -0.8056 -0.0352 -0.1306
  103OSM   H11S10426   2.661   2.595   9.676 -1.1035  0.1529  1.0475
  103OSM   H11T10427   2.480   2.549   9.675 -1.5074 -2.3065  1.3357
  103OSM   C12S10428   2.602   2.454   9.531  0.6220 -0.1458 -0.3355
  103OSM   H12S10429   2.531   2.368   9.529 -0.6703  0.9003 -0.5107
  103OSM   H12T10430   2.704   2.422   9.504  0.7756 -0.7452  0.8873
  103OSM   C13S10431   2.561   2.564   9.431 -0.4778  0.6318 -0.5635
  103OSM   H13S10432   2.635   2.647   9.429  0.7948 -0.4962 -0.6211
  103OSM   H13T10433   2.467   2.612   9.467  0.6321  0.7094  2.4216
  103OSM   C14S10434   2.544   2.499   9.297  0.2653 -0.4144  0.2412
  103OSM   H14S10435   2.471   2.416   9.311 -0.7653  0.4019 -0.1988
  103OSM   H14T10436   2.638   2.455   9.256  1.0747 -0.0811  1.7091
  103OSM   C15S10437   2.487   2.595   9.187  0.6827  0.3419  0.0109
  103OSM   H15S10438   2.547   2.688   9.178 -1.0507  1.3204 -2.0037
  103OSM   H15T10439   2.385   2.623   9.220  0.0075 -2.1971  0.2114
  103OSM   C16S10440   2.476   2.528   9.047  0.4148 -0.0585  0.5320
  103OSM   H16S10441   2.422   2.431   9.050  1.4517 -0.6884 -0.8342
  103OSM   H16T10442   2.570   2.484   9.009  0.9421  1.1206  0.4419
  103OSM   C17S10443   2.419   2.617   8.935  0.2411  0.1645 -0.5899
  103OSM   H17S10444   2.465   2.717   8.945  1.0424 -0.0423 -2.1014
  103OSM   H17T10445   2.309   2.630   8.947  0.3554 -1.4107  2.7927
  103OSM   C18S10446   2.449   2.565   8.798  0.3036 -0.1589  0.4017
  103OSM   H18S10447   2.412   2.464   8.769  2.4878 -0.3770 -1.7948
  103OSM   H18T10448   2.559   2.565   8.783  0.0650  0.6894 -1.5598
  103OSM   H18U10449   2.404   2.635   8.724  0.0071 -0.6668  0.0967
  103OSM    C1F10450   3.085   2.367  10.401  0.2671 -0.3083  0.6007
  103OSM     OF10451   3.161   2.271  10.416 -0.8951 -0.3661  0.0836
  103OSM    C2F10452   3.106   2.468  10.296 -0.7690 -0.3722  0.3993
  103OSM    H2F10453   3.215   2.491  10.288 -1.2434  1.4731 -1.2767
  103OSM    H2G10454   3.041   2.556  10.318  0.9815  0.4980  2.1807
  103OSM    C3F10455   3.075   2.419  10.150  0.2755 -0.0713  0.2112
  103OSM    H3F10456   2.979   2.364  10.141 -0.3678  1.2873 -1.7649
  103OSM    H3G10457   3.159   2.352  10.123 -1.7223 -2.5006 -0.1623
  103OSM    C4F10458   3.075   2.530  10.042  0.2144  0.3401  0.3125
  103OSM    H4F10459   3.168   2.589  10.057  2.3121 -2.8568  0.1907
  103OSM    H4G10460   2.989   2.599  10.060  0.1692  0.3371  0.1153
  103OSM    C5F10461   3.067   2.489   9.895  0.3087  0.0454  0.3339
  103OSM    H5F10462   3.002   2.399   9.885  1.4626 -0.9974  1.9421
  103OSM    H5G10463   3.171   2.465   9.864  0.1170  0.5422 -0.7217
  103OSM    C6F10464   3.002   2.603   9.814 -0.0744 -0.3222 -0.9017
  103OSM    H6F10465   3.081   2.681   9.814 -1.6513  1.3342  0.6191
  103OSM    H6G10466   2.916   2.653   9.864  1.2838  1.8738 -0.7119
  103OSM    C7F10467   2.963   2.551   9.673 -0.0865  0.3275 -0.3777
  103OSM    H7F10468   2.888   2.613   9.620  2.0304  1.2244 -2.4250
  103OSM    H7G10469   2.911   2.453   9.680  1.7767 -0.5653  1.5553
  103OSM    C8F10470   3.084   2.527   9.580  0.6379  0.1297 -0.4587
  103OSM    H8F10471   3.048   2.487   9.483  1.2340  1.1595 -1.1163
  103OSM    H8G10472   3.138   2.445   9.631 -1.1271 -1.5070 -1.1742
  103OSM    C9F10473   3.174   2.640   9.550  0.5786 -0.5084 -0.4384
  103OSM    H9F10474   3.241   2.648   9.637 -0.9930 -1.0539  0.8574
  103OSM   C10F10475   3.181   2.722   9.434 -0.6708  0.4078 -0.1051
  103OSM   H10F10476   3.253   2.805   9.440 -0.8435  0.5496  0.0132
  103OSM   C11F10477   3.101   2.701   9.308 -0.0537  0.2873 -0.0507
  103OSM   H11F10478   3.020   2.777   9.309  0.2495  0.6045  0.4800
  103OSM   H11G10479   3.066   2.596   9.299 -1.0735  0.4857  1.4323
  103OSM   C12F10480   3.177   2.728   9.169 -0.3684  0.3327 -0.0289
  103OSM   H12F10481   3.246   2.644   9.148 -1.5206 -0.6304 -0.0525
  103OSM   H12G10482   3.243   2.814   9.191  2.4489 -1.3497 -1.6498
  103OSM   C13F10483   3.083   2.732   9.043  0.3344 -0.4456  0.6841
  103OSM   H13F10484   3.015   2.819   9.053  0.9489 -0.1363  2.2758
  103OSM   H13G10485   3.029   2.636   9.031  1.3400 -1.1402  1.6480
  103OSM   C14F10486   3.154   2.759   8.910 -1.0183 -0.6196 -0.2267
  103OSM   H14F10487   3.071   2.767   8.837 -0.7909  0.1141 -0.4138
  103OSM   H14G10488   3.241   2.694   8.887  0.6234  2.0028 -1.6177
  103OSM   C15F10489   3.205   2.904   8.917  0.2920 -0.5421 -0.4230
  103OSM   H15F10490   3.290   2.907   8.989 -0.3283 -1.8514  0.3776
  103OSM   H15G10491   3.115   2.960   8.948 -0.2209 -2.6966  2.0912
  103OSM   C16F10492   3.259   2.963   8.791  0.0243  0.1457  0.8000
  103OSM   H16F10493   3.186   2.951   8.708 -0.0410 -0.4740  0.9457
  103OSM   H16G10494   3.354   2.919   8.753 -0.5342 -0.5163  0.1571
  103OSM   C17F10495   3.295   3.119   8.793 -0.3318  0.1755 -0.1088
  103OSM   H17F10496   3.382   3.125   8.862 -0.6778 -3.1198  0.7064
  103OSM   H17G10497   3.204   3.167   8.835 -2.1467 -1.7872 -1.6901
  103OSM   C18F10498   3.319   3.174   8.651 -0.6770 -0.1810  0.3864
  103OSM   H18F10499   3.403   3.119   8.604 -0.9177  0.4285 -0.8021
  103OSM   H18G10500   3.335   3.284   8.648 -0.5767 -0.1925  0.5934
  103OSM   H18H10501   3.234   3.152   8.582 -1.9466  2.1926  1.1214
  104OSM      N10502   4.600   1.691  10.975 -0.3824 -0.3034  0.7905
  104OSM    C1510503   4.680   1.665  11.099 -0.2108 -0.2307 -0.5836
  104OSM   H15A10504   4.777   1.623  11.075 -0.4575 -0.3331 -1.4388
  104OSM   H15B10505   4.637   1.588  11.162 -2.4832  1.0369 -0.5536
  104OSM   H15C10506   4.695   1.743  11.171 -1.0891  1.2863 -2.0150
  104OSM    C1410507   4.565   1.557  10.910 -0.2883 -0.3307  0.1106
  104OSM   H14A10508   4.651   1.495  10.892 -1.4185 -2.5931  2.2494
  104OSM   H14B10509   4.513   1.571  10.816  1.4042 -0.6562 -0.8824
  104OSM   H14C10510   4.503   1.497  10.975  1.1630 -1.8948  0.0716
  104OSM    C1310511   4.469   1.754  11.018 -0.3908  0.0937  0.0485
  104OSM   H13A10512   4.412   1.769  10.927  1.1967 -2.4046 -1.4073
  104OSM   H13B10513   4.479   1.849  11.067  2.0606 -0.1500  0.0781
  104OSM   H13C10514   4.409   1.696  11.087  0.5144 -1.3871 -0.3758
  104OSM    C1210515   4.688   1.772  10.877 -0.1874  0.4673 -0.2008
  104OSM   H12A10516   4.625   1.823  10.805  0.3705  1.1119 -0.2372
  104OSM   H12B10517   4.756   1.712  10.819 -0.4305 -0.1063  0.1110
  104OSM    C1110518   4.765   1.891  10.940 -0.3418 -0.7949  0.0950
  104OSM   H11A10519   4.841   1.847  11.008 -0.1047  1.1558  1.1280
  104OSM   H11B10520   4.686   1.952  10.989  0.3359 -0.3726  0.6752
  104OSM      P10521   4.955   2.035  10.830 -0.5203  0.0338 -0.0404
  104OSM    O1310522   4.920   2.175  10.824 -1.0407  0.2322 -0.8385
  104OSM    O1410523   5.044   1.995  10.941  0.2666  0.0458 -0.0082
  104OSM    O1110524   5.025   1.992  10.699  0.5354 -0.2268 -0.1187
  104OSM    O1210525   4.815   1.961  10.830 -0.0741 -0.1869  0.1506
  104OSM    C1S10526   4.948   1.962  10.583 -0.1879 -0.0958 -0.4366
  104OSM    H1S10527   4.856   2.025  10.578  0.0067  0.0846 -1.8696
  104OSM    H1T10528   4.919   1.855  10.586 -0.8916  0.1360  2.0107
  104OSM     NF10529   4.922   1.981  10.349  1.1187  0.4256  0.1501
  104OSM    HNF10530   4.918   1.894  10.300  0.5817  0.9838 -0.8286
  104OSM    C2S10531   5.020   1.991  10.453  0.5099 -0.1539 -0.5027
  104OSM    H2S10532   5.070   2.091  10.458  0.6925 -0.2913  0.5732
  104OSM    C3S10533   5.138   1.892  10.433 -0.2230  0.1176  0.3343
  104OSM    H3S10534   5.077   1.800  10.422  1.4125 -0.7737 -1.6810
  104OSM     O310535   5.226   1.880  10.540 -0.1690  0.0819 -0.3593
  104OSM    HO310536   5.177   1.925  10.609  0.1020 -0.7752  0.4006
  104OSM    C4S10537   5.209   1.917  10.308  0.7092  0.1703 -0.5964
  104OSM    H4S10538   5.190   1.853  10.221 -0.8193 -0.0300 -0.1261
  104OSM    C5S10539   5.311   2.002  10.294  0.6365  0.0580 -0.7812
  104OSM    H5S10540   5.343   2.056  10.384 -3.2098  1.1064  0.0178
  104OSM    C6S10541   5.390   2.007  10.162  0.7371 -0.6260  0.2329
  104OSM    H6S10542   5.389   1.908  10.111  0.4115  1.1778 -3.4117
  104OSM    H6T10543   5.496   2.022  10.193  0.6433  1.7428 -0.4979
  104OSM    C7S10544   5.352   2.130  10.066 -0.6422  0.0108 -0.1688
  104OSM    H7S10545   5.370   2.223  10.125 -1.8851 -0.2225  0.6000
  104OSM    H7T10546   5.249   2.130  10.025 -0.2266 -2.2514 -1.3042
  104OSM    C8S10547   5.438   2.152   9.945 -0.2044  0.0307  0.2862
  104OSM    H8S10548   5.537   2.194   9.972  0.9263 -1.9779 -0.5650
  104OSM    H8T10549   5.392   2.240   9.896  0.3791  1.2676  1.9371
  104OSM    C9S10550   5.449   2.031   9.850 -0.4502  0.4735  0.2648
  104OSM    H9S10551   5.353   1.975   9.857  0.5173 -1.3712 -0.7621
  104OSM    H9T10552   5.526   1.964   9.894 -0.5156  0.4872  0.3998
  104OSM   C10S10553   5.483   2.063   9.704  0.3976  0.1278  0.2026
  104OSM   H10S10554   5.501   1.971   9.645  1.6360  0.6047 -0.1721
  104OSM   H10T10555   5.574   2.125   9.689 -1.2169  2.7436  0.8427
  104OSM   C11S10556   5.366   2.134   9.632 -0.0241  0.5045 -0.0295
  104OSM   H11S10557   5.338   2.230   9.681 -0.8032 -0.5781  1.7122
  104OSM   H11T10558   5.274   2.073   9.642 -0.7656  1.7674  1.1074
  104OSM   C12S10559   5.398   2.157   9.489 -0.0727 -1.2029 -0.1535
  104OSM   H12S10560   5.300   2.182   9.442 -0.5248 -0.6078  1.0932
  104OSM   H12T10561   5.453   2.071   9.444  1.9286  0.0921 -0.2236
  104OSM   C13S10562   5.496   2.274   9.458  0.2715 -0.3831 -0.5878
  104OSM   H13S10563   5.590   2.262   9.517  0.3851  0.9401 -0.4850
  104OSM   H13T10564   5.442   2.368   9.480 -1.7215 -0.9060 -3.0650
  104OSM   C14S10565   5.541   2.263   9.309  0.0150  0.0259 -0.2195
  104OSM   H14S10566   5.453   2.282   9.244  0.0330 -0.6904 -0.4496
  104OSM   H14T10567   5.569   2.163   9.269  1.6865 -0.2070  1.4522
  104OSM   C15S10568   5.642   2.368   9.278 -0.1554 -0.5997  0.2424
  104OSM   H15S10569   5.724   2.361   9.352  0.4369  1.6243 -0.1516
  104OSM   H15T10570   5.605   2.473   9.287 -0.4748 -0.7676  0.9212
  104OSM   C16S10571   5.694   2.370   9.131  0.5962 -0.3616  0.0446
  104OSM   H16S10572   5.604   2.375   9.067  1.6071 -2.3368 -1.5683
  104OSM   H16T10573   5.738   2.271   9.107 -1.0882 -0.6601 -1.8808
  104OSM   C17S10574   5.784   2.492   9.107  0.5214 -0.2207  0.6321
  104OSM   H17S10575   5.871   2.468   9.172  0.1687 -1.1781  0.7591
  104OSM   H17T10576   5.735   2.587   9.138 -0.9718 -0.5939 -0.5723
  104OSM   C18S10577   5.825   2.505   8.965 -0.0494  0.2236  0.1970
  104OSM   H18S10578   5.883   2.419   8.927 -0.5287  0.9506 -2.2866
  104OSM   H18T10579   5.877   2.601   8.942  1.7734 -1.5099 -3.2859
  104OSM   H18U10580   5.739   2.509   8.895 -0.7446  0.5237  1.0460
  104OSM    C1F10581   4.822   2.063  10.318  0.0745  0.1526 -0.9530
  104OSM     OF10582   4.805   2.166  10.379 -0.8612 -0.2777 -0.3050
  104OSM    C2F10583   4.733   2.021  10.215 -1.0687 -0.3421  0.3372
  104OSM    H2F10584   4.701   1.915  10.219 -1.6096 -0.2617 -1.5594
  104OSM    H2G10585   4.770   2.041  10.113  2.1675 -0.3219  1.4416
  104OSM    C3F10586   4.603   2.107  10.235  0.8617  0.0571  0.1969
  104OSM    H3F10587   4.623   2.216  10.231 -1.6801  0.5322 -0.6671
  104OSM    H3G10588   4.557   2.086  10.335  2.0087  1.6213  1.0737
  104OSM    C4F10589   4.503   2.083  10.118 -0.6983 -0.2738 -0.1932
  104OSM    H4F10590   4.405   2.127  10.147 -0.6453 -0.1752 -0.1641
  104OSM    H4G10591   4.495   1.973  10.100  0.1867 -0.1624 -1.3227
  104OSM    C5F10592   4.550   2.146   9.983 -0.0938 -0.7630  0.7661
  104OSM    H5F10593   4.658   2.124   9.966  0.2130  1.4092 -0.2589
  104OSM    H5G10594   4.540   2.257   9.983 -1.1528 -0.7832  4.5200
  104OSM    C6F10595   4.466   2.100   9.862  0.5897 -0.7408  0.0958
  104OSM    H6F10596   4.358   2.120   9.873  0.1476 -3.0528  0.1796
  104OSM    H6G10597   4.480   1.991   9.845 -0.0576 -0.8401  0.1821
  104OSM    C7F10598   4.510   2.172   9.727 -0.3470  0.6002  0.1483
  104OSM    H7F10599   4.619   2.197   9.726  0.2890 -1.6551  2.9221
  104OSM    H7G10600   4.464   2.268   9.756 -2.2295 -0.2920  0.1789
  104OSM    C8F10601   4.454   2.135   9.592 -0.1539 -0.7182 -0.7809
  104OSM    H8F10602   4.349   2.101   9.602 -0.3528  0.1589  0.1772
  104OSM    H8G10603   4.503   2.040   9.561 -0.3431 -1.6298  1.5968
  104OSM    C9F10604   4.444   2.242   9.484 -0.9841  0.2132 -0.2478
  104OSM    H9F10605   4.402   2.336   9.524 -0.5185  1.2282 -2.0911
  104OSM   C10F10606   4.485   2.242   9.355  0.0122  0.3574  0.3999
  104OSM   H10F10607   4.455   2.327   9.292 -1.0618 -0.3627 -0.0912
  104OSM   C11F10608   4.561   2.140   9.273  0.1171 -0.4564  0.2763
  104OSM   H11F10609   4.581   2.057   9.344 -2.3017  0.5311  2.1963
  104OSM   H11G10610   4.655   2.196   9.253 -0.7631  1.2564  0.8068
  104OSM   C12F10611   4.492   2.079   9.147 -0.1231 -0.3799 -0.2277
  104OSM   H12F10612   4.399   2.038   9.191  0.4255 -0.8459  0.4929
  104OSM   H12G10613   4.556   1.997   9.108  0.9169 -0.1637  0.9922
  104OSM   C13F10614   4.449   2.181   9.040 -0.4111  0.5907 -0.3252
  104OSM   H13F10615   4.532   2.233   8.987 -0.7254  2.8512  1.3167
  104OSM   H13G10616   4.402   2.267   9.092  0.7160  1.0689 -0.0874
  104OSM   C14F10617   4.338   2.120   8.942  0.7192 -0.3075 -0.5203
  104OSM   H14F10618   4.245   2.130   9.001  1.6566 -0.3788  0.9857
  104OSM   H14G10619   4.345   2.009   8.931 -1.0445 -0.4709 -0.1130
  104OSM   C15F10620   4.323   2.186   8.811 -0.0341 -0.3785  0.0008
  104OSM   H15F10621   4.244   2.129   8.758  0.7703 -1.4439 -0.0781
  104OSM   H15G10622   4.412   2.174   8.746  2.0859  0.2016  2.7170
  104OSM   C16F10623   4.285   2.334   8.822  0.7439 -0.6179 -0.0797
  104OSM   H16F10624   4.364   2.384   8.883 -0.7227 -1.8192  2.9074
  104OSM   H16G10625   4.200   2.340   8.893  2.4166  1.5575  1.8187
  104OSM   C17F10626   4.265   2.401   8.683  0.2883  0.1380  0.6776
  104OSM   H17F10627   4.368   2.401   8.642  1.7358 -0.9668  4.1043
  104OSM   H17G10628   4.230   2.504   8.704  0.2971  0.3648 -0.3881
  104OSM   C18F10629   4.177   2.335   8.576 -0.6225 -0.4808 -0.0447
  104OSM   H18F10630   4.192   2.377   8.474  0.1410 -0.1456  0.1978
  104OSM   H18G10631   4.072   2.347   8.610 -0.8772 -2.4970 -0.0795
  104OSM   H18H10632   4.207   2.228   8.579 -0.0805 -0.2993  2.0003
  105OSM      N10633   1.972   4.992  10.828  0.0144  0.4337 -0.2590
  105OSM    C1510634   2.016   4.869  10.903 -0.1905 -0.2159  0.8617
  105OSM   H15A10635   2.059   4.791  10.842  0.7697 -0.3091  1.6361
  105OSM   H15B10636   1.931   4.841  10.963  0.2119  1.0927  2.0613
  105OSM   H15C10637   2.097   4.905  10.965  0.5082  0.2017 -0.2793
  105OSM    C1410638   1.907   5.093  10.909  0.1030 -0.2772  0.5973
  105OSM   H14A10639   1.956   5.120  11.002 -1.7293  1.5009  1.0776
  105OSM   H14B10640   1.803   5.068  10.927  0.0608 -0.5439 -0.0247
  105OSM   H14C10641   1.908   5.181  10.848  2.5931  1.0654  2.4870
  105OSM    C1310642   2.099   5.047  10.780 -0.3491 -0.0262  0.2727
  105OSM   H13A10643   2.137   4.983  10.701  1.7091 -0.4967  1.5857
  105OSM   H13B10644   2.174   5.032  10.856 -1.9103 -2.3657  1.4193
  105OSM   H13C10645   2.088   5.151  10.754 -1.6503  0.1987  1.7065
  105OSM    C1210646   1.880   4.953  10.717 -0.0668  0.5333  0.3523
  105OSM   H12A10647   1.946   4.895  10.655 -1.1060 -1.1091  0.7316
  105OSM   H12B10648   1.850   5.030  10.647  0.3687 -0.9714 -1.5460
  105OSM    C1110649   1.756   4.862  10.757 -0.3840 -0.4788 -0.1739
  105OSM   H11A10650   1.797   4.773  10.809 -0.5992 -0.0348  0.7525
  105OSM   H11B10651   1.714   4.825  10.661  1.2274  1.9060 -1.8704
  105OSM      P10652   1.562   4.876  10.934 -0.0920 -0.2876 -0.0272
  105OSM    O1310653   1.629   4.756  10.988  0.0420  0.3041  0.3935
  105OSM    O1410654   1.529   4.983  11.029  0.2800 -0.2519 -0.2825
  105OSM    O1110655   1.446   4.839  10.834 -0.0353  0.0740  0.6261
  105OSM    O1210656   1.662   4.936  10.836  0.7051  0.2166 -0.2458
  105OSM    C1S10657   1.375   4.931  10.749  0.1404  0.2387 -0.1392
  105OSM    H1S10658   1.400   5.037  10.773  1.2976 -0.2550  0.8800
  105OSM    H1T10659   1.265   4.923  10.766 -0.2485  2.5981 -1.3060
  105OSM     NF10660   1.321   5.004  10.525  0.2585 -0.1483  0.3822
  105OSM    HNF10661   1.241   4.965  10.480 -0.3563 -1.6526  2.6683
  105OSM    C2S10662   1.412   4.914  10.597  0.1494  0.3606 -0.1100
  105OSM    H2S10663   1.520   4.932  10.578  0.4641 -2.3800 -1.1883
  105OSM    C3S10664   1.404   4.766  10.551 -0.0129  0.6986  0.3091
  105OSM    H3S10665   1.301   4.727  10.566  0.5675 -0.5349  1.1695
  105OSM     O310666   1.488   4.676  10.628 -0.9481  0.5237 -0.3764
  105OSM    HO310667   1.505   4.723  10.711 -0.6489 -2.2694  1.2195
  105OSM    C4S10668   1.434   4.761  10.396  0.4754  1.0031  0.0393
  105OSM    H4S10669   1.352   4.782  10.326  0.5541 -0.3074 -0.4523
  105OSM    C5S10670   1.558   4.735  10.358 -1.6613  0.2381  0.6751
  105OSM    H5S10671   1.639   4.719  10.431  0.2931 -1.4759 -1.7885
  105OSM    C6S10672   1.615   4.728  10.219  0.3124 -0.5283  0.5853
  105OSM    H6S10673   1.677   4.636  10.209 -0.3108 -0.7073 -1.9381
  105OSM    H6T10674   1.678   4.819  10.209  0.2815 -0.6115 -0.5059
  105OSM    C7S10675   1.521   4.722  10.095 -0.3439 -1.2396  1.0527
  105OSM    H7S10676   1.446   4.804  10.100  0.8158 -0.0077 -1.1855
  105OSM    H7T10677   1.462   4.629  10.086 -2.4079  0.2202 -1.1703
  105OSM    C8S10678   1.603   4.734   9.965  0.2050 -0.7972  0.0055
  105OSM    H8S10679   1.694   4.672   9.975  1.7234  1.6973  2.3070
  105OSM    H8T10680   1.637   4.840   9.954  0.4758 -1.0558 -1.7844
  105OSM    C9S10681   1.517   4.694   9.849  0.3194 -0.0120 -0.2024
  105OSM    H9S10682   1.430   4.761   9.863  0.0908 -0.6164  1.3458
  105OSM    H9T10683   1.484   4.590   9.867  0.3159 -0.6411 -3.5956
  105OSM   C10S10684   1.588   4.710   9.717 -0.0324  0.1568 -0.1991
  105OSM   H10S10685   1.537   4.655   9.634 -0.4860 -0.3905  0.4367
  105OSM   H10T10686   1.687   4.659   9.726 -0.5740 -0.7394  0.7446
  105OSM   C11S10687   1.615   4.864   9.682  0.0195  0.0369  0.6471
  105OSM   H11S10688   1.684   4.860   9.595 -1.1229 -1.6202 -0.2130
  105OSM   H11T10689   1.675   4.901   9.767  2.0100 -0.1263 -0.6643
  105OSM   C12S10690   1.498   4.954   9.643 -0.0353 -0.2965  0.3679
  105OSM   H12S10691   1.531   5.060   9.648 -0.5667 -0.0751 -0.6234
  105OSM   H12T10692   1.411   4.949   9.712 -1.6095 -0.1610 -1.5617
  105OSM   C13S10693   1.455   4.920   9.501 -0.6412 -0.2354  0.4934
  105OSM   H13S10694   1.345   4.937   9.495 -0.7699 -1.4212 -0.7770
  105OSM   H13T10695   1.469   4.812   9.478  1.5551  0.2370 -0.5288
  105OSM   C14S10696   1.521   5.013   9.401 -0.9692  0.2702 -0.7161
  105OSM   H14S10697   1.630   4.995   9.407 -1.3139 -1.8365 -0.2167
  105OSM   H14T10698   1.489   5.117   9.421 -1.6719 -0.0580 -0.0914
  105OSM   C15S10699   1.468   4.977   9.262  1.4787  0.0788 -0.3775
  105OSM   H15S10700   1.359   4.990   9.273  1.4539 -0.3270 -0.1356
  105OSM   H15T10701   1.483   4.872   9.228 -3.2515 -0.1823 -1.9544
  105OSM   C16S10702   1.513   5.071   9.151  0.0123  0.0179 -0.3625
  105OSM   H16S10703   1.621   5.048   9.140 -0.1845 -1.5485  0.9062
  105OSM   H16T10704   1.487   5.170   9.195  1.3481 -0.4050  1.4293
  105OSM   C17S10705   1.445   5.050   9.016  0.6366 -0.4712 -0.7590
  105OSM   H17S10706   1.334   5.055   9.022  0.6198  0.6208 -1.8759
  105OSM   H17T10707   1.473   4.942   9.015 -1.7796 -1.1336 -0.1757
  105OSM   C18S10708   1.502   5.122   8.891  0.5939 -0.3076  0.0480
  105OSM   H18S10709   1.478   5.230   8.906  0.3257 -0.5435  1.3508
  105OSM   H18T10710   1.454   5.086   8.797  0.0875 -1.6396  0.8094
  105OSM   H18U10711   1.611   5.104   8.883  0.5194 -0.5925 -0.3412
  105OSM    C1F10712   1.337   5.131  10.524  0.1951  0.2388 -0.0986
  105OSM     OF10713   1.442   5.180  10.567 -0.3760 -0.2261  0.6655
  105OSM    C2F10714   1.212   5.211  10.482 -0.9179  0.9387  0.5272
  105OSM    H2F10715   1.201   5.295  10.554 -1.6875 -0.5733  2.2167
  105OSM    H2G10716   1.130   5.138  10.498 -0.2413  0.0558  0.0419
  105OSM    C3F10717   1.218   5.273  10.342 -0.0821 -0.3961  0.2826
  105OSM    H3F10718   1.313   5.329  10.355  0.9742 -2.1164  0.1098
  105OSM    H3G10719   1.139   5.351  10.337  1.1522  0.8799  0.3196
  105OSM    C4F10720   1.239   5.178  10.223  0.9122  0.5073 -0.4815
  105OSM    H4F10721   1.143   5.122  10.221  0.1911  1.6485  1.3380
  105OSM    H4G10722   1.311   5.096  10.243  0.8340  0.4256 -0.5336
  105OSM    C5F10723   1.260   5.251  10.089  0.9389 -0.1745  0.1903
  105OSM    H5F10724   1.339   5.329  10.098  0.6132  0.1280  0.3991
  105OSM    H5G10725   1.172   5.310  10.058  1.0276 -0.5276 -0.7476
  105OSM    C6F10726   1.294   5.156   9.969 -0.3553  0.9462  0.6679
  105OSM    H6F10727   1.206   5.094   9.942 -0.9380  1.5925  1.0765
  105OSM    H6G10728   1.382   5.103  10.012 -0.9025 -0.4390  0.1123
  105OSM    C7F10729   1.342   5.240   9.842  0.5960  0.4323 -0.4419
  105OSM    H7F10730   1.404   5.179   9.772  0.8414 -1.6952  1.5697
  105OSM    H7G10731   1.402   5.326   9.876 -0.0526  0.9425 -0.5819
  105OSM    C8F10732   1.220   5.307   9.764  0.0271  0.2097 -0.7846
  105OSM    H8F10733   1.255   5.400   9.714 -1.5343  1.0429 -0.3610
  105OSM    H8G10734   1.154   5.346   9.845 -0.3690  0.6092 -1.3030
  105OSM    C9F10735   1.155   5.214   9.666  0.0037  0.2262  0.0724
  105OSM    H9F10736   1.103   5.128   9.711 -2.6550  1.2020 -0.9670
  105OSM   C10F10737   1.143   5.227   9.532 -0.0523  0.9685  0.5059
  105OSM   H10F10738   1.102   5.137   9.485  0.2206  0.6031  0.9658
  105OSM   C11F10739   1.195   5.330   9.435 -1.1474  0.4525 -0.1713
  105OSM   H11F10740   1.299   5.359   9.460 -0.6491  0.0328 -1.7038
  105OSM   H11G10741   1.134   5.422   9.451 -1.1017  0.3743  0.4266
  105OSM   C12F10742   1.195   5.293   9.284 -0.2715 -0.6573  0.1937
  105OSM   H12F10743   1.258   5.206   9.256 -0.3947 -0.3521 -1.0278
  105OSM   H12G10744   1.250   5.382   9.247 -0.4162  0.0189  1.5580
  105OSM   C13F10745   1.057   5.291   9.229  1.1491 -0.0949  0.1073
  105OSM   H13F10746   1.015   5.394   9.221  1.2806  0.0120  0.8431
  105OSM   H13G10747   0.990   5.227   9.290 -0.4687  0.5996 -0.8959
  105OSM   C14F10748   1.061   5.220   9.090  0.1599  0.1692 -0.4289
  105OSM   H14F10749   0.956   5.211   9.054 -0.1935  0.6038  0.5001
  105OSM   H14G10750   1.111   5.121   9.100  0.5137  0.2237 -1.5503
  105OSM   C15F10751   1.127   5.312   8.990  0.2103  0.1615  0.0735
  105OSM   H15F10752   1.230   5.335   9.024 -0.1870  3.3277 -0.7672
  105OSM   H15G10753   1.078   5.411   8.986 -0.8615 -0.4082 -1.4887
  105OSM   C16F10754   1.129   5.267   8.843 -0.1231  0.5808 -0.7843
  105OSM   H16F10755   1.024   5.244   8.814 -0.1893  2.4016 -2.0429
  105OSM   H16G10756   1.194   5.179   8.826 -2.1059 -1.7931  3.1222
  105OSM   C17F10757   1.170   5.383   8.753 -0.4251 -0.1132  0.9599
  105OSM   H17F10758   1.266   5.428   8.789  0.4659 -1.1501 -0.0803
  105OSM   H17G10759   1.097   5.466   8.749  0.7942  0.9444 -0.4359
  105OSM   C18F10760   1.172   5.347   8.607 -0.1248 -0.2655 -0.2012
  105OSM   H18F10761   1.205   5.244   8.585 -1.9969 -1.2555  1.4662
  105OSM   H18G10762   1.240   5.424   8.564 -0.7347  2.3138  3.2600
  105OSM   H18H10763   1.074   5.345   8.554 -1.9552 -1.0767  3.0840
  106OSM      N10764   0.103   4.008  10.598  0.4475  0.4000  0.5220
  106OSM    C1510765   0.004   3.936  10.684 -0.9697 -0.1641  0.0892
  106OSM   H15A10766   0.049   3.864  10.751  1.3168 -2.3837 -3.6269
  106OSM   H15B10767  -0.058   3.873  10.622  1.4602 -0.7128 -1.8981
  106OSM   H15C10768  -0.038   4.008  10.752  2.6241  0.8440  1.3639
  106OSM    C1410769   0.207   4.069  10.689  0.8670  0.4811 -0.0004
  106OSM   H14A10770   0.289   4.109  10.632  3.6990 -2.8824  1.5389
  106OSM   H14B10771   0.232   3.991  10.759  1.1174  1.0626  0.5679
  106OSM   H14C10772   0.157   4.150  10.741 -1.4773 -0.3694 -0.8406
  106OSM    C1310773   0.172   3.904  10.510  0.0530 -0.6756 -0.1957
  106OSM   H13A10774   0.261   3.946  10.465  0.1803 -0.4889  0.2340
  106OSM   H13B10775   0.112   3.856  10.434  0.5241 -1.9514  0.2201
  106OSM   H13C10776   0.213   3.823  10.568 -0.7251 -0.2187  0.9973
  106OSM    C1210777   0.034   4.112  10.506 -0.1209 -0.2857 -0.3987
  106OSM   H12A10778  -0.032   4.180  10.560  0.8013  1.8863 -1.9202
  106OSM   H12B10779  -0.025   4.054  10.437 -2.0888  0.2462  0.7780
  106OSM    C1110780   0.119   4.206  10.425  0.5524  0.1100 -0.3412
  106OSM   H11A10781   0.048   4.261  10.359  0.8169 -0.7578 -1.3613
  106OSM   H11B10782   0.188   4.152  10.356  1.8167 -0.5553  1.4235
  106OSM      P10783   0.116   4.417  10.584 -0.2255  0.5136 -0.1464
  106OSM    O1310784  -0.029   4.399  10.595 -0.1873  0.2019 -0.3026
  106OSM    O1410785   0.185   4.442  10.718  0.2366  0.0520 -0.1355
  106OSM    O1110786   0.147   4.534  10.484 -0.1967 -0.0844  0.9007
  106OSM    O1210787   0.183   4.294  10.513 -0.0018  0.0735  0.2067
  106OSM    C1S10788   0.234   4.517  10.366 -0.4840 -0.1022 -0.0764
  106OSM    H1S10789   0.187   4.434  10.309  0.4377 -0.6253 -0.0714
  106OSM    H1T10790   0.336   4.489  10.399 -1.5613 -1.6631  2.0783
  106OSM     NF10791   0.283   4.612  10.135  0.2218 -0.5769 -0.0273
  106OSM    HNF10792   0.371   4.648  10.106  1.2328 -2.3334  0.7314
  106OSM    C2S10793   0.223   4.635  10.260 -1.1073  0.2439  0.0424
  106OSM    H2S10794   0.113   4.643  10.248 -0.7315  5.0351 -1.3384
  106OSM    C3S10795   0.278   4.762  10.322 -0.4168 -0.4864  0.7222
  106OSM    H3S10796   0.380   4.737  10.357  0.6223 -0.1850 -2.0043
  106OSM     O310797   0.203   4.808  10.433 -0.1177 -0.1725 -0.6583
  106OSM    HO310798   0.146   4.740  10.469 -0.0522  0.0542 -0.1188
  106OSM    C4S10799   0.286   4.868  10.228 -0.2913 -0.1596  0.2698
  106OSM    H4S10800   0.187   4.910  10.203 -0.4045 -0.7796 -0.3448
  106OSM    C5S10801   0.396   4.938  10.171  0.8194  0.7336  0.5323
  106OSM    H5S10802   0.499   4.921  10.205  2.0114  0.2119 -3.0630
  106OSM    C6S10803   0.396   5.050  10.070  0.2688  0.5853 -0.6785
  106OSM    H6S10804   0.482   5.118  10.092  0.6666  0.2654 -1.2200
  106OSM    H6T10805   0.308   5.115  10.086  0.3462  0.6166 -0.3818
  106OSM    C7S10806   0.404   5.010   9.927 -0.1987 -0.4637  0.4139
  106OSM    H7S10807   0.322   4.939   9.903  2.6991 -4.1500  0.9351
  106OSM    H7T10808   0.499   4.956   9.911 -0.7505 -0.9724 -1.2497
  106OSM    C8S10809   0.389   5.132   9.832 -0.1540 -0.7595 -0.4444
  106OSM    H8S10810   0.475   5.201   9.846 -0.9324  0.2199 -0.4306
  106OSM    H8T10811   0.296   5.189   9.853 -1.5280 -3.3089  0.7125
  106OSM    C9S10812   0.378   5.090   9.687 -0.2072 -0.4905 -0.4463
  106OSM    H9S10813   0.283   5.036   9.668 -0.9899 -0.8432  3.9016
  106OSM    H9T10814   0.466   5.028   9.658  1.4136  1.0708  0.9323
  106OSM   C10S10815   0.368   5.205   9.589 -0.3730  0.7636  1.0088
  106OSM   H10S10816   0.443   5.284   9.611  1.2136 -0.7151  1.0158
  106OSM   H10T10817   0.269   5.253   9.609 -0.3635  2.5447 -2.8932
  106OSM   C11S10818   0.383   5.164   9.437 -0.2236 -0.0262  0.0913
  106OSM   H11S10819   0.375   5.252   9.370  0.1850 -1.3776 -1.7495
  106OSM   H11T10820   0.287   5.110   9.422  1.1971 -2.4758 -0.4176
  106OSM   C12S10821   0.493   5.055   9.400 -0.0022 -0.5708 -0.3553
  106OSM   H12S10822   0.468   4.958   9.448 -1.6017 -0.5181 -1.0772
  106OSM   H12T10823   0.593   5.090   9.434 -0.7483  1.5643 -0.3110
  106OSM   C13S10824   0.506   5.039   9.244 -0.3254  0.3726 -1.2883
  106OSM   H13S10825   0.603   4.991   9.219 -0.1603 -1.6129  2.6991
  106OSM   H13T10826   0.524   5.139   9.198 -0.6854  0.4877 -1.1838
  106OSM   C14S10827   0.384   4.981   9.179  0.0317  0.9415 -0.5756
  106OSM   H14S10828   0.301   4.994   9.251  0.0604  1.7816 -0.6933
  106OSM   H14T10829   0.408   4.873   9.169 -2.8339  0.0196  1.9569
  106OSM   C15S10830   0.360   5.042   9.035  0.0487  0.0995  0.0487
  106OSM   H15S10831   0.320   5.145   9.045 -0.9182 -0.0716 -1.7920
  106OSM   H15T10832   0.273   4.990   8.988  0.4839  0.5440 -1.2776
  106OSM   C16S10833   0.481   5.026   8.938  0.6041 -0.0066 -0.0394
  106OSM   H16S10834   0.579   5.040   8.989  0.9914 -1.7956 -0.2672
  106OSM   H16T10835   0.467   5.113   8.870  0.4929  0.0405  0.0416
  106OSM   C17S10836   0.481   4.898   8.852  0.7226  0.4298  0.1871
  106OSM   H17S10837   0.388   4.907   8.791  0.6127 -1.9128 -0.0431
  106OSM   H17T10838   0.461   4.808   8.915 -3.3532  0.1467 -1.3221
  106OSM   C18S10839   0.609   4.873   8.771 -0.0093 -0.2573 -0.2993
  106OSM   H18S10840   0.698   4.893   8.833 -0.0631  1.0698 -0.6381
  106OSM   H18T10841   0.624   4.934   8.679 -0.6666  0.2575 -0.0677
  106OSM   H18U10842   0.606   4.767   8.736 -0.5973  0.0418 -1.1834
  106OSM    C1F10843   0.239   4.524  10.045 -0.0617  0.1028 -0.5581
  106OSM     OF10844   0.129   4.469  10.060  0.3251  0.5608  0.1544
  106OSM    C2F10845   0.316   4.496   9.928  0.7056 -0.0691 -0.2040
  106OSM    H2F10846   0.267   4.418   9.866 -1.9935  0.7175  0.8773
  106OSM    H2G10847   0.413   4.454   9.963  1.5082  2.2006  0.3407
  106OSM    C3F10848   0.320   4.614   9.824  0.2591 -0.0659 -0.3973
  106OSM    H3F10849   0.374   4.703   9.864 -0.2577  0.1847 -0.2488
  106OSM    H3G10850   0.216   4.647   9.803  0.0002  0.1132  1.1164
  106OSM    C4F10851   0.409   4.581   9.701 -0.1037 -0.0129 -0.2057
  106OSM    H4F10852   0.386   4.476   9.675 -1.4283  0.2053  0.0524
  106OSM    H4G10853   0.511   4.583   9.744 -0.1884  1.1004 -0.0346
  106OSM    C5F10854   0.399   4.669   9.587  0.1319  0.0727  0.9366
  106OSM    H5F10855   0.476   4.651   9.510 -1.9337 -0.2537 -1.1088
  106OSM    H5G10856   0.409   4.775   9.621 -2.2378  0.6675 -0.0777
  106OSM    C6F10857   0.263   4.659   9.508  0.3163 -0.4149 -0.0880
  106OSM    H6F10858   0.272   4.735   9.428  0.8674  0.9796  1.2642
  106OSM    H6G10859   0.173   4.685   9.568  1.2017  1.1793  0.5744
  106OSM    C7F10860   0.249   4.518   9.440 -0.0755 -0.2696 -0.4955
  106OSM    H7F10861   0.213   4.446   9.516 -1.3520  0.2057 -0.6406
  106OSM    H7G10862   0.348   4.480   9.407  0.5358 -1.5275  2.6158
  106OSM    C8F10863   0.142   4.520   9.329 -0.4773 -1.0140  0.4872
  106OSM    H8F10864   0.143   4.600   9.252 -1.1161 -3.4667 -2.1417
  106OSM    H8G10865   0.042   4.537   9.374  0.4659 -0.7971  2.5473
  106OSM    C9F10866   0.136   4.388   9.254  0.6017  0.4228 -0.0644
  106OSM    H9F10867   0.054   4.318   9.277  0.8509  0.7554  1.9169
  106OSM   C10F10868   0.228   4.351   9.162 -0.5082 -0.1238  0.5958
  106OSM   H10F10869   0.220   4.255   9.109 -1.7630  0.2668  0.0484
  106OSM   C11F10870   0.345   4.435   9.122 -0.2384  0.8089 -0.1262
  106OSM   H11F10871   0.430   4.419   9.190 -1.4043 -0.7465  0.9962
  106OSM   H11G10872   0.326   4.545   9.127 -3.5079  0.2172  1.7896
  106OSM   C12F10873   0.392   4.409   8.978 -0.4921  0.2810  0.1019
  106OSM   H12F10874   0.412   4.302   8.954  2.4467  0.9081 -0.4225
  106OSM   H12G10875   0.486   4.464   8.958 -1.5338  1.8116 -0.6818
  106OSM   C13F10876   0.287   4.458   8.883 -0.6283  0.2170 -0.5076
  106OSM   H13F10877   0.275   4.565   8.911  3.1870  0.7162 -0.5487
  106OSM   H13G10878   0.188   4.408   8.898  0.0866 -1.3822 -0.9964
  106OSM   C14F10879   0.325   4.444   8.735 -0.1943 -1.2329  0.0662
  106OSM   H14F10880   0.425   4.490   8.715 -0.8913  1.2407  2.0202
  106OSM   H14G10881   0.256   4.505   8.673  2.1735  0.4304 -1.0398
  106OSM   C15F10882   0.326   4.297   8.686 -0.1083 -0.5328  0.1153
  106OSM   H15F10883   0.228   4.255   8.717  0.1075 -0.0266  1.5107
  106OSM   H15G10884   0.413   4.244   8.729  0.5341  0.8875  0.5974
  106OSM   C16F10885   0.354   4.297   8.535  0.0064  0.5475 -0.4987
  106OSM   H16F10886   0.404   4.202   8.508  0.2060  0.6235 -0.3922
  106OSM   H16G10887   0.422   4.382   8.516  2.0043 -1.4681 -2.6765
  106OSM   C17F10888   0.222   4.319   8.460  0.0030 -0.2627 -0.1359
  106OSM   H17F10889   0.174   4.407   8.508  3.6602  2.1631 -0.6886
  106OSM   H17G10890   0.155   4.234   8.484  3.7644 -2.7335  2.2063
  106OSM   C18F10891   0.225   4.347   8.313  0.8081 -0.4279  0.0479
  106OSM   H18F10892   0.295   4.433   8.302 -1.1969  1.1591 -0.5669
  106OSM   H18G10893   0.124   4.375   8.278 -0.5173 -2.3533  2.2388
  106OSM   H18H10894   0.265   4.256   8.262  1.6189  0.0896 -0.2494
  107OSM      N10895   3.614   1.486  10.866  0.6568  0.2589 -0.2160
  107OSM    C1510896   3.543   1.382  10.782 -0.5336  0.5668 -0.4113
  107OSM   H15A10897   3.592   1.367  10.686  1.1137  4.6963 -0.3157
  107OSM   H15B10898   3.446   1.424  10.761  0.6359  2.7268 -1.6487
  107OSM   H15C10899   3.530   1.291  10.838  1.9252  0.8300  0.6582
  107OSM    C1410900   3.566   1.469  11.008 -0.1478 -0.5128  0.4221
  107OSM   H14A10901   3.619   1.538  11.071 -0.9728  1.1623 -0.6780
  107OSM   H14B10902   3.600   1.371  11.039  0.2519 -1.2274 -2.1600
  107OSM   H14C10903   3.459   1.474  11.026 -0.2198 -1.4287  0.2904
  107OSM    C1310904   3.761   1.465  10.873  0.2882  0.0410  0.4826
  107OSM   H13A10905   3.796   1.536  10.947 -0.6665  0.9295  0.1063
  107OSM   H13B10906   3.814   1.484  10.781  0.8175  0.5190  0.8787
  107OSM   H13C10907   3.794   1.365  10.895  0.3425 -0.5983 -2.3519
  107OSM    C1210908   3.588   1.622  10.812  0.5741 -0.0759 -0.6249
  107OSM   H12A10909   3.617   1.615  10.708  0.6038  0.8659 -0.6836
  107OSM   H12B10910   3.666   1.675  10.864  0.6897 -2.6267  1.8873
  107OSM    C1110911   3.460   1.705  10.841 -0.5348 -0.0879  0.4565
  107OSM   H11A10912   3.484   1.810  10.813 -2.1598  0.6391  1.7130
  107OSM   H11B10913   3.434   1.702  10.949  2.8235  0.4760  1.3513
  107OSM      P10914   3.202   1.638  10.815 -0.3038  0.0750 -0.0476
  107OSM    O1310915   3.159   1.499  10.786  0.1946  1.1604 -0.2356
  107OSM    O1410916   3.199   1.686  10.952  0.0880  0.2993  0.0763
  107OSM    O1110917   3.118   1.735  10.723  0.4695  0.2418  0.4394
  107OSM    O1210918   3.353   1.654  10.765 -0.7590 -0.0398 -0.6028
  107OSM    C1S10919   3.174   1.860  10.674 -0.5310 -0.1433 -0.0592
  107OSM    H1S10920   3.284   1.872  10.686 -0.3605 -0.5961 -1.1011
  107OSM    H1T10921   3.122   1.947  10.721 -0.9840 -1.3752  1.8080
  107OSM     NF10922   3.242   1.982  10.455 -0.0666 -0.0154  0.6586
  107OSM    HNF10923   3.199   2.063  10.416  0.7739  1.1071  2.0258
  107OSM    C2S10924   3.150   1.882  10.519  0.5699 -0.0887  0.3547
  107OSM    H2S10925   3.183   1.785  10.476  1.7561 -0.2413  1.5798
  107OSM    C3S10926   3.000   1.900  10.500  0.3106 -0.3733  0.5293
  107OSM    H3S10927   2.959   1.990  10.550 -1.0224 -1.2625  1.0533
  107OSM     O310928   2.919   1.800  10.563  0.2402 -0.0390  0.0598
  107OSM    HO310929   2.988   1.749  10.606 -0.7527 -2.2978 -0.9746
  107OSM    C4S10930   2.954   1.902  10.355  0.0673  0.0892 -0.0525
  107OSM    H4S10931   2.998   1.816  10.303 -1.1376 -1.0714  0.8203
  107OSM    C5S10932   2.879   1.995  10.290 -0.5694  0.0530 -0.2163
  107OSM    H5S10933   2.853   2.090  10.338 -0.1854 -0.0703  0.2455
  107OSM    C6S10934   2.842   1.986  10.146  0.5287  0.3979  0.0824
  107OSM    H6S10935   2.736   2.014  10.132 -0.0069 -0.9576  1.2297
  107OSM    H6T10936   2.851   1.882  10.108 -1.3931 -0.2811  1.4094
  107OSM    C7S10937   2.944   2.059  10.055  0.0018  0.4394  0.6233
  107OSM    H7S10938   3.045   2.014  10.066 -0.6017 -1.4076 -1.2572
  107OSM    H7T10939   2.960   2.168  10.068 -1.2830  1.0155 -2.3807
  107OSM    C8S10940   2.896   2.035   9.902 -0.4564 -0.8037 -0.2877
  107OSM    H8S10941   2.785   2.043   9.905 -0.6388 -3.3816  2.9100
  107OSM    H8T10942   2.913   1.925   9.892  0.0198 -0.8144  0.5735
  107OSM    C9S10943   2.970   2.115   9.791  0.2357  0.4416  0.3996
  107OSM    H9S10944   3.077   2.088   9.791  0.4350  1.2103 -0.1167
  107OSM    H9T10945   2.957   2.224   9.812  2.4940  0.1124  3.9315
  107OSM   C10S10946   2.922   2.078   9.655  0.3142 -0.2503  0.6068
  107OSM   H10S10947   2.822   2.123   9.637  0.9064  0.0721 -1.9953
  107OSM   H10T10948   2.914   1.968   9.643 -1.3139  0.0501 -1.2582
  107OSM   C11S10949   3.016   2.129   9.534 -0.4320 -0.1238  0.2312
  107OSM   H11S10950   3.113   2.075   9.531  0.3578  1.3829 -2.8537
  107OSM   H11T10951   3.047   2.233   9.556  1.6198 -0.1356 -2.3623
  107OSM   C12S10952   2.939   2.131   9.401 -0.1594 -0.4083  0.3954
  107OSM   H12S10953   2.847   2.192   9.406 -1.6512 -2.5284 -0.3258
  107OSM   H12T10954   2.905   2.027   9.380  1.5118 -0.7246 -0.8823
  107OSM   C13S10955   3.016   2.192   9.280  0.5232 -0.1158 -0.0290
  107OSM   H13S10956   3.110   2.135   9.264  0.1774 -0.1490 -2.0848
  107OSM   H13T10957   3.045   2.291   9.321 -0.0263  0.3069 -0.6485
  107OSM   C14S10958   2.940   2.218   9.146  0.2293 -0.4121 -0.4825
  107OSM   H14S10959   2.857   2.292   9.148 -0.3543 -1.0829  3.1228
  107OSM   H14T10960   2.897   2.118   9.123  2.0840 -0.4552 -4.2253
  107OSM   C15S10961   3.049   2.259   9.040  0.4429  0.1333 -0.2083
  107OSM   H15S10962   3.090   2.164   8.997 -0.2973  0.1297 -0.9066
  107OSM   H15T10963   3.131   2.309   9.097  0.0249  0.0395  0.4758
  107OSM   C16S10964   2.989   2.342   8.929  0.8048 -0.6751  0.1803
  107OSM   H16S10965   2.939   2.426   8.982  2.5744  0.2362  0.4690
  107OSM   H16T10966   2.912   2.291   8.868  0.5544 -2.1617  1.6855
  107OSM   C17S10967   3.098   2.413   8.844 -0.3232 -0.2941 -0.2946
  107OSM   H17S10968   3.176   2.453   8.913 -1.1546  0.9644 -0.0617
  107OSM   H17T10969   3.043   2.494   8.791  0.6203  0.8769  0.4644
  107OSM   C18S10970   3.171   2.319   8.748 -0.2296 -0.0947 -0.0351
  107OSM   H18S10971   3.100   2.272   8.676  0.2783  1.0606 -1.3070
  107OSM   H18T10972   3.215   2.242   8.814 -2.5021 -0.1593  1.4693
  107OSM   H18U10973   3.238   2.383   8.687  0.4000  0.4253  1.1826
  107OSM    C1F10974   3.373   1.964  10.451 -0.5487 -0.7850 -0.1702
  107OSM     OF10975   3.423   1.856  10.490 -0.5234 -0.5923 -0.3147
  107OSM    C2F10976   3.456   2.074  10.395  0.0673  0.5128  0.0460
  107OSM    H2F10977   3.472   2.144  10.480 -2.2045 -0.4742  1.3543
  107OSM    H2G10978   3.395   2.115  10.311  1.4294 -0.3046 -1.3598
  107OSM    C3F10979   3.576   2.015  10.318 -0.5564  0.5624  0.5024
  107OSM    H3F10980   3.550   2.002  10.211 -0.2495 -0.2356  0.5226
  107OSM    H3G10981   3.612   1.916  10.353 -1.1429 -0.5296 -1.8678
  107OSM    C4F10982   3.696   2.115  10.316  0.4513  0.2009  0.6459
  107OSM    H4F10983   3.719   2.136  10.422 -0.0655 -1.0596  1.0128
  107OSM    H4G10984   3.671   2.212  10.269 -1.2131 -0.3402  0.3566
  107OSM    C5F10985   3.809   2.063  10.232 -0.6655  0.0763 -0.3655
  107OSM    H5F10986   3.842   1.964  10.271  0.3301  0.6005  0.1430
  107OSM    H5G10987   3.899   2.126  10.245 -1.7272  1.2466  1.5988
  107OSM    C6F10988   3.783   2.058  10.074  0.7647  0.0638 -0.1789
  107OSM    H6F10989   3.780   2.155  10.021  2.5373 -0.4876 -1.3345
  107OSM    H6G10990   3.689   1.999  10.065  1.0760 -0.4835  0.1330
  107OSM    C7F10991   3.888   1.967  10.004  0.1900 -0.6366 -0.0113
  107OSM    H7F10992   3.838   1.877   9.964  0.5054 -0.0765 -1.6729
  107OSM    H7G10993   3.963   1.929  10.078 -1.3394 -2.2280  0.7562
  107OSM    C8F10994   3.960   2.041   9.886  0.0700 -0.5857  0.1539
  107OSM    H8F10995   3.879   2.097   9.834 -1.0818 -2.6855 -0.3708
  107OSM    H8G10996   3.998   1.970   9.809 -0.7302 -1.4282  0.5182
  107OSM    C9F10997   4.069   2.136   9.937 -1.0438  0.1687  0.1274
  107OSM    H9F10998   4.140   2.092  10.009  1.6112  2.7233 -0.8642
  107OSM   C10F10999   4.098   2.261   9.892  0.5776  0.0266  0.1637
  107OSM   H10F11000   4.174   2.313   9.953  0.9379  1.0971 -1.1895
  107OSM   C11F11001   4.040   2.340   9.781  0.1682 -0.2735 -0.6161
  107OSM   H11F11002   3.993   2.434   9.816  1.2857 -0.8637  2.5677
  107OSM   H11G11003   3.970   2.271   9.728 -1.1124  1.1065 -0.7719
  107OSM   C12F11004   4.141   2.380   9.673  0.3490  0.2363 -0.8152
  107OSM   H12F11005   4.225   2.309   9.663  1.2822  1.5111 -2.1615
  107OSM   H12G11006   4.187   2.473   9.713  1.8364  0.4088 -2.8384
  107OSM   C13F11007   4.096   2.405   9.535 -0.5988 -0.1015  0.1624
  107OSM   H13F11008   4.050   2.314   9.489 -0.4853  1.0430 -2.2926
  107OSM   H13G11009   4.183   2.413   9.466 -2.0911  0.7340 -1.6822
  107OSM   C14F11010   4.007   2.526   9.512 -0.2292 -0.2117  0.2456
  107OSM   H14F11011   4.042   2.612   9.573 -0.3095 -0.7095  0.9883
  107OSM   H14G11012   3.903   2.498   9.538 -0.3074 -2.1285 -1.9333
  107OSM   C15F11013   4.012   2.581   9.362 -0.9511 -0.0145 -0.7748
  107OSM   H15F11014   4.119   2.588   9.333 -1.0866 -0.8961 -1.4922
  107OSM   H15G11015   3.983   2.688   9.374 -1.4387  0.0075 -2.1326
  107OSM   C16F11016   3.928   2.506   9.259  0.6089  0.2131 -0.4707
  107OSM   H16F11017   3.917   2.565   9.166 -0.8676  0.5806 -0.0887
  107OSM   H16G11018   3.821   2.499   9.289  0.4273 -2.2335 -1.5867
  107OSM   C17F11019   3.959   2.355   9.226  0.0431 -0.1374 -0.2858
  107OSM   H17F11020   3.894   2.322   9.142  0.0096  0.0448 -0.3293
  107OSM   H17G11021   3.924   2.289   9.309  1.2080  0.2543  0.5133
  107OSM   C18F11022   4.102   2.335   9.191  0.1324 -0.2475 -0.6685
  107OSM   H18F11023   4.115   2.379   9.090  0.8731 -1.0787 -0.9386
  107OSM   H18G11024   4.138   2.232   9.171 -0.7464 -0.8497  0.7657
  107OSM   H18H11025   4.174   2.380   9.262 -0.6137 -0.3710  0.1856
  108OSM      N11026   0.273   3.238  10.854  0.7148  0.0027  0.2498
  108OSM    C1511027   0.241   3.148  10.971 -0.0750 -0.4915 -1.4459
  108OSM   H15A11028   0.141   3.165  11.007  0.5620 -3.3138  1.9440
  108OSM   H15B11029   0.308   3.168  11.054 -2.1652 -0.3802  0.2500
  108OSM   H15C11030   0.261   3.044  10.947 -1.2043 -1.5649  1.9140
  108OSM    C1411031   0.269   3.385  10.902 -0.3519  0.2370 -0.9784
  108OSM   H14A11032   0.352   3.414  10.964 -0.9417  1.2046 -0.6331
  108OSM   H14B11033   0.179   3.413  10.956  0.7867 -0.7772  1.4991
  108OSM   H14C11034   0.263   3.445  10.813  1.3070 -1.8837 -2.5825
  108OSM    C1311035   0.407   3.196  10.812  0.1715  0.4605  0.3572
  108OSM   H13A11036   0.422   3.089  10.818  0.9510  0.6713  3.3748
  108OSM   H13B11037   0.481   3.238  10.878 -0.9177  1.7464  0.7744
  108OSM   H13C11038   0.423   3.223  10.709 -1.6089 -0.6380 -0.2325
  108OSM    C1211039   0.176   3.214  10.742 -0.8651  0.0365 -0.2583
  108OSM   H12A11040   0.079   3.247  10.775 -3.0726 -4.3234 -2.0495
  108OSM   H12B11041   0.174   3.107  10.733  0.5790 -0.1207  0.9090
  108OSM    C1111042   0.202   3.287  10.608 -0.6684 -0.0324 -0.1165
  108OSM   H11A11043   0.137   3.253  10.524 -2.1352  2.6955 -0.1417
  108OSM   H11B11044   0.305   3.268  10.571 -0.4721  0.5671  0.1152
  108OSM      P11045   0.085   3.524  10.554 -0.3938  0.0310  0.2188
  108OSM    O1311046   0.067   3.640  10.640  0.4153 -0.4243 -0.5356
  108OSM    O1411047   0.128   3.544  10.412 -0.4905  0.1316 -0.0309
  108OSM    O1111048  -0.041   3.433  10.557 -0.0949  0.6292 -0.3079
  108OSM    O1211049   0.196   3.425  10.626 -0.0277  0.2117  0.4872
  108OSM    C1S11050  -0.173   3.485  10.514 -0.7093  0.2773 -0.4812
  108OSM    H1S11051  -0.180   3.594  10.536 -0.3824 -0.1264  1.8109
  108OSM    H1T11052  -0.257   3.450  10.577 -0.5848  0.4632 -0.2074
  108OSM     NF11053  -0.322   3.533  10.335 -0.6163  0.3786 -0.1577
  108OSM    HNF11054  -0.397   3.469  10.322  0.1029 -0.6097  0.4415
  108OSM    C2S11055  -0.193   3.471  10.363 -0.0015  0.5000  0.2373
  108OSM    H2S11056  -0.107   3.523  10.317  0.8113 -1.5758 -0.5891
  108OSM    C3S11057  -0.180   3.322  10.300  0.3089  0.9613 -0.5487
  108OSM    H3S11058  -0.248   3.265  10.368 -0.3868  1.7665 -0.5585
  108OSM     O311059  -0.051   3.270  10.325 -0.0426  0.1423  0.2242
  108OSM    HO311060  -0.019   3.333  10.389  3.1233 -0.3862 -0.7723
  108OSM    C4S11061  -0.215   3.312  10.149  0.4189  0.0867  0.1549
  108OSM    H4S11062  -0.131   3.355  10.092 -1.3629  0.3733 -2.3520
  108OSM    C5S11063  -0.325   3.274  10.087  0.2455  0.8917 -0.5035
  108OSM    H5S11064  -0.411   3.250  10.150  0.2098  1.3782 -0.3664
  108OSM    C6S11065  -0.365   3.276   9.946  0.2130  0.6971 -0.3304
  108OSM    H6S11066  -0.443   3.356   9.938 -0.1690  0.1565 -2.2161
  108OSM    H6T11067  -0.419   3.187   9.907  0.2697  1.7982 -3.0437
  108OSM    C7S11068  -0.255   3.317   9.841 -0.1304 -0.6392 -0.1456
  108OSM    H7S11069  -0.177   3.238   9.836 -1.7231 -2.2529  0.2238
  108OSM    H7T11070  -0.218   3.414   9.880  2.8240  0.0595 -4.3964
  108OSM    C8S11071  -0.330   3.321   9.711  0.3965  0.0963 -1.1892
  108OSM    H8S11072  -0.421   3.384   9.720 -0.0371 -0.6540 -0.1746
  108OSM    H8T11073  -0.385   3.227   9.691 -0.1507 -0.2547  1.7429
  108OSM    C9S11074  -0.244   3.376   9.596 -0.1624  0.0570  0.0293
  108OSM    H9S11075  -0.152   3.314   9.592 -0.6749 -0.7204 -0.0734
  108OSM    H9T11076  -0.213   3.474   9.638  1.0463 -0.7503  1.0403
  108OSM   C10S11077  -0.309   3.367   9.465 -0.3655 -0.9368  1.0951
  108OSM   H10S11078  -0.416   3.397   9.465  0.2080  1.2878 -0.6628
  108OSM   H10T11079  -0.305   3.263   9.427  0.8919 -0.6296  0.3519
  108OSM   C11S11080  -0.238   3.453   9.351 -0.1817  0.3800 -0.1749
  108OSM   H11S11081  -0.137   3.412   9.333  0.2001  1.4570 -0.5156
  108OSM   H11T11082  -0.224   3.552   9.399 -0.7434  0.2284  0.3144
  108OSM   C12S11083  -0.315   3.472   9.216 -0.1195 -0.3409 -0.0373
  108OSM   H12S11084  -0.408   3.528   9.241  1.1267  2.3803 -1.2601
  108OSM   H12T11085  -0.343   3.373   9.176 -1.6515 -0.3858  1.1015
  108OSM   C13S11086  -0.237   3.550   9.105  0.3178  0.2300  0.4310
  108OSM   H13S11087  -0.143   3.494   9.084  0.8688  1.0756  0.6334
  108OSM   H13T11088  -0.219   3.650   9.150 -1.9119  0.0532  1.7721
  108OSM   C14S11089  -0.319   3.562   8.979 -0.2558 -0.0730 -0.4714
  108OSM   H14S11090  -0.412   3.610   9.015  0.1101 -0.8791  1.6194
  108OSM   H14T11091  -0.350   3.461   8.946 -0.4569 -1.7634  4.4572
  108OSM   C15S11092  -0.258   3.657   8.877 -0.0460  0.3511  0.1414
  108OSM   H15S11093  -0.156   3.625   8.845 -0.4107  1.6099 -2.4626
  108OSM   H15T11094  -0.240   3.758   8.921  1.1947  0.5903 -0.8764
  108OSM   C16S11095  -0.348   3.668   8.751  0.3176  0.4001 -0.2891
  108OSM   H16S11096  -0.448   3.699   8.787 -0.5919 -1.1571 -1.4267
  108OSM   H16T11097  -0.354   3.574   8.692 -1.0862  1.1860 -1.4234
  108OSM   C17S11098  -0.297   3.785   8.667  0.1876 -0.0914  0.6007
  108OSM   H17S11099  -0.335   3.878   8.714 -1.6649 -0.3613 -0.3197
  108OSM   H17T11100  -0.339   3.799   8.565 -1.1146  1.3464  1.3021
  108OSM   C18S11101  -0.140   3.800   8.658  0.2810  0.0503  0.4893
  108OSM   H18S11102  -0.111   3.889   8.598  1.0782 -0.2714  0.3986
  108OSM   H18T11103  -0.086   3.709   8.623 -1.0137 -0.7066  0.4044
  108OSM   H18U11104  -0.105   3.823   8.760 -0.8657 -1.8251  1.3459
  108OSM    C1F11105  -0.333   3.662  10.322 -0.4618 -0.0962 -0.2596
  108OSM     OF11106  -0.239   3.731  10.351  0.2026  0.3260 -0.2687
  108OSM    C2F11107  -0.462   3.724  10.287 -0.2619  0.1727  0.7397
  108OSM    H2F11108  -0.503   3.779  10.375 -1.3784 -2.3346  1.8246
  108OSM    H2G11109  -0.525   3.636  10.263  2.8396 -1.2927 -2.4212
  108OSM    C3F11110  -0.448   3.826  10.168 -0.2586 -0.3360 -0.2763
  108OSM    H3F11111  -0.387   3.912  10.205  1.4235 -1.3542 -0.5984
  108OSM    H3G11112  -0.546   3.874  10.148 -0.3763 -0.0278  0.9597
  108OSM    C4F11113  -0.377   3.773  10.043  0.4259 -0.2988  0.2890
  108OSM    H4F11114  -0.276   3.729  10.060  0.1177 -1.0620  0.1753
  108OSM    H4G11115  -0.368   3.855   9.970 -0.9035 -1.0863 -0.7933
  108OSM    C5F11116  -0.467   3.652   9.989  0.8775  0.4719 -0.4379
  108OSM    H5F11117  -0.451   3.571  10.064  0.6039  1.7723  1.0684
  108OSM    H5G11118  -0.418   3.613   9.897 -1.6157 -1.7697 -0.8660
  108OSM    C6F11119  -0.615   3.689   9.972  0.1655  0.2226 -0.2772
  108OSM    H6F11120  -0.656   3.716  10.072  3.3011  0.2676  1.0489
  108OSM    H6G11121  -0.667   3.594   9.948  0.7323  0.2463 -1.5819
  108OSM    C7F11122  -0.647   3.780   9.848  0.1621  0.8531 -0.2813
  108OSM    H7F11123  -0.606   3.880   9.871  0.8914  0.7042 -0.9371
  108OSM    H7G11124  -0.757   3.795   9.852 -0.5726 -3.6370 -0.6312
  108OSM    C8F11125  -0.593   3.715   9.719 -0.0915 -0.5602 -0.0864
  108OSM    H8F11126  -0.482   3.713   9.718  0.0429  3.2749  0.2034
  108OSM    H8G11127  -0.635   3.784   9.643  0.1575  0.2186  0.4713
  108OSM    C9F11128  -0.637   3.575   9.695  0.4201 -0.3106 -0.3700
  108OSM    H9F11129  -0.606   3.505   9.774 -2.9991  0.3573  1.6907
  108OSM   C10F11130  -0.732   3.540   9.603  1.1017 -0.1622 -0.3159
  108OSM   H10F11131  -0.750   3.434   9.581 -1.1586 -0.0457  0.8716
  108OSM   C11F11132  -0.809   3.627   9.507  0.6592  0.6007  0.1517
  108OSM   H11F11133  -0.743   3.707   9.468  1.2848  0.8946  1.7703
  108OSM   H11G11134  -0.895   3.671   9.563  1.0784  0.3450  1.0011
  108OSM   C12F11135  -0.847   3.554   9.378  0.0050 -0.4674  0.7745
  108OSM   H12F11136  -0.926   3.625   9.345  1.7235  0.5209 -1.3862
  108OSM   H12G11137  -0.887   3.451   9.388  3.0886 -1.9250 -1.0752
  108OSM   C13F11138  -0.743   3.550   9.268 -0.4627 -0.0187 -0.0672
  108OSM   H13F11139  -0.661   3.483   9.301 -0.1352  1.0584  1.3478
  108OSM   H13G11140  -0.697   3.651   9.262 -0.5942  0.0540  0.1454
  108OSM   C14F11141  -0.805   3.506   9.134 -0.2594  0.1815 -0.5046
  108OSM   H14F11142  -0.892   3.566   9.100 -1.6560 -2.4824 -1.8332
  108OSM   H14G11143  -0.849   3.405   9.147 -0.1380  0.0559 -1.0394
  108OSM   C15F11144  -0.707   3.505   9.020  0.0931  0.2286  0.6776
  108OSM   H15F11145  -0.619   3.438   9.033 -1.6822 -2.6336 -1.3194
  108OSM   H15G11146  -0.661   3.604   8.997  2.9154 -1.2926 -0.4913
  108OSM   C16F11147  -0.769   3.447   8.891 -0.2261 -0.2879  0.0437
  108OSM   H16F11148  -0.870   3.491   8.876 -0.6064 -1.1452  0.0122
  108OSM   H16G11149  -0.774   3.336   8.895  0.8878 -0.2905  2.1758
  108OSM   C17F11150  -0.688   3.464   8.765  0.3297  0.1284  0.2874
  108OSM   H17F11151  -0.600   3.396   8.772  0.6557  0.5464  0.2849
  108OSM   H17G11152  -0.650   3.567   8.749  1.5736 -0.4631 -0.7181
  108OSM   C18F11153  -0.760   3.416   8.636  0.6056  0.2586 -0.0483
  108OSM   H18F11154  -0.816   3.321   8.650 -1.5498  1.6250  0.8187
  108OSM   H18G11155  -0.683   3.416   8.556  0.3783 -1.3039 -0.2814
  108OSM   H18H11156  -0.835   3.488   8.597 -0.4758 -0.2250  1.0842
  109OSM      N11157   5.269   1.708  11.133 -0.0246  0.7216  0.4275
  109OSM    C1511158   5.134   1.726  11.084  0.9556 -0.2441  0.0251
  109OSM   H15A11159   5.124   1.826  11.044  0.1709  0.1866  1.2746
  109OSM   H15B11160   5.061   1.718  11.163  0.2247 -0.6116 -0.6712
  109OSM   H15C11161   5.113   1.652  11.008  2.1819 -0.1120 -0.4563
  109OSM    C1411162   5.372   1.771  11.048 -0.2971  0.8261 -0.0962
  109OSM   H14A11163   5.368   1.879  11.049 -0.0396  0.8289  2.7034
  109OSM   H14B11164   5.358   1.731  10.948 -2.0609 -0.2838  0.5790
  109OSM   H14C11165   5.473   1.745  11.073 -0.5630  0.2542  0.3908
  109OSM    C1311166   5.276   1.775  11.267 -0.0416  0.5155  0.0447
  109OSM   H13A11167   5.235   1.874  11.254 -1.6553 -0.2356 -0.7869
  109OSM   H13B11168   5.374   1.765  11.312  0.4126 -0.2744 -1.0948
  109OSM   H13C11169   5.208   1.730  11.339 -1.0146  0.6575 -0.7733
  109OSM    C1211170   5.292   1.562  11.145  0.4486 -0.5777  0.2398
  109OSM   H12A11171   5.210   1.521  11.202  1.0221 -1.9013  0.1384
  109OSM   H12B11172   5.377   1.548  11.209 -0.9148 -2.0203  1.7738
  109OSM    C1111173   5.328   1.486  11.015  0.6539  0.3253  0.1716
  109OSM   H11A11174   5.357   1.386  11.055 -1.2305  0.3865  1.7731
  109OSM   H11B11175   5.415   1.527  10.959  1.1028 -0.1657  0.5036
  109OSM      P11176   5.206   1.351  10.836 -0.3869  0.1100  0.5466
  109OSM    O1311177   5.278   1.235  10.891 -0.0544  0.0640 -0.0206
  109OSM    O1411178   5.065   1.319  10.798  0.4072  0.0630  0.0938
  109OSM    O1111179   5.287   1.409  10.723 -0.0440  0.5506 -0.2103
  109OSM    O1211180   5.214   1.476  10.936 -0.1408  0.5117  0.7128
  109OSM    C1S11181   5.331   1.542  10.696  0.1247 -0.0033 -0.8125
  109OSM    H1S11182   5.410   1.566  10.771 -1.4870 -1.5736  1.4540
  109OSM    H1T11183   5.246   1.613  10.708  0.3272  0.3809 -1.6354
  109OSM     NF11184   5.430   1.686  10.533 -0.0854  0.2578 -0.1382
  109OSM    HNF11185   5.376   1.767  10.511 -2.6909 -1.1535  0.8388
  109OSM    C2S11186   5.376   1.555  10.553  0.3837  0.1586 -0.0298
  109OSM    H2S11187   5.455   1.481  10.528 -0.3024 -0.2544 -1.0090
  109OSM    C3S11188   5.258   1.521  10.455 -0.4392  0.1152 -0.3854
  109OSM    H3S11189   5.178   1.590  10.488 -0.3130 -0.9013  2.1647
  109OSM     O311190   5.190   1.398  10.461  0.7900  0.1645 -0.3740
  109OSM    HO311191   5.205   1.378  10.553 -2.0151  1.2587  0.3658
  109OSM    C4S11192   5.316   1.550  10.323  0.5127  0.2263 -0.3903
  109OSM    H4S11193   5.288   1.645  10.275 -0.1330  0.5573  0.6277
  109OSM    C5S11194   5.387   1.467  10.248 -0.1417  0.6002 -0.1842
  109OSM    H5S11195   5.403   1.364  10.284  1.3197  0.8838 -0.0152
  109OSM    C6S11196   5.460   1.485  10.121 -0.1860 -0.0303 -0.8398
  109OSM    H6S11197   5.405   1.440  10.035  1.4444 -0.1695 -1.8290
  109OSM    H6T11198   5.563   1.444  10.129  0.6088  2.0479 -0.2228
  109OSM    C7S11199   5.474   1.628  10.069  0.3674 -0.3940 -0.3176
  109OSM    H7S11200   5.545   1.676  10.139 -0.2256 -0.5246  0.3917
  109OSM    H7T11201   5.378   1.682  10.087  0.8110 -0.2146  1.7074
  109OSM    C8S11202   5.519   1.638   9.923  0.7029 -0.2826  0.6613
  109OSM    H8S11203   5.585   1.551   9.906  1.0469 -0.2530  1.7817
  109OSM    H8T11204   5.580   1.731   9.911 -0.0179 -0.0288 -1.2417
  109OSM    C9S11205   5.403   1.641   9.826  0.1699 -0.1937  0.0740
  109OSM    H9S11206   5.339   1.731   9.835 -1.3821 -1.4247  1.5142
  109OSM    H9T11207   5.328   1.561   9.846 -2.4665  1.8913 -1.2110
  109OSM   C10S11208   5.444   1.629   9.675 -0.3187 -0.4009  0.3063
  109OSM   H10S11209   5.488   1.528   9.667  0.7765 -0.0086  1.2904
  109OSM   H10T11210   5.523   1.702   9.648 -1.5864  0.3842 -1.4288
  109OSM   C11S11211   5.336   1.634   9.577 -0.1855  0.1989 -0.6302
  109OSM   H11S11212   5.272   1.721   9.604 -2.0886 -0.5923 -2.4658
  109OSM   H11T11213   5.274   1.542   9.577 -1.4610  1.0366  0.7261
  109OSM   C12S11214   5.386   1.656   9.428 -0.9770 -0.3883 -0.1007
  109OSM   H12S11215   5.476   1.593   9.410 -0.8075  0.4000 -2.0570
  109OSM   H12T11216   5.426   1.759   9.426 -1.6972 -0.1075 -0.1749
  109OSM   C13S11217   5.285   1.616   9.324  0.0103 -0.4908  0.1995
  109OSM   H13S11218   5.198   1.684   9.341 -1.0429 -1.9977  0.9653
  109OSM   H13T11219   5.246   1.512   9.336 -1.0352 -0.2723 -1.1955
  109OSM   C14S11220   5.332   1.639   9.186 -0.2643 -0.3341 -0.0653
  109OSM   H14S11221   5.431   1.592   9.171 -0.1064  0.7270 -2.7033
  109OSM   H14T11222   5.352   1.748   9.173 -2.0242  0.0330  0.2238
  109OSM   C15S11223   5.233   1.580   9.083 -0.3146  0.9992  0.6518
  109OSM   H15S11224   5.138   1.637   9.091 -2.0347 -1.8484  1.1486
  109OSM   H15T11225   5.222   1.472   9.107 -1.6924  1.4419  2.1527
  109OSM   C16S11226   5.266   1.604   8.941 -0.8592 -0.0829 -0.3569
  109OSM   H16S11227   5.354   1.557   8.893 -1.0047 -1.8036  1.0114
  109OSM   H16T11228   5.286   1.713   8.937  0.5669 -0.3423 -0.2882
  109OSM   C17S11229   5.144   1.572   8.856 -0.2028 -0.2423 -0.5663
  109OSM   H17S11230   5.052   1.619   8.897  1.5155  1.6820  1.2143
  109OSM   H17T11231   5.133   1.461   8.850 -1.9701 -0.2511  1.9102
  109OSM   C18S11232   5.161   1.629   8.715 -0.5807  0.1129  0.3030
  109OSM   H18S11233   5.254   1.579   8.680 -0.7528 -0.4986  0.7148
  109OSM   H18T11234   5.175   1.739   8.715  2.1889 -0.2039  0.1348
  109OSM   H18U11235   5.070   1.604   8.655 -0.7780 -1.9192  1.4106
  109OSM    C1F11236   5.543   1.729  10.586 -0.1054 -0.3559 -0.0875
  109OSM     OF11237   5.611   1.669  10.664  0.8926  0.5954 -0.0074
  109OSM    C2F11238   5.594   1.857  10.537  0.1173  0.2188  0.1443
  109OSM    H2F11239   5.550   1.942  10.592 -0.1490 -0.7753  1.4843
  109OSM    H2G11240   5.565   1.860  10.429  0.2944 -1.0676  0.0491
  109OSM    C3F11241   5.744   1.870  10.544 -0.5724  0.3017 -0.6993
  109OSM    H3F11242   5.802   1.781  10.510  0.3254  1.0352 -1.1175
  109OSM    H3G11243   5.775   1.876  10.650  2.1011 -0.5827 -1.3764
  109OSM    C4F11244   5.798   1.997  10.467  0.2027  0.0544  0.4525
  109OSM    H4F11245   5.899   2.009  10.512 -0.1937  0.6672  1.2020
  109OSM    H4G11246   5.739   2.090  10.485  0.9576  0.7556 -0.6410
  109OSM    C5F11247   5.820   1.970  10.317 -0.6018 -0.5065 -0.4054
  109OSM    H5F11248   5.735   1.923  10.261 -1.1462 -0.6702  0.5454
  109OSM    H5G11249   5.907   1.903  10.303 -0.3125 -0.1582 -0.2665
  109OSM    C6F11250   5.855   2.100  10.243 -0.0369 -0.0239  0.5844
  109OSM    H6F11251   5.964   2.122  10.244 -0.3154  1.6331 -1.1705
  109OSM    H6G11252   5.800   2.180  10.297 -0.1661  0.3131 -0.0431
  109OSM    C7F11253   5.816   2.096  10.092 -0.0670 -0.5740 -0.3742
  109OSM    H7F11254   5.706   2.104  10.079  0.0837 -0.3345 -1.6315
  109OSM    H7G11255   5.863   2.008  10.042  0.0698 -1.0978  0.6744
  109OSM    C8F11256   5.875   2.225  10.028 -0.3673 -0.2199 -0.4663
  109OSM    H8F11257   5.866   2.215   9.918 -0.7539  0.7323 -0.5248
  109OSM    H8G11258   5.985   2.235  10.041 -0.5842  2.0232 -0.1397
  109OSM    C9F11259   5.819   2.358  10.069  0.4538  0.4311 -0.2249
  109OSM    H9F11260   5.804   2.378  10.176  0.0972 -1.5209  0.1168
  109OSM   C10F11261   5.813   2.463   9.984  0.5491  0.7142  0.6406
  109OSM   H10F11262   5.765   2.554  10.024 -0.6803 -0.4674  1.9418
  109OSM   C11F11263   5.860   2.466   9.834  0.2484 -0.5479  0.0647
  109OSM   H11F11264   5.773   2.504   9.777 -0.4399  0.4165  1.7233
  109OSM   H11G11265   5.874   2.366   9.788  0.0881 -0.7901  0.5381
  109OSM   C12F11266   5.976   2.564   9.807  0.7010  0.2132 -0.1969
  109OSM   H12F11267   6.024   2.606   9.897 -0.2358  1.9877 -0.5062
  109OSM   H12G11268   5.925   2.641   9.745 -2.2681 -1.6225 -0.1489
  109OSM   C13F11269   6.090   2.509   9.720 -0.1983  0.6479  0.1438
  109OSM   H13F11270   6.033   2.440   9.655  1.8274 -1.3021  0.3873
  109OSM   H13G11271   6.173   2.447   9.760 -1.2239  0.2610  1.7081
  109OSM   C14F11272   6.150   2.619   9.635 -0.5366 -0.8422 -0.1621
  109OSM   H14F11273   6.205   2.682   9.709 -1.8558 -1.5709  1.4833
  109OSM   H14G11274   6.073   2.690   9.599  2.3068  2.6969  0.3901
  109OSM   C15F11275   6.248   2.577   9.522 -0.5205 -0.5008 -0.3703
  109OSM   H15F11276   6.203   2.497   9.458 -0.9861 -0.9337  0.4805
  109OSM   H15G11277   6.337   2.533   9.572 -0.4465  0.3040  0.2146
  109OSM   C16F11278   6.293   2.685   9.427 -0.2307 -0.2570  0.3090
  109OSM   H16F11279   6.387   2.660   9.374 -0.6425 -1.3350  0.0697
  109OSM   H16G11280   6.313   2.779   9.483 -1.5516  0.4844 -0.4263
  109OSM   C17F11281   6.180   2.710   9.320 -0.4788  0.3209 -0.4427
  109OSM   H17F11282   6.222   2.789   9.255 -1.1865  0.8862 -0.2229
  109OSM   H17G11283   6.095   2.740   9.386 -1.3944 -1.7713 -0.6300
  109OSM   C18F11284   6.132   2.596   9.236 -0.0371 -0.2142 -0.0944
  109OSM   H18F11285   6.051   2.636   9.172 -0.3701 -1.9979 -0.8038
  109OSM   H18G11286   6.088   2.512   9.294  1.8851 -0.1520  1.4993
  109OSM   H18H11287   6.215   2.572   9.167  0.5413 -0.6470  0.7378
  110OSM      N11288   6.403   6.675  11.157 -0.3878  0.0336  0.0612
  110OSM    C1511289   6.411   6.575  11.270 -0.2743  0.1421 -1.1782
  110OSM   H15A11290   6.359   6.618  11.355  2.7610 -0.5148  1.0803
  110OSM   H15B11291   6.512   6.557  11.302  0.4065  2.4857 -1.8892
  110OSM   H15C11292   6.356   6.487  11.240  1.0294 -0.8627 -0.6293
  110OSM    C1411293   6.259   6.674  11.111 -0.9097 -0.1358  0.0898
  110OSM   H14A11294   6.244   6.749  11.034  1.1503 -0.4970 -0.6994
  110OSM   H14B11295   6.200   6.705  11.195  0.0626  1.6693  0.1436
  110OSM   H14C11296   6.229   6.574  11.085  0.3162  0.0947 -2.4169
  110OSM    C1311297   6.442   6.813  11.210  0.2688  1.3353 -0.4271
  110OSM   H13A11298   6.548   6.824  11.230  0.0895 -0.6540  1.9213
  110OSM   H13B11299   6.385   6.843  11.297  3.1222  0.8575  1.7060
  110OSM   H13C11300   6.424   6.893  11.140  1.6902 -0.3663 -2.8100
  110OSM    C1211301   6.479   6.624  11.039  0.5237  0.0723 -0.5108
  110OSM   H12A11302   6.434   6.536  10.996 -1.3859  1.4081 -1.3108
  110OSM   H12B11303   6.582   6.594  11.054  0.6461  0.4738 -0.5203
  110OSM    C1111304   6.492   6.713  10.913 -0.0265 -0.8124 -0.8077
  110OSM   H11A11305   6.391   6.743  10.874 -0.1344  1.3026  1.0108
  110OSM   H11B11306   6.536   6.650  10.833  0.1810  0.0709 -1.3993
  110OSM      P11307   6.723   6.810  10.973 -0.4252  0.0712  0.4503
  110OSM    O1311308   6.751   6.859  11.109 -0.3408 -0.3337  0.0632
  110OSM    O1411309   6.774   6.672  10.955 -0.0639 -0.3133  0.1377
  110OSM    O1111310   6.793   6.902  10.865 -0.5370  0.0364 -0.1690
  110OSM    O1211311   6.570   6.833  10.930  1.2505 -0.4215 -0.2499
  110OSM    C1S11312   6.779   6.853  10.735 -0.6049  0.3279  0.7127
  110OSM    H1S11313   6.675   6.829  10.707 -0.7500 -0.7381  2.0881
  110OSM    H1T11314   6.843   6.763  10.721 -4.0021 -2.0776  0.1827
  110OSM     NF11315   6.798   6.921  10.492  0.4211  0.3452  0.0821
  110OSM    HNF11316   6.870   6.887  10.432  0.4347 -1.1070  0.9105
  110OSM    C2S11317   6.829   6.966  10.627 -0.4392 -0.0461  0.2743
  110OSM    H2S11318   6.769   7.059  10.643 -2.3606 -1.3770  1.0718
  110OSM    C3S11319   6.973   6.996  10.650 -0.3385 -0.1161 -0.0637
  110OSM    H3S11320   7.032   6.904  10.671  0.7614  0.7415  0.6371
  110OSM     O311321   6.984   7.065  10.772 -0.0920  0.0761  0.4193
  110OSM    HO311322   6.918   7.026  10.830  0.5213 -1.5935  0.0183
  110OSM    C4S11323   7.037   7.070  10.541 -0.3228  0.0185 -0.0651
  110OSM    H4S11324   7.080   6.999  10.468 -0.2385  0.3142 -0.3025
  110OSM    C5S11325   7.052   7.204  10.525  0.4036 -0.1304 -0.1951
  110OSM    H5S11326   7.023   7.275  10.604 -2.6041 -0.3193 -1.0942
  110OSM    C6S11327   7.117   7.268  10.402 -0.3916  0.0243  0.4650
  110OSM    H6S11328   7.191   7.345  10.433  1.1648 -1.8063  1.3564
  110OSM    H6T11329   7.038   7.328  10.351 -1.4931 -1.9746 -0.2069
  110OSM    C7S11330   7.179   7.180  10.292 -0.1427 -0.0822  0.1550
  110OSM    H7S11331   7.243   7.106  10.344 -0.6907 -0.5027  0.2389
  110OSM    H7T11332   7.243   7.237  10.222 -1.9439  1.1590 -0.5218
  110OSM    C8S11333   7.084   7.100  10.208 -0.3577  0.3570  0.9713
  110OSM    H8S11334   7.019   7.171  10.152  0.2121  1.3708  1.5911
  110OSM    H8T11335   7.017   7.032  10.266  2.9168 -3.3968  0.5541
  110OSM    C9S11336   7.158   7.026  10.096  0.2347 -0.1533 -0.2633
  110OSM    H9S11337   7.192   6.926  10.131  0.0827 -0.2638 -0.4343
  110OSM    H9T11338   7.242   7.091  10.063  0.3671 -0.0066  0.3459
  110OSM   C10S11339   7.099   7.001   9.952  0.1728  0.0839  0.5426
  110OSM   H10S11340   7.184   6.991   9.882 -0.8779  4.1811 -1.4880
  110OSM   H10T11341   7.059   7.096   9.910  0.5714  0.7419  1.6391
  110OSM   C11S11342   7.005   6.879   9.950 -0.2679  0.0937  0.0022
  110OSM   H11S11343   6.927   6.895  10.027  1.3840  3.0520  1.1179
  110OSM   H11T11344   7.059   6.783   9.967 -1.0952 -0.4104 -0.1371
  110OSM   C12S11345   6.933   6.883   9.816  0.4785  0.3118  0.0734
  110OSM   H12S11346   6.869   6.974   9.819  0.9472  0.5780  5.5413
  110OSM   H12T11347   6.865   6.795   9.818  0.2769  0.4743  0.3090
  110OSM   C13S11348   7.023   6.875   9.695  0.0899 -0.4656 -0.3331
  110OSM   H13S11349   7.098   6.794   9.712  0.2835 -0.4715 -1.1988
  110OSM   H13T11350   7.087   6.965   9.686  0.1346 -0.5126 -0.4884
  110OSM   C14S11351   6.946   6.861   9.565 -0.1663  0.6376 -0.3771
  110OSM   H14S11352   6.888   6.953   9.546 -1.2410  0.1242  0.3644
  110OSM   H14T11353   6.877   6.775   9.583  0.5815  0.2449  0.7682
  110OSM   C15S11354   7.034   6.841   9.448  0.1037 -0.0690  0.3956
  110OSM   H15S11355   7.048   6.731   9.435 -0.5228 -0.0130 -0.7945
  110OSM   H15T11356   7.138   6.880   9.458 -0.0890  0.6567 -0.4332
  110OSM   C16S11357   6.983   6.897   9.316  0.3034 -0.4511 -0.3056
  110OSM   H16S11358   6.993   7.007   9.305  1.1368 -0.2057  2.4594
  110OSM   H16T11359   6.876   6.869   9.315 -0.3934  2.0571 -2.7110
  110OSM   C17S11360   7.044   6.827   9.193  0.3266 -0.0707 -0.6769
  110OSM   H17S11361   7.089   6.729   9.219  0.6296 -0.0430 -1.0920
  110OSM   H17T11362   7.131   6.883   9.152  1.1681 -1.0755 -0.2925
  110OSM   C18S11363   6.944   6.799   9.076  0.1095 -0.2456 -0.3231
  110OSM   H18S11364   6.913   6.894   9.027 -0.8768 -2.2466 -3.7626
  110OSM   H18T11365   6.846   6.763   9.112  0.5579 -0.6864  0.4747
  110OSM   H18U11366   6.989   6.728   9.003 -1.9415 -1.2029 -0.6765
  110OSM    C1F11367   6.673   6.917  10.448 -0.2734  0.5643 -0.4716
  110OSM     OF11368   6.583   6.970  10.517  0.1237  0.1764 -0.4296
  110OSM    C2F11369   6.659   6.859  10.307  0.2005 -0.4937  0.6742
  110OSM    H2F11370   6.677   6.749  10.306  0.7943 -0.4922  4.2638
  110OSM    H2G11371   6.737   6.908  10.246 -0.3316  1.3169  1.4166
  110OSM    C3F11372   6.521   6.888  10.251 -0.5927  0.0801 -0.5963
  110OSM    H3F11373   6.495   6.996  10.242 -3.1368 -0.4689 -0.2378
  110OSM    H3G11374   6.446   6.842  10.319  0.4638  0.9732  1.2269
  110OSM    C4F11375   6.493   6.823  10.114  0.2659 -0.2672  0.4980
  110OSM    H4F11376   6.383   6.811  10.103 -0.2222  1.4140  3.1910
  110OSM    H4G11377   6.548   6.729  10.091  1.1701 -0.3519  2.9229
  110OSM    C5F11378   6.534   6.929  10.012  0.0943 -0.5225 -0.1250
  110OSM    H5F11379   6.645   6.930  10.015  0.1484  1.9410 -1.8577
  110OSM    H5G11380   6.490   7.028  10.034  2.2129  0.4772 -0.2561
  110OSM    C6F11381   6.489   6.892   9.867  0.6374  0.8041  0.7437
  110OSM    H6F11382   6.379   6.874   9.866  0.7427  0.1599 -0.6423
  110OSM    H6G11383   6.528   6.789   9.855 -1.2467  0.1802 -0.1834
  110OSM    C7F11384   6.532   6.984   9.757 -0.1123  0.8774 -0.3324
  110OSM    H7F11385   6.643   6.970   9.752 -0.2249 -1.0342  1.7237
  110OSM    H7G11386   6.519   7.093   9.778 -1.4473  1.0039 -1.7411
  110OSM    C8F11387   6.457   6.962   9.619 -0.2452  0.6510 -0.2987
  110OSM    H8F11388   6.479   7.058   9.568  0.9608  1.2285  1.2662
  110OSM    H8G11389   6.349   6.966   9.645 -0.0863 -0.8591  0.6492
  110OSM    C9F11390   6.493   6.851   9.525 -0.7307 -0.0565 -0.2198
  110OSM    H9F11391   6.503   6.750   9.567 -2.2914  0.2956  1.0173
  110OSM   C10F11392   6.505   6.858   9.392  0.7420 -0.9521  0.2727
  110OSM   H10F11393   6.547   6.773   9.337 -0.8834 -1.7323  0.2172
  110OSM   C11F11394   6.488   6.980   9.299 -0.1379  0.0010 -0.9494
  110OSM   H11F11395   6.452   7.070   9.353 -0.0037 -0.5141 -0.0036
  110OSM   H11G11396   6.408   6.952   9.227  1.4149 -2.6177 -1.7223
  110OSM   C12F11397   6.622   7.027   9.229  0.0021 -0.2096 -0.3693
  110OSM   H12F11398   6.672   6.944   9.175 -0.1879  0.4259 -1.5215
  110OSM   H12G11399   6.690   7.056   9.313 -0.1852 -0.9910  0.0568
  110OSM   C13F11400   6.597   7.152   9.136  0.1432  0.3120 -0.1581
  110OSM   H13F11401   6.679   7.212   9.090 -2.5274  2.5492 -2.1543
  110OSM   H13G11402   6.544   7.232   9.192 -0.1557  0.8449 -1.1872
  110OSM   C14F11403   6.511   7.112   9.014  0.4780  0.2016 -0.6203
  110OSM   H14F11404   6.416   7.058   9.036  0.3751  1.3364  1.8194
  110OSM   H14G11405   6.571   7.045   8.948  2.2479 -1.0346  2.1419
  110OSM   C15F11406   6.469   7.237   8.939 -0.0257  0.2373 -0.3702
  110OSM   H15F11407   6.555   7.303   8.914  0.1343 -1.0669 -3.5197
  110OSM   H15G11408   6.421   7.299   9.018  1.1244 -0.8614  1.1986
  110OSM   C16F11409   6.375   7.214   8.820  0.4351  0.4526 -0.7401
  110OSM   H16F11410   6.319   7.119   8.831  2.9499 -0.9815  0.0674
  110OSM   H16G11411   6.437   7.194   8.730  0.5991 -3.0525  0.0931
  110OSM   C17F11412   6.298   7.342   8.792  0.2469 -0.6477 -0.4176
  110OSM   H17F11413   6.353   7.438   8.791 -1.7365  0.4994 -1.2536
  110OSM   H17G11414   6.223   7.347   8.874  1.7009  0.7345  0.8800
  110OSM   C18F11415   6.218   7.327   8.662  0.3744  0.2380 -0.1842
  110OSM   H18F11416   6.280   7.316   8.570 -1.3499 -2.5115 -1.0672
  110OSM   H18G11417   6.147   7.412   8.652 -0.1629 -0.5458 -3.7081
  110OSM   H18H11418   6.147   7.242   8.663  0.4908  0.1360  1.6310
  111OSM      N11419   0.524   4.734  10.684 -0.7426  0.7524 -0.7636
  111OSM    C1511420   0.584   4.743  10.820 -0.4902  1.0531  0.1094
  111OSM   H15A11421   0.593   4.844  10.856 -0.1494  1.4483 -1.1022
  111OSM   H15B11422   0.682   4.698  10.821 -1.9128 -2.1998  0.3675
  111OSM   H15C11423   0.518   4.686  10.886  0.3982 -0.3637 -0.2003
  111OSM    C1411424   0.448   4.608  10.660  0.3977  0.3674  0.2768
  111OSM   H14A11425   0.393   4.607  10.568  0.2029 -1.1147  0.3914
  111OSM   H14B11426   0.375   4.594  10.738  1.6520  0.4315  1.5028
  111OSM   H14C11427   0.514   4.523  10.644 -0.7811 -0.5518  0.2348
  111OSM    C1311428   0.423   4.847  10.664  0.1160 -0.2901 -0.2124
  111OSM   H13A11429   0.341   4.828  10.732  1.6367 -3.8210  0.7654
  111OSM   H13B11430   0.381   4.859  10.565 -2.7390 -0.8476  0.8628
  111OSM   H13C11431   0.464   4.944  10.686 -0.0191 -0.1901 -0.4006
  111OSM    C1211432   0.630   4.754  10.582 -0.2409 -0.7472  0.2257
  111OSM   H12A11433   0.660   4.858  10.586 -1.2327 -0.4007 -1.0228
  111OSM   H12B11434   0.597   4.745  10.480 -0.8649 -0.0994  0.3709
  111OSM    C1111435   0.757   4.666  10.590 -0.4213 -0.1695  0.1884
  111OSM   H11A11436   0.816   4.656  10.497  3.0047 -2.1201  2.4309
  111OSM   H11B11437   0.727   4.567  10.631  0.7728 -0.1779  1.0585
  111OSM      P11438   0.921   4.867  10.663  0.1278 -0.4581  0.6102
  111OSM    O1311439   0.980   4.926  10.788 -0.0507  0.2391 -0.0483
  111OSM    O1411440   1.010   4.863  10.549 -0.2554  0.7054 -0.3475
  111OSM    O1111441   0.799   4.960  10.623  0.4693  0.8009  0.4494
  111OSM    O1211442   0.847   4.713  10.688 -0.0129 -0.6127  0.1633
  111OSM    C1S11443   0.805   5.103  10.639  0.6019  0.1723  0.4285
  111OSM    H1S11444   0.876   5.141  10.716  2.0732 -0.5576 -0.5410
  111OSM    H1T11445   0.713   5.131  10.694  1.1889  1.8082  0.6205
  111OSM     NF11446   0.824   5.315  10.531  0.3840  0.1758 -0.6296
  111OSM    HNF11447   0.740   5.362  10.508  1.5672  2.0691 -1.1501
  111OSM    C2S11448   0.839   5.176  10.507 -0.4433  0.7072 -0.7231
  111OSM    H2S11449   0.945   5.152  10.483 -0.7077 -0.9616 -0.3353
  111OSM    C3S11450   0.759   5.107  10.390 -0.1076  0.5745  1.0912
  111OSM    H3S11451   0.656   5.098  10.431 -0.5618 -1.1329 -0.3312
  111OSM     O311452   0.803   4.977  10.355 -0.0863 -0.2495 -0.2814
  111OSM    HO311453   0.857   4.946  10.428 -0.2491  1.5029  0.6073
  111OSM    C4S11454   0.757   5.207  10.275  0.4524  0.5482  0.1533
  111OSM    H4S11455   0.668   5.271  10.284 -1.6543 -2.2941  0.3091
  111OSM    C5S11456   0.841   5.229  10.170  0.1851 -0.0666 -0.0147
  111OSM    H5S11457   0.926   5.160  10.160  0.4697  0.1756  0.7013
  111OSM    C6S11458   0.826   5.336  10.062 -0.3502  0.7830  0.0238
  111OSM    H6S11459   0.913   5.405  10.066  0.8458 -0.7041  0.6480
  111OSM    H6T11460   0.739   5.401  10.084 -0.3736  1.1359 -1.0834
  111OSM    C7S11461   0.830   5.290   9.912  0.2356 -0.3135 -0.0724
  111OSM    H7S11462   0.759   5.207   9.894  1.2502 -1.5892  1.5866
  111OSM    H7T11463   0.932   5.249   9.897  1.0337  2.5035 -2.8936
  111OSM    C8S11464   0.802   5.407   9.820  0.1266 -0.1876  0.5240
  111OSM    H8S11465   0.888   5.477   9.821  0.9392 -1.1702  0.0184
  111OSM    H8T11466   0.713   5.458   9.862  0.5746 -0.1309  1.4052
  111OSM    C9S11467   0.776   5.348   9.684 -0.5024 -0.0412  0.0574
  111OSM    H9S11468   0.694   5.274   9.681 -0.8623  0.3698 -4.1112
  111OSM    H9T11469   0.866   5.286   9.664  0.8072  1.7818  0.1430
  111OSM   C10S11470   0.767   5.445   9.567  0.2540  0.4268 -0.2744
  111OSM   H10S11471   0.857   5.508   9.554 -1.2239  3.0088  1.5649
  111OSM   H10T11472   0.683   5.517   9.579  0.0397  0.0339  0.6429
  111OSM   C11S11473   0.740   5.362   9.443 -0.3481 -0.1930  0.1530
  111OSM   H11S11474   0.639   5.318   9.454 -1.5188  2.3423 -0.1893
  111OSM   H11T11475   0.815   5.281   9.440 -0.0145  0.1223 -0.1926
  111OSM   C12S11476   0.744   5.453   9.322 -0.1598  0.2675  0.1305
  111OSM   H12S11477   0.847   5.492   9.310 -0.2418  0.7138  0.8839
  111OSM   H12T11478   0.671   5.536   9.333  2.1466  2.4343 -0.3687
  111OSM   C13S11479   0.706   5.379   9.192 -0.2143 -0.7262  0.8272
  111OSM   H13S11480   0.598   5.357   9.203  0.0854 -2.9805 -0.4513
  111OSM   H13T11481   0.778   5.295   9.187  2.4822  1.4530  1.1207
  111OSM   C14S11482   0.718   5.466   9.061  0.5112 -0.3322  0.2450
  111OSM   H14S11483   0.816   5.518   9.060  0.9188 -1.1099 -0.2474
  111OSM   H14T11484   0.659   5.560   9.056  1.8942  0.5240 -0.1636
  111OSM   C15S11485   0.697   5.392   8.931  0.3574  0.1892 -0.0847
  111OSM   H15S11486   0.601   5.336   8.932  0.5922 -0.2171  0.9781
  111OSM   H15T11487   0.787   5.327   8.917  1.1988  1.3622 -0.1837
  111OSM   C16S11488   0.685   5.479   8.799 -0.2026 -1.1618 -0.4139
  111OSM   H16S11489   0.755   5.565   8.794 -0.8310 -0.7095 -1.5998
  111OSM   H16T11490   0.583   5.523   8.798  1.1818  2.4718  3.0780
  111OSM   C17S11491   0.704   5.393   8.668 -0.7723  0.3970  0.0390
  111OSM   H17S11492   0.811   5.367   8.685 -0.5538 -0.1217 -1.9932
  111OSM   H17T11493   0.699   5.451   8.573  0.3643  1.2404  0.4753
  111OSM   C18S11494   0.611   5.275   8.659  0.4909  0.6119 -0.6819
  111OSM   H18S11495   0.587   5.241   8.556  1.5165 -1.7962 -0.1746
  111OSM   H18T11496   0.518   5.302   8.714  1.5876 -1.3614  2.2698
  111OSM   H18U11497   0.664   5.199   8.720 -1.4375  0.6645  1.1279
  111OSM    C1F11498   0.899   5.387  10.616  0.1407 -0.4702 -1.2601
  111OSM     OF11499   0.986   5.343  10.685 -0.1670  0.2437 -0.3314
  111OSM    C2F11500   0.867   5.531  10.638 -0.3985  0.2386  0.2718
  111OSM    H2F11501   0.874   5.542  10.748 -1.9886  0.8881  0.3140
  111OSM    H2G11502   0.763   5.554  10.606 -1.5934 -2.1804  2.2984
  111OSM    C3F11503   0.965   5.624  10.561  0.7163 -0.0803 -0.5960
  111OSM    H3F11504   1.067   5.616  10.605 -0.6078  1.8075  2.9076
  111OSM    H3G11505   0.927   5.719  10.601  1.7701 -0.8873  2.4558
  111OSM    C4F11506   0.955   5.597  10.409  0.5668  0.4815  0.3102
  111OSM    H4F11507   0.849   5.573  10.390  0.5725  2.0279 -1.8271
  111OSM    H4G11508   1.025   5.516  10.379  0.3853  1.0885 -1.7975
  111OSM    C5F11509   0.989   5.717  10.317  0.4599 -0.4657  0.8254
  111OSM    H5F11510   1.088   5.764  10.337  0.9573 -1.1473  0.0208
  111OSM    H5G11511   0.921   5.798  10.349 -0.7169 -0.9654 -0.3722
  111OSM    C6F11512   0.979   5.683  10.171 -0.1993 -0.5699  0.0730
  111OSM    H6F11513   0.870   5.666  10.158 -0.2068  1.0471 -2.3256
  111OSM    H6G11514   1.034   5.588  10.156  0.9106  0.0080  0.4312
  111OSM    C7F11515   1.028   5.793  10.076  0.1557 -0.0187 -0.8202
  111OSM    H7F11516   1.115   5.844  10.121  0.4318 -1.3608  0.2020
  111OSM    H7G11517   0.956   5.877  10.089  1.3328  1.4517 -3.4401
  111OSM    C8F11518   1.036   5.768   9.928 -0.1967 -1.1421  0.3340
  111OSM    H8F11519   0.946   5.711   9.897 -1.1161  0.1848  0.4904
  111OSM    H8G11520   1.108   5.688   9.903  1.7576  0.6631  0.0065
  111OSM    C9F11521   1.062   5.880   9.835  0.4074  0.0250 -0.0003
  111OSM    H9F11522   1.076   5.977   9.885  1.9996  0.3930 -1.1316
  111OSM   C10F11523   1.059   5.862   9.701  0.7406  0.2613  0.0890
  111OSM   H10F11524   1.083   5.948   9.637 -2.4635  1.3171  0.2017
  111OSM   C11F11525   1.044   5.738   9.630 -0.3418  0.0884 -0.2814
  111OSM   H11F11526   0.936   5.717   9.612 -0.4310  1.0757 -0.9455
  111OSM   H11G11527   1.086   5.658   9.694 -1.3254 -0.0399  0.2202
  111OSM   C12F11528   1.121   5.738   9.497  0.0973 -0.5292 -0.4015
  111OSM   H12F11529   1.130   5.633   9.462 -0.7937 -0.9092  0.4877
  111OSM   H12G11530   1.225   5.777   9.506  0.1137 -0.3832 -1.1962
  111OSM   C13F11531   1.038   5.809   9.392 -0.4570  0.4230 -0.3979
  111OSM   H13F11532   1.022   5.918   9.410 -1.5432  0.2066  0.0066
  111OSM   H13G11533   0.936   5.766   9.400  0.0278 -0.5500  0.7455
  111OSM   C14F11534   1.092   5.802   9.249  0.7497 -0.0074 -0.0208
  111OSM   H14F11535   1.124   5.697   9.231  0.1511 -0.0837 -0.6424
  111OSM   H14G11536   1.181   5.867   9.239  0.5352  0.1203 -1.2549
  111OSM   C15F11537   0.990   5.844   9.141 -0.2151 -0.3030  0.1945
  111OSM   H15F11538   0.939   5.936   9.177  0.6934  0.5757 -0.7319
  111OSM   H15G11539   0.909   5.768   9.145 -1.5640  1.0805 -0.2875
  111OSM   C16F11540   1.051   5.848   8.996  0.0355  0.1792 -0.5057
  111OSM   H16F11541   1.153   5.805   8.986  0.3819 -0.0312  3.2854
  111OSM   H16G11542   1.072   5.955   8.975 -0.1129  0.2371 -0.3594
  111OSM   C17F11543   0.954   5.784   8.896  0.0528  0.3910 -0.0150
  111OSM   H17F11544   0.846   5.808   8.906 -0.1780 -0.8530  0.6300
  111OSM   H17G11545   0.964   5.674   8.884 -1.8473  0.4157 -2.0751
  111OSM   C18F11546   0.973   5.829   8.750 -0.0913  0.0895 -0.3339
  111OSM   H18F11547   0.958   5.938   8.738 -2.3795 -0.2770 -0.9583
  111OSM   H18G11548   0.898   5.771   8.693 -0.4656 -0.9095  1.1396
  111OSM   H18H11549   1.073   5.809   8.705 -0.5237 -3.0779  0.0219
  112OSM      N11550   6.015   3.396  11.137 -1.0135  0.1782 -0.6926
  112OSM    C1511551   6.134   3.425  11.229  0.2772  0.2926 -0.6164
  112OSM   H15A11552   6.188   3.496  11.168 -0.2786 -1.7915 -3.6809
  112OSM   H15B11553   6.186   3.333  11.253 -0.6624 -0.2309 -0.5754
  112OSM   H15C11554   6.095   3.473  11.317 -0.6395  0.1590 -0.9501
  112OSM    C1411555   5.916   3.303  11.200 -0.1506  0.4577  0.0390
  112OSM   H14A11556   5.874   3.353  11.286  0.5973  0.5999  0.3207
  112OSM   H14B11557   5.957   3.205  11.221  2.2844  0.7172 -3.1866
  112OSM   H14C11558   5.833   3.281  11.134 -0.5338  0.5167  0.4955
  112OSM    C1311559   5.931   3.520  11.115  1.1784 -0.1195  0.4414
  112OSM   H13A11560   5.840   3.498  11.061 -0.8826  3.1772  2.4081
  112OSM   H13B11561   5.980   3.584  11.042  0.8899 -0.2824  0.1053
  112OSM   H13C11562   5.918   3.575  11.207  0.3290  1.2086 -0.4559
  112OSM    C1211563   6.070   3.344  11.006 -0.1848  0.3401  0.0532
  112OSM   H12A11564   5.988   3.314  10.943 -0.4780  2.2824 -0.5125
  112OSM   H12B11565   6.125   3.252  11.023 -0.0159  0.2556 -0.9610
  112OSM    C1111566   6.161   3.439  10.928  0.3147  0.1942 -0.3187
  112OSM   H11A11567   6.243   3.479  10.991 -2.0529  0.2393  2.9202
  112OSM   H11B11568   6.097   3.519  10.886  0.5269 -0.2510 -1.4903
  112OSM      P11569   6.355   3.286  10.823 -0.5408 -0.3015 -0.1155
  112OSM    O1311570   6.449   3.394  10.792  0.1206 -0.0493 -0.3099
  112OSM    O1411571   6.375   3.205  10.943 -0.6187  0.4209  0.6064
  112OSM    O1111572   6.350   3.190  10.694 -0.3503  0.2212  0.5689
  112OSM    O1211573   6.211   3.350  10.823  0.3514 -0.4981 -0.3418
  112OSM    C1S11574   6.275   3.234  10.580 -0.0757  0.2676 -0.6542
  112OSM    H1S11575   6.273   3.343  10.562 -0.8343  0.2034 -1.0155
  112OSM    H1T11576   6.168   3.206  10.593  0.9957 -2.4098  3.4171
  112OSM     NF11577   6.198   3.184  10.353  0.5173  0.5014 -0.2167
  112OSM    HNF11578   6.147   3.109  10.311 -0.6006  0.2673  1.5125
  112OSM    C2S11579   6.309   3.166  10.450  0.7622  0.7777  0.1466
  112OSM    H2S11580   6.393   3.224  10.406 -0.5863  1.3179 -1.7946
  112OSM    C3S11581   6.347   3.022  10.476 -0.4984  0.4127  0.3188
  112OSM    H3S11582   6.268   2.973  10.538  0.5775  1.1460  2.3041
  112OSM     O311583   6.463   2.990  10.554  0.2445  0.0683  0.3589
  112OSM    HO311584   6.482   3.076  10.593 -3.4931  1.2063 -0.0698
  112OSM    C4S11585   6.377   2.957  10.343  0.7326 -0.2126  0.4736
  112OSM    H4S11586   6.473   2.980  10.294  0.1601 -0.5299 -0.7939
  112OSM    C5S11587   6.305   2.864  10.278 -0.5694  0.2525  0.0668
  112OSM    H5S11588   6.206   2.841  10.320 -0.9268  2.5697  0.5262
  112OSM    C6S11589   6.334   2.804  10.144  0.5432  0.1828  0.6377
  112OSM    H6S11590   6.239   2.784  10.090 -0.2061  2.9853  0.8081
  112OSM    H6T11591   6.362   2.698  10.162 -0.6687 -0.4872 -1.2631
  112OSM    C7S11592   6.441   2.872  10.054  0.1814 -0.2451 -0.2072
  112OSM    H7S11593   6.540   2.885  10.104  0.7097  3.5724 -2.0199
  112OSM    H7T11594   6.415   2.980  10.043  0.2432 -0.2551 -0.4579
  112OSM    C8S11595   6.461   2.806   9.914 -0.6510 -0.2530 -0.1828
  112OSM    H8S11596   6.372   2.821   9.849  0.8743 -1.4411 -2.6300
  112OSM    H8T11597   6.471   2.698   9.937 -1.0558  0.2647  2.6064
  112OSM    C9S11598   6.571   2.874   9.827 -0.6845  0.0476  0.2563
  112OSM    H9S11599   6.669   2.877   9.880 -0.7285  1.4105  0.2667
  112OSM    H9T11600   6.547   2.980   9.803 -4.3809 -0.5809  0.8705
  112OSM   C10S11601   6.592   2.797   9.695  0.4927 -0.6721  0.3914
  112OSM   H10S11602   6.495   2.792   9.640  0.2821 -0.8138  0.7750
  112OSM   H10T11603   6.620   2.693   9.722  0.5936 -0.7997 -0.2039
  112OSM   C11S11604   6.694   2.864   9.610 -0.2916 -0.2823  0.1576
  112OSM   H11S11605   6.791   2.873   9.662 -0.2739 -1.7870  0.4102
  112OSM   H11T11606   6.661   2.967   9.584  2.2907  0.3805 -0.6147
  112OSM   C12S11607   6.722   2.797   9.475 -0.0645  0.8919  0.4929
  112OSM   H12S11608   6.727   2.686   9.480 -3.1011  0.6935 -0.2347
  112OSM   H12T11609   6.812   2.838   9.424 -0.5865 -0.5813 -1.6728
  112OSM   C13S11610   6.613   2.849   9.382  1.0628 -0.8083 -0.2016
  112OSM   H13S11611   6.632   2.954   9.354  0.5193 -1.2085 -2.1709
  112OSM   H13T11612   6.519   2.854   9.442  1.3959 -0.0705  0.2638
  112OSM   C14S11613   6.617   2.766   9.250 -0.1175 -0.1247  0.0919
  112OSM   H14S11614   6.576   2.666   9.277  0.9888 -0.1832  1.6116
  112OSM   H14T11615   6.718   2.743   9.211  0.1685  1.5325 -0.1925
  112OSM   C15S11616   6.545   2.833   9.133 -0.6032 -0.0801  0.3748
  112OSM   H15S11617   6.583   2.937   9.128  0.0366 -0.2937  0.7521
  112OSM   H15T11618   6.437   2.846   9.158 -0.9625 -0.4322 -0.9523
  112OSM   C16S11619   6.565   2.767   8.994 -0.1915 -0.2574 -0.6560
  112OSM   H16S11620   6.674   2.750   8.984  0.1936  0.7083  1.5930
  112OSM   H16T11621   6.547   2.830   8.904  0.6867 -1.4741 -1.6986
  112OSM   C17S11622   6.487   2.635   8.985 -0.4549  0.7751  0.2985
  112OSM   H17S11623   6.390   2.633   9.039 -0.7060  0.9120 -0.1506
  112OSM   H17T11624   6.542   2.561   9.047  0.6700 -1.6678 -3.4548
  112OSM   C18S11625   6.491   2.590   8.839 -0.4878  0.2830 -0.7354
  112OSM   H18S11626   6.587   2.612   8.788 -0.7207  1.0651 -0.8468
  112OSM   H18T11627   6.409   2.636   8.781 -2.3460 -3.6592 -1.4405
  112OSM   H18U11628   6.479   2.480   8.827 -1.7635  0.2972  0.3220
  112OSM    C1F11629   6.149   3.298  10.322  0.6344  0.6792 -0.6178
  112OSM     OF11630   6.215   3.397  10.345 -0.1073  0.4477 -0.0691
  112OSM    C2F11631   6.012   3.307  10.260 -0.2295  0.0908  0.1027
  112OSM    H2F11632   5.944   3.264  10.336 -0.7528  0.8756  0.0813
  112OSM    H2G11633   6.019   3.248  10.166  2.0262 -1.7327  1.3597
  112OSM    C3F11634   5.972   3.449  10.224 -1.0727 -0.2273 -0.4375
  112OSM    H3F11635   6.052   3.507  10.173 -0.9162 -1.1105 -1.2101
  112OSM    H3G11636   5.949   3.498  10.321 -0.3689  0.9644 -0.8603
  112OSM    C4F11637   5.842   3.462  10.138 -0.1665  0.4658  0.3851
  112OSM    H4F11638   5.804   3.566  10.150  0.8315  1.0948 -1.7339
  112OSM    H4G11639   5.761   3.405  10.187  1.1558 -0.4308  1.5647
  112OSM    C5F11640   5.868   3.421   9.994 -0.3603  0.4042  0.1182
  112OSM    H5F11641   5.903   3.316   9.980  1.4455  1.3532 -3.3402
  112OSM    H5G11642   5.944   3.485   9.944 -0.9713  1.1382  0.1373
  112OSM    C6F11643   5.741   3.429   9.901 -0.1371 -0.6972  1.2617
  112OSM    H6F11644   5.721   3.537   9.889  0.3561 -0.7863 -0.4409
  112OSM    H6G11645   5.649   3.387   9.947 -0.0117 -1.6914  0.6236
  112OSM    C7F11646   5.754   3.380   9.761 -0.1415 -0.4941 -0.1497
  112OSM    H7F11647   5.797   3.278   9.752 -0.4443 -0.5317 -1.2292
  112OSM    H7G11648   5.823   3.449   9.708  1.3768 -1.2567  0.8006
  112OSM    C8F11649   5.616   3.371   9.692 -0.4381 -0.5992  0.2669
  112OSM    H8F11650   5.558   3.308   9.763 -1.0479 -0.2600  0.0687
  112OSM    H8G11651   5.632   3.325   9.592 -1.7928  0.9878 -0.7192
  112OSM    C9F11652   5.540   3.497   9.668  0.5256 -0.1310 -0.6113
  112OSM    H9F11653   5.490   3.544   9.754  3.2812  1.4889  0.1723
  112OSM   C10F11654   5.519   3.557   9.551  0.8846 -0.4525  1.3935
  112OSM   H10F11655   5.478   3.659   9.561  0.8338 -0.2455 -0.6640
  112OSM   C11F11656   5.557   3.512   9.412  0.1545  0.2904 -0.2020
  112OSM   H11F11657   5.485   3.437   9.372  1.5638 -1.1747 -0.0879
  112OSM   H11G11658   5.658   3.465   9.421  0.6832  1.8549  2.2135
  112OSM   C12F11659   5.575   3.633   9.322  0.4081 -0.1098 -0.0254
  112OSM   H12F11660   5.659   3.698   9.357 -1.9560  2.2388  1.4393
  112OSM   H12G11661   5.487   3.700   9.331  0.1008 -0.5857  0.5413
  112OSM   C13F11662   5.592   3.586   9.173 -0.6073  0.7064  0.1637
  112OSM   H13F11663   5.539   3.490   9.151  0.5608 -0.5388  2.6180
  112OSM   H13G11664   5.698   3.572   9.145 -0.2623 -0.4919  2.0053
  112OSM   C14F11665   5.542   3.694   9.070  0.1172 -0.0223 -0.1921
  112OSM   H14F11666   5.612   3.780   9.076 -0.2754  0.3579 -1.0480
  112OSM   H14G11667   5.444   3.714   9.118  0.0446 -1.1362  0.1302
  112OSM   C15F11668   5.508   3.650   8.927  0.3215  0.2754  0.9781
  112OSM   H15F11669   5.448   3.557   8.939  0.5156 -0.2086 -1.5049
  112OSM   H15G11670   5.597   3.637   8.861  0.7169 -3.5721  2.1223
  112OSM   C16F11671   5.419   3.755   8.845 -0.8925 -0.1506  0.3314
  112OSM   H16F11672   5.441   3.729   8.739  0.2476 -1.6772  0.9171
  112OSM   H16G11673   5.444   3.862   8.862 -0.6862 -0.4532  2.0530
  112OSM   C17F11674   5.261   3.731   8.877  1.0432  0.2149  0.3340
  112OSM   H17F11675   5.239   3.747   8.985 -0.0387 -2.3740  0.5414
  112OSM   H17G11676   5.223   3.631   8.847 -0.4924  0.7596  0.4588
  112OSM   C18F11677   5.170   3.829   8.796  0.0639 -0.5545 -0.0251
  112OSM   H18F11678   5.066   3.822   8.832 -0.0066 -0.6820 -0.2548
  112OSM   H18G11679   5.179   3.808   8.687 -0.1359 -2.9372  0.4008
  112OSM   H18H11680   5.199   3.933   8.823 -1.4819 -0.1272  0.0223
  113OSM      N11681   0.087   1.476  11.048 -0.8390  0.1479  0.3177
  113OSM    C1511682   0.054   1.538  11.180 -0.5497 -0.0358  0.0611
  113OSM   H15A11683  -0.036   1.506  11.230 -0.0263  0.8692  1.6241
  113OSM   H15B11684   0.069   1.645  11.188 -0.0858 -0.1373  0.5483
  113OSM   H15C11685   0.137   1.506  11.242 -0.8046  2.8118  2.0025
  113OSM    C1411686   0.083   1.326  11.066  0.6496 -0.1144  0.4765
  113OSM   H14A11687   0.108   1.286  10.969  1.2020  1.0926  0.1175
  113OSM   H14B11688  -0.020   1.305  11.090 -0.0755  0.7604 -1.7096
  113OSM   H14C11689   0.162   1.292  11.133 -0.9706 -3.2599  0.8864
  113OSM    C1311690  -0.033   1.500  10.963  0.0459  0.0920  0.3966
  113OSM   H13A11691  -0.045   1.602  10.932 -0.6483 -0.8698 -2.6355
  113OSM   H13B11692  -0.125   1.468  11.010  0.2137 -0.7923  0.1359
  113OSM   H13C11693  -0.029   1.447  10.869 -1.9044  0.9089 -0.1535
  113OSM    C1211694   0.211   1.524  10.981 -0.2081 -0.3491 -0.4564
  113OSM   H12A11695   0.219   1.474  10.886 -1.6718 -2.4295  0.4641
  113OSM   H12B11696   0.294   1.488  11.040 -1.9447 -3.4014  0.2443
  113OSM    C1111697   0.236   1.678  10.957  0.0700  0.3439  0.6404
  113OSM   H11A11698   0.147   1.718  10.904 -0.3294 -2.4458 -0.9115
  113OSM   H11B11699   0.321   1.690  10.887 -1.3972  1.1732 -1.0225
  113OSM      P11700   0.292   1.905  11.065  0.6521  0.1104  0.4528
  113OSM    O1311701   0.206   1.971  11.170 -0.4903  0.2004  0.3445
  113OSM    O1411702   0.438   1.920  11.069 -0.7512  0.4451  0.2202
  113OSM    O1111703   0.242   1.951  10.918 -0.1995 -0.1347  0.5827
  113OSM    O1211704   0.258   1.750  11.076  0.1912 -0.1008  0.0699
  113OSM    C1S11705   0.336   1.955  10.811  0.7541  0.7862 -0.6884
  113OSM    H1S11706   0.356   1.853  10.771  3.5370  0.6850  0.8401
  113OSM    H1T11707   0.439   1.990  10.835  1.4651 -0.1716 -2.2297
  113OSM     NF11708   0.341   1.996  10.565  0.1087  0.5776  0.2230
  113OSM    HNF11709   0.419   2.049  10.532  0.3103 -0.8541 -1.6839
  113OSM    C2S11710   0.282   2.044  10.691 -0.3757  0.3791 -0.0999
  113OSM    H2S11711   0.173   2.029  10.681 -0.1177 -1.7362  0.0673
  113OSM    C3S11712   0.308   2.195  10.726 -0.3175 -0.7987 -0.3414
  113OSM    H3S11713   0.419   2.200  10.733 -0.2721 -3.3678  1.3167
  113OSM     O311714   0.253   2.240  10.848 -0.2883  0.5341 -0.4086
  113OSM    HO311715   0.237   2.151  10.880 -1.2773  0.4719 -1.0893
  113OSM    C4S11716   0.257   2.282  10.622  0.2094  0.3020 -0.2213
  113OSM    H4S11717   0.150   2.262  10.605  0.5898 -1.6503 -0.4616
  113OSM    C5S11718   0.322   2.388  10.563 -0.4365  0.2004  0.6477
  113OSM    H5S11719   0.422   2.412  10.602  0.7135 -3.8182  0.3973
  113OSM    C6S11720   0.277   2.486  10.459  0.0972  0.4320 -0.1091
  113OSM    H6S11721   0.262   2.582  10.512 -2.7294  0.2863 -0.5651
  113OSM    H6T11722   0.173   2.469  10.424  0.3553 -0.6971 -0.3500
  113OSM    C7S11723   0.370   2.508  10.344  0.2932 -0.5237 -0.3524
  113OSM    H7S11724   0.473   2.540  10.372 -0.1563  0.8142 -0.1742
  113OSM    H7T11725   0.335   2.595  10.285  1.4410  0.6964  0.7164
  113OSM    C8S11726   0.381   2.394  10.243 -0.4977 -0.0954  0.1688
  113OSM    H8S11727   0.283   2.384  10.193  0.2612 -2.2901 -0.9602
  113OSM    H8T11728   0.411   2.299  10.292 -2.4635 -1.7219 -1.6976
  113OSM    C9S11729   0.502   2.411  10.146  0.7720 -1.0138  0.1738
  113OSM    H9S11730   0.595   2.433  10.202  1.0616 -0.4043 -0.5264
  113OSM    H9T11731   0.482   2.506  10.090  0.7893 -2.1929 -1.8757
  113OSM   C10S11732   0.521   2.286  10.057 -0.6847 -0.0887  0.3147
  113OSM   H10S11733   0.419   2.253  10.028 -1.5566  0.4621  2.6108
  113OSM   H10T11734   0.568   2.204  10.115  0.2132  0.3792  0.2544
  113OSM   C11S11735   0.613   2.308   9.931  0.1749 -0.1455 -0.2201
  113OSM   H11S11736   0.660   2.213   9.899 -0.2432 -0.0549 -1.1126
  113OSM   H11T11737   0.695   2.377   9.961  1.2000 -1.4488 -0.0088
  113OSM   C12S11738   0.532   2.371   9.816  0.0853 -0.6308  0.3518
  113OSM   H12S11739   0.474   2.458   9.854 -1.9389 -0.9278 -1.9628
  113OSM   H12T11740   0.459   2.295   9.780 -0.1986  0.5350 -1.5845
  113OSM   C13S11741   0.628   2.397   9.699  0.0713 -0.2063 -0.0617
  113OSM   H13S11742   0.692   2.308   9.683  0.3825  0.2299 -1.2851
  113OSM   H13T11743   0.687   2.485   9.733  2.1699 -1.9770  1.0546
  113OSM   C14S11744   0.560   2.435   9.563 -0.4893 -0.4056  0.9340
  113OSM   H14S11745   0.470   2.497   9.582 -1.5710 -2.0332  1.2758
  113OSM   H14T11746   0.529   2.335   9.527 -0.4818  0.5160 -1.7002
  113OSM   C15S11747   0.654   2.488   9.449  1.0152 -0.4541 -0.1131
  113OSM   H15S11748   0.745   2.424   9.445  1.1496 -0.2597 -0.1540
  113OSM   H15T11749   0.687   2.593   9.467  1.1585 -0.4005 -0.6831
  113OSM   C16S11750   0.581   2.483   9.313 -0.2021  0.5457  0.6940
  113OSM   H16S11751   0.507   2.566   9.316  0.8617  1.5397  0.0013
  113OSM   H16T11752   0.526   2.386   9.315 -0.6051  0.7818  2.3426
  113OSM   C17S11753   0.662   2.510   9.180  0.5031  0.4308 -0.0338
  113OSM   H17S11754   0.692   2.616   9.185 -0.2529  0.6069  1.1680
  113OSM   H17T11755   0.594   2.497   9.092  1.8799  2.2039 -1.3743
  113OSM   C18S11756   0.783   2.424   9.157  0.1446  0.4542 -0.2042
  113OSM   H18S11757   0.851   2.426   9.245  1.0879 -0.1138 -0.9089
  113OSM   H18T11758   0.838   2.460   9.067 -1.1870  3.3973  0.0913
  113OSM   H18U11759   0.751   2.319   9.148 -1.4726  0.8991  0.2349
  113OSM    C1F11760   0.307   1.878  10.504  0.8190  0.0266 -0.2660
  113OSM     OF11761   0.247   1.790  10.565 -0.0327 -0.3156  0.6943
  113OSM    C2F11762   0.351   1.861  10.363 -0.4969 -0.4621  0.3431
  113OSM    H2F11763   0.423   1.777  10.369  0.8718  0.6745  0.1702
  113OSM    H2G11764   0.406   1.950  10.325 -1.4835 -0.3362 -0.8252
  113OSM    C3F11765   0.235   1.827  10.265 -0.2488  0.5092  0.3245
  113OSM    H3F11766   0.161   1.910  10.270 -0.1547  0.6265 -0.1587
  113OSM    H3G11767   0.183   1.731  10.285 -2.0733  1.3989 -0.1299
  113OSM    C4F11768   0.295   1.815  10.121  0.1585  0.8218 -0.1835
  113OSM    H4F11769   0.219   1.761  10.062 -0.3107  0.0466  1.1219
  113OSM    H4G11770   0.384   1.749  10.128 -0.8067 -0.3878  0.9564
  113OSM    C5F11771   0.311   1.951  10.050 -0.2333 -0.8144  0.5528
  113OSM    H5F11772   0.369   2.022  10.113  0.0730  0.9858 -1.7010
  113OSM    H5G11773   0.210   1.995  10.042  0.0524 -0.3957 -0.9670
  113OSM    C6F11774   0.369   1.951   9.905  0.4503  0.0924 -0.4556
  113OSM    H6F11775   0.362   2.053   9.860  0.9937 -0.1944 -1.2097
  113OSM    H6G11776   0.306   1.891   9.836  0.6209  0.9940 -1.4153
  113OSM    C7F11777   0.511   1.894   9.901  0.0257 -0.8388  0.0601
  113OSM    H7F11778   0.502   1.785   9.919  1.0062 -0.8400  0.6116
  113OSM    H7G11779   0.568   1.931   9.989  0.6984  0.8555 -1.0672
  113OSM    C8F11780   0.577   1.932   9.767  0.3428  0.5379 -0.1390
  113OSM    H8F11781   0.684   1.901   9.769  0.3631  0.5009 -1.1195
  113OSM    H8G11782   0.573   2.042   9.754  1.7881  0.6240  0.0160
  113OSM    C9F11783   0.519   1.860   9.654 -0.3402  0.5077  0.2430
  113OSM    H9F11784   0.525   1.751   9.666 -2.2349  0.2871 -0.5920
  113OSM   C10F11785   0.450   1.907   9.546  0.9278 -0.3816 -0.2853
  113OSM   H10F11786   0.390   1.841   9.481 -0.9927  1.8795 -0.9013
  113OSM   C11F11787   0.423   2.053   9.509 -0.1644 -0.2311 -0.3099
  113OSM   H11F11788   0.493   2.123   9.560 -1.4186  1.0649 -0.3210
  113OSM   H11G11789   0.324   2.078   9.554  0.3120  0.6521  0.2629
  113OSM   C12F11790   0.419   2.073   9.364 -0.0772 -0.5059  0.1046
  113OSM   H12F11791   0.387   2.175   9.336 -0.5056 -0.4269  0.8836
  113OSM   H12G11792   0.351   1.994   9.325 -0.6823  0.2649 -0.4143
  113OSM   C13F11793   0.553   2.049   9.292  0.3751  0.2383  0.1978
  113OSM   H13F11794   0.593   1.947   9.307 -1.6390 -0.4748  0.8845
  113OSM   H13G11795   0.625   2.122   9.336 -0.6088  1.6679 -0.5142
  113OSM   C14F11796   0.546   2.081   9.146 -0.0795 -0.0218  0.5390
  113OSM   H14F11797   0.643   2.059   9.096 -0.1688  0.3593  0.1924
  113OSM   H14G11798   0.522   2.187   9.123 -1.2772  0.1449  2.4573
  113OSM   C15F11799   0.444   1.988   9.079 -1.2965  0.0997 -0.6700
  113OSM   H15F11800   0.350   2.006   9.134  0.4792 -2.6096  3.4910
  113OSM   H15G11801   0.469   1.880   9.090 -0.4105  0.2772 -0.8981
  113OSM   C16F11802   0.426   2.025   8.928  0.3174 -0.3235  0.7560
  113OSM   H16F11803   0.386   2.129   8.922  2.0529  0.5066  2.7661
  113OSM   H16G11804   0.349   1.955   8.890  2.9611 -2.8090 -0.2084
  113OSM   C17F11805   0.548   2.018   8.835  0.3767 -0.1220  0.0046
  113OSM   H17F11806   0.611   2.100   8.877  0.7111  0.8400 -2.3030
  113OSM   H17G11807   0.517   2.052   8.734 -0.8521 -1.1177  0.0479
  113OSM   C18F11808   0.609   1.878   8.822 -0.3176 -0.0142 -0.4948
  113OSM   H18F11809   0.673   1.875   8.732 -0.5507 -2.3637 -0.6136
  113OSM   H18G11810   0.532   1.799   8.805  0.3093 -1.3475  2.4468
  113OSM   H18H11811   0.664   1.861   8.918 -0.7998  2.9741  0.3373
  114OSM      N11812   0.905   0.695  11.298  0.2880 -1.0943  0.1619
  114OSM    C1511813   0.934   0.592  11.403  0.7369  0.9500  0.6041
  114OSM   H15A11814   0.849   0.546  11.452 -0.4020  1.1589 -1.1255
  114OSM   H15B11815   1.006   0.631  11.473 -0.6205  1.5603  1.6731
  114OSM   H15C11816   0.998   0.512  11.368  1.7305  1.3756  1.4144
  114OSM    C1411817   1.033   0.758  11.250  0.5091 -0.5880  0.1411
  114OSM   H14A11818   1.014   0.831  11.173 -0.0092 -0.1558  0.6632
  114OSM   H14B11819   1.100   0.690  11.200  1.8079  0.8513 -0.0746
  114OSM   H14C11820   1.072   0.827  11.323  2.4219 -0.6780 -0.7898
  114OSM    C1311821   0.841   0.626  11.183  0.2464  0.2830  0.2358
  114OSM   H13A11822   0.904   0.546  11.146  0.5965 -0.4306  2.2768
  114OSM   H13B11823   0.810   0.703  11.115 -0.5800 -0.2217  0.0352
  114OSM   H13C11824   0.745   0.584  11.211  0.6980  1.3997  3.8023
  114OSM    C1211825   0.810   0.789  11.361 -0.2728 -0.3193  0.6252
  114OSM   H12A11826   0.721   0.738  11.395 -0.0226  0.8444  3.0854
  114OSM   H12B11827   0.777   0.860  11.287  0.8538 -0.0639  0.3594
  114OSM    C1111828   0.861   0.868  11.479  0.0505 -0.4093  0.6687
  114OSM   H11A11829   0.886   0.802  11.565  1.2703 -1.2567 -0.3184
  114OSM   H11B11830   0.780   0.937  11.511  0.3122  0.9609 -1.5239
  114OSM      P11831   0.960   1.109  11.398 -0.2214 -0.3730  0.1512
  114OSM    O1311832   0.889   1.182  11.501 -0.4860 -0.1731  0.1801
  114OSM    O1411833   1.101   1.165  11.369 -0.1098  0.2435  0.3353
  114OSM    O1111834   0.872   1.091  11.270  0.1673  0.7151 -0.1937
  114OSM    O1211835   0.969   0.956  11.443 -0.3459  0.0044 -0.7345
  114OSM    C1S11836   0.928   1.093  11.130  0.2236 -0.3270 -0.3654
  114OSM    H1S11837   1.036   1.067  11.132 -0.2140 -2.2216 -0.6870
  114OSM    H1T11838   0.916   1.198  11.095  0.8517  0.2297  1.0709
  114OSM     NF11839   0.912   1.005  10.889  0.1736  0.6335  0.1720
  114OSM    HNF11840   0.855   1.044  10.818 -0.7168  0.2700  0.6788
  114OSM    C2S11841   0.857   0.996  11.028 -0.0860  0.1327  0.7777
  114OSM    H2S11842   0.871   0.894  11.068  0.1028  0.3838  1.3541
  114OSM    C3S11843   0.709   1.037  11.038  0.1500 -0.0067  0.6813
  114OSM    H3S11844   0.705   1.148  11.037  2.8197  0.1343  1.7208
  114OSM     O311845   0.649   1.005  11.165  0.6855 -0.0767  0.0408
  114OSM    HO311846   0.707   1.036  11.234 -0.1786 -3.9675  2.6974
  114OSM    C4S11847   0.627   0.971  10.927 -0.1330  0.8152  0.0374
  114OSM    H4S11848   0.611   0.863  10.940  0.6947  0.8641  1.5727
  114OSM    C5S11849   0.573   1.034  10.821  0.5458  0.1320 -0.6229
  114OSM    H5S11850   0.582   1.142  10.836  1.8758  0.0323 -0.6262
  114OSM    C6S11851   0.487   0.978  10.709  1.2872  0.1818 -0.0519
  114OSM    H6S11852   0.408   1.053  10.688 -0.1345 -0.3024  3.2720
  114OSM    H6T11853   0.443   0.884  10.748  1.8539  0.4137  1.1888
  114OSM    C7S11854   0.575   0.945  10.588 -0.3124 -1.2337 -0.4880
  114OSM    H7S11855   0.650   0.870  10.618  1.1649 -0.0344 -1.1273
  114OSM    H7T11856   0.638   1.031  10.556  0.3489 -1.9297 -1.0806
  114OSM    C8S11857   0.483   0.893  10.480  0.0764 -0.8012  0.7891
  114OSM    H8S11858   0.431   0.979  10.433  0.8992 -1.2201 -0.8830
  114OSM    H8T11859   0.400   0.833  10.525  1.2528 -0.2229  3.8782
  114OSM    C9S11860   0.545   0.811  10.368  1.0128  0.4991 -0.2778
  114OSM    H9S11861   0.594   0.720  10.409 -2.8901 -1.8526 -0.5214
  114OSM    H9T11862   0.621   0.875  10.320  2.5702 -1.9616 -1.2170
  114OSM   C10S11863   0.451   0.776  10.253  0.7644  0.1414  0.1734
  114OSM   H10S11864   0.410   0.867  10.204 -0.9873 -0.2663  0.8613
  114OSM   H10T11865   0.372   0.720  10.307  1.0089 -1.4321 -1.0627
  114OSM   C11S11866   0.507   0.676  10.141 -0.5276  0.0053 -0.5168
  114OSM   H11S11867   0.539   0.582  10.192  4.1294  1.6757 -0.1029
  114OSM   H11T11868   0.596   0.731  10.102  1.3259 -1.5049  1.4263
  114OSM   C12S11869   0.397   0.645  10.033  0.6401  0.1646 -0.2636
  114OSM   H12S11870   0.357   0.743  10.001 -0.9569 -1.1090 -2.2758
  114OSM   H12T11871   0.304   0.598  10.071 -0.1468 -0.1256 -2.5020
  114OSM   C13S11872   0.445   0.564   9.907  0.8260 -0.3575 -0.2190
  114OSM   H13S11873   0.490   0.468   9.940  2.0263 -0.0164 -0.8330
  114OSM   H13T11874   0.541   0.606   9.872 -0.2787  0.9556 -1.7330
  114OSM   C14S11875   0.349   0.556   9.789 -0.6749  0.0815 -0.7304
  114OSM   H14S11876   0.306   0.657   9.771  0.7480  1.0767  1.3370
  114OSM   H14T11877   0.260   0.491   9.807 -1.0144  0.0803 -2.3628
  114OSM   C15S11878   0.406   0.508   9.655  0.1277  0.2320 -0.0444
  114OSM   H15S11879   0.467   0.415   9.666 -0.7876 -0.3811 -0.0520
  114OSM   H15T11880   0.464   0.590   9.609 -1.2186  1.6051  0.6590
  114OSM   C16S11881   0.286   0.460   9.557  0.0224 -0.5297 -0.5780
  114OSM   H16S11882   0.227   0.375   9.598 -3.1115  2.0025  0.4748
  114OSM   H16T11883   0.331   0.430   9.460 -2.2396  0.7612 -2.0709
  114OSM   C17S11884   0.192   0.574   9.520 -0.6659  0.5205 -0.1363
  114OSM   H17S11885   0.244   0.670   9.500 -1.3019  0.7690 -0.6118
  114OSM   H17T11886   0.128   0.589   9.609  1.6724  0.3504  1.6076
  114OSM   C18S11887   0.109   0.539   9.404 -0.1275  0.2934 -0.2102
  114OSM   H18S11888   0.027   0.465   9.418 -0.9971  0.8272 -2.2490
  114OSM   H18T11889   0.176   0.497   9.326 -0.7824  1.0387 -1.1888
  114OSM   H18U11890   0.074   0.634   9.358 -1.0627  0.8640  1.6125
  114OSM    C1F11891   1.039   0.972  10.872  0.2754 -0.3966 -0.3657
  114OSM     OF11892   1.102   0.912  10.956 -0.3685 -0.0535  0.0248
  114OSM    C2F11893   1.104   1.022  10.750 -0.2887  0.1602  0.2910
  114OSM    H2F11894   1.125   1.125  10.785  1.2393  0.0253 -0.2167
  114OSM    H2G11895   1.035   1.024  10.663  2.1527  1.3235 -1.6862
  114OSM    C3F11896   1.233   0.950  10.721 -0.3116 -0.0393  0.6650
  114OSM    H3F11897   1.223   0.841  10.702 -1.6940  0.0510  0.8536
  114OSM    H3G11898   1.308   0.957  10.803  0.1002 -2.0478  0.4976
  114OSM    C4F11899   1.316   1.010  10.604  0.0059  0.7563  0.8799
  114OSM    H4F11900   1.371   1.103  10.633 -3.2072  2.9361  0.2237
  114OSM    H4G11901   1.246   1.041  10.523 -2.1314 -0.7735  2.1051
  114OSM    C5F11902   1.410   0.905  10.540  0.4092  0.0249  0.5069
  114OSM    H5F11903   1.351   0.823  10.494 -0.7129  0.5014  1.0537
  114OSM    H5G11904   1.493   0.874  10.606 -0.5762 -0.0091  1.7575
  114OSM    C6F11905   1.501   0.960  10.423  0.5419  0.5894 -0.4363
  114OSM    H6F11906   1.576   0.883  10.395 -0.8776 -0.3837 -1.6116
  114OSM    H6G11907   1.564   1.042  10.462 -1.0480  1.8933 -0.5489
  114OSM    C7F11908   1.431   1.006  10.302  0.0805 -0.1454  0.2055
  114OSM    H7F11909   1.418   1.116  10.314  1.1922  0.2130 -1.6457
  114OSM    H7G11910   1.334   0.952  10.301  0.7406 -1.3406 -0.1552
  114OSM    C8F11911   1.517   0.982  10.174  0.1296  0.0374 -0.2132
  114OSM    H8F11912   1.606   1.045  10.195  3.2935 -3.5643 -2.2118
  114OSM    H8G11913   1.460   1.033  10.093  1.2580 -0.6059 -1.4182
  114OSM    C9F11914   1.552   0.833  10.144 -1.2237 -0.2834 -0.7495
  114OSM    H9F11915   1.483   0.756  10.179 -1.1839 -0.4808 -1.1065
  114OSM   C10F11916   1.655   0.790  10.070 -0.5913 -0.8906 -0.2293
  114OSM   H10F11917   1.669   0.681  10.061 -2.6244 -1.0793 -1.4340
  114OSM   C11F11918   1.758   0.879  10.004 -0.2130 -0.2102 -0.1602
  114OSM   H11F11919   1.844   0.816   9.972 -0.8082 -0.1789 -1.9092
  114OSM   H11G11920   1.803   0.940  10.085 -0.0983 -1.2892  0.6015
  114OSM   C12F11921   1.718   0.983   9.900  0.8514 -0.0341  0.1931
  114OSM   H12F11922   1.814   1.027   9.868 -0.1689  0.8161 -1.7700
  114OSM   H12G11923   1.649   1.059   9.943  1.1234  2.0212 -2.8922
  114OSM   C13F11924   1.658   0.914   9.781 -0.2156  0.7373  0.2110
  114OSM   H13F11925   1.571   0.855   9.818  0.6295 -1.0397 -0.5789
  114OSM   H13G11926   1.731   0.842   9.739 -3.8223 -2.9590 -0.0979
  114OSM   C14F11927   1.618   1.010   9.667 -0.1300 -0.5397 -0.6011
  114OSM   H14F11928   1.702   1.033   9.598 -0.0051 -1.5333 -0.7881
  114OSM   H14G11929   1.576   1.107   9.704 -1.8355 -0.9911 -1.2779
  114OSM   C15F11930   1.510   0.941   9.569  0.0656 -1.2161 -0.1729
  114OSM   H15F11931   1.499   1.000   9.475 -0.8872 -0.9806  0.0742
  114OSM   H15G11932   1.413   0.929   9.622 -0.3760 -3.4336 -1.4628
  114OSM   C16F11933   1.546   0.798   9.533  0.7145 -0.1791 -0.3852
  114OSM   H16F11934   1.533   0.737   9.625 -0.8011  1.0105  0.2075
  114OSM   H16G11935   1.654   0.790   9.505  0.6157  0.1244 -0.8693
  114OSM   C17F11936   1.462   0.735   9.419 -0.2905 -1.0051  0.8531
  114OSM   H17F11937   1.355   0.727   9.446 -0.3386  4.3415  2.8448
  114OSM   H17G11938   1.492   0.628   9.419 -1.3281 -1.3364 -1.3983
  114OSM   C18F11939   1.478   0.799   9.279  0.1501  0.0380  0.2709
  114OSM   H18F11940   1.470   0.909   9.277  1.1619  0.0897 -3.0522
  114OSM   H18G11941   1.393   0.757   9.221 -0.2208 -1.1020  1.6085
  114OSM   H18H11942   1.577   0.777   9.233 -0.1852  3.6073 -2.2909
  115OSM      N11943   2.150   5.037   5.919  0.2546 -0.0996 -0.6177
  115OSM    C1511944   2.131   4.904   5.860  0.7029 -0.3374  0.1027
  115OSM   H15A11945   2.198   4.888   5.778 -1.2776 -0.3572 -1.5657
  115OSM   H15B11946   2.032   4.892   5.818  0.9873 -0.3794 -0.5606
  115OSM   H15C11947   2.141   4.824   5.932 -0.5255 -0.0157  0.6590
  115OSM    C1411948   2.140   5.134   5.805 -0.4438  0.5835  0.1332
  115OSM   H14A11949   2.036   5.143   5.776 -0.2933  1.3839 -0.1671
  115OSM   H14B11950   2.200   5.116   5.718  1.6804  0.5214  1.5859
  115OSM   H14C11951   2.165   5.231   5.844  4.3701 -1.1433  1.7134
  115OSM    C1311952   2.048   5.069   6.018 -0.6466  0.4837  0.2244
  115OSM   H13A11953   2.068   4.997   6.096  1.8393 -0.1163 -0.9383
  115OSM   H13B11954   1.948   5.046   5.983 -1.5887  2.1068  1.7781
  115OSM   H13C11955   2.055   5.171   6.053 -2.7541  0.2587  1.4062
  115OSM    C1211956   2.292   5.060   5.979 -0.3598 -0.9656  0.3677
  115OSM   H12A11957   2.286   5.161   6.018  0.2545 -0.8426  0.1408
  115OSM   H12B11958   2.364   5.053   5.899 -0.9219 -1.6636 -0.0814
  115OSM    C1111959   2.338   4.974   6.101 -0.5737  0.9697 -0.2339
  115OSM   H11A11960   2.374   4.876   6.062  1.4005  0.6639  2.2358
  115OSM   H11B11961   2.256   4.952   6.172  0.2928 -1.1327  0.1494
  115OSM      P11962   2.441   5.158   6.266 -0.4878 -0.0264  0.2663
  115OSM    O1311963   2.574   5.174   6.326 -0.3269 -0.7047  0.1780
  115OSM    O1411964   2.380   5.279   6.217 -0.2313 -0.1835 -0.0060
  115OSM    O1111965   2.347   5.091   6.366 -0.5237 -0.9156 -0.7388
  115OSM    O1211966   2.451   5.044   6.159  0.0601 -0.2809  0.4017
  115OSM    C1S11967   2.390   4.978   6.445 -0.0523 -0.2033  0.4039
  115OSM    H1S11968   2.494   4.944   6.427  0.0922  0.8792 -0.8263
  115OSM    H1T11969   2.323   4.891   6.425 -0.4803 -0.2039  1.7822
  115OSM     NF11970   2.430   4.920   6.689 -0.3653  0.3672  0.2312
  115OSM    HNF11971   2.375   4.889   6.766 -0.8239 -0.3530 -0.3724
  115OSM    C2S11972   2.378   5.018   6.596 -0.3531 -0.7083 -0.3155
  115OSM    H2S11973   2.425   5.117   6.614  0.2095 -1.3098  1.6828
  115OSM    C3S11974   2.229   5.048   6.633 -0.5715 -0.6850  0.1826
  115OSM    H3S11975   2.163   4.958   6.629  1.3552 -2.1474  0.2190
  115OSM     O311976   2.168   5.143   6.544 -0.0650  0.0274  0.1181
  115OSM    HO311977   2.226   5.143   6.467 -0.3696  0.5997 -0.1169
  115OSM    C4S11978   2.208   5.099   6.769 -0.5475  1.0357 -0.7858
  115OSM    H4S11979   2.282   5.173   6.802 -0.4349  0.3833  0.4346
  115OSM    C5S11980   2.108   5.066   6.851 -0.3171  0.4438  0.3546
  115OSM    H5S11981   2.038   4.983   6.831  0.6263 -0.3644  0.4128
  115OSM    C6S11982   2.101   5.130   6.989  0.1749  0.2927  0.0786
  115OSM    H6S11983   2.002   5.164   7.024  0.2172 -0.1571  0.6399
  115OSM    H6T11984   2.168   5.218   6.999  0.8636 -0.1721 -0.3584
  115OSM    C7S11985   2.152   5.027   7.086 -0.1731 -0.1080 -0.1683
  115OSM    H7S11986   2.250   4.993   7.048  0.3622  0.8380  0.3517
  115OSM    H7T11987   2.074   4.948   7.098 -0.8817  0.5628 -0.2877
  115OSM    C8S11988   2.178   5.090   7.222  0.2916  0.0642  0.2682
  115OSM    H8S11989   2.090   5.156   7.239  0.3657 -0.0558  1.1535
  115OSM    H8T11990   2.266   5.157   7.229  0.2945  0.2126 -1.0146
  115OSM    C9S11991   2.171   4.996   7.341  0.3598  0.0469  0.7917
  115OSM    H9S11992   2.257   4.926   7.336 -1.3138 -2.4085  4.2490
  115OSM    H9T11993   2.078   4.934   7.338 -0.3894  1.1765 -3.2660
  115OSM   C10S11994   2.179   5.074   7.471 -0.0380  0.4216  0.2344
  115OSM   H10S11995   2.092   5.142   7.483  0.5162  1.4688 -1.4644
  115OSM   H10T11996   2.273   5.132   7.484  0.0717  0.3205 -0.1308
  115OSM   C11S11997   2.165   4.981   7.590  0.3611 -0.5481  0.2477
  115OSM   H11S11998   2.248   4.909   7.576 -0.3820 -1.2004 -0.8916
  115OSM   H11T11999   2.073   4.921   7.608 -0.9135  0.3973 -2.7695
  115OSM   C12S12000   2.189   5.070   7.724 -0.0003  0.5757  0.9379
  115OSM   H12S12001   2.113   5.150   7.714 -0.8741 -0.6731 -3.3981
  115OSM   H12T12002   2.289   5.117   7.710  1.1390 -1.3798  2.2173
  115OSM   C13S12003   2.181   4.984   7.847 -0.8147 -0.3529 -0.2689
  115OSM   H13S12004   2.236   4.887   7.842  2.1984  1.3651 -1.3379
  115OSM   H13T12005   2.075   4.954   7.859 -0.6247 -0.3221  1.5164
  115OSM   C14S12006   2.211   5.064   7.978 -0.0874  0.0509  0.3086
  115OSM   H14S12007   2.144   5.152   7.990  0.4425  0.2323  1.9332
  115OSM   H14T12008   2.315   5.101   7.985  0.7549 -1.5062 -2.8589
  115OSM   C15S12009   2.186   4.982   8.103 -0.4967  0.6191 -0.3637
  115OSM   H15S12010   2.261   4.900   8.093 -0.1507  0.9862 -0.8265
  115OSM   H15T12011   2.087   4.932   8.095 -0.6262  0.4866  1.7378
  115OSM   C16S12012   2.214   5.059   8.230  0.0307  0.2059  0.5533
  115OSM   H16S12013   2.154   5.153   8.227 -1.0415 -0.5177 -4.1962
  115OSM   H16T12014   2.319   5.092   8.225  0.7041 -1.9738 -0.5315
  115OSM   C17S12015   2.179   4.991   8.358  0.2689  0.6100 -0.3357
  115OSM   H17S12016   2.226   4.891   8.362  0.9770  0.9623  0.2714
  115OSM   H17T12017   2.071   4.968   8.342  0.4440 -0.7611  0.4491
  115OSM   C18S12018   2.194   5.087   8.480  0.4584 -0.3459  0.3507
  115OSM   H18S12019   2.103   5.144   8.509  1.0086  0.0922  1.2643
  115OSM   H18T12020   2.279   5.157   8.462 -0.5736  0.3031 -2.1381
  115OSM   H18U12021   2.224   5.037   8.575 -0.1527  0.4798  0.9924
  115OSM    C1F12022   2.557   4.877   6.697  0.0987  0.2218  0.1536
  115OSM     OF12023   2.641   4.906   6.610 -0.1934 -0.2152  0.1589
  115OSM    C2F12024   2.594   4.807   6.831  0.2085  0.5920 -0.0070
  115OSM    H2F12025   2.555   4.703   6.827  3.1401 -0.7284  3.2155
  115OSM    H2G12026   2.553   4.872   6.911 -0.0101 -1.0816  1.2854
  115OSM    C3F12027   2.755   4.796   6.838  0.3247 -0.8062 -0.6016
  115OSM    H3F12028   2.796   4.895   6.811 -3.2701  1.2642  1.1434
  115OSM    H3G12029   2.790   4.722   6.763  0.2070 -0.7532 -0.7094
  115OSM    C4F12030   2.800   4.755   6.978 -0.0633 -0.4837  0.0791
  115OSM    H4F12031   2.750   4.658   7.000 -0.8026  0.1844  1.5001
  115OSM    H4G12032   2.759   4.832   7.047 -2.7246 -0.7525 -1.1467
  115OSM    C5F12033   2.952   4.754   7.014  0.0625  0.2792 -0.4158
  115OSM    H5F12034   2.990   4.857   6.995  2.3908 -0.7208 -1.3519
  115OSM    H5G12035   3.000   4.693   6.935  0.4595 -1.2363  0.9838
  115OSM    C6F12036   2.987   4.710   7.164  0.4193  0.3392  0.0426
  115OSM    H6F12037   2.996   4.599   7.165 -3.1211  0.0146  1.0287
  115OSM    H6G12038   2.902   4.746   7.226 -0.6395 -0.0521 -1.1622
  115OSM    C7F12039   3.117   4.761   7.230  0.3256  0.0243  0.5300
  115OSM    H7F12040   3.115   4.869   7.205  2.3209 -0.5838 -2.5260
  115OSM    H7G12041   3.206   4.725   7.173  0.6949  0.5818  0.7456
  115OSM    C8F12042   3.127   4.732   7.378 -0.3781  0.1198 -0.7083
  115OSM    H8F12043   3.029   4.764   7.420 -0.3082 -0.7058  0.0925
  115OSM    H8G12044   3.215   4.789   7.414  0.1013 -0.3734 -1.0919
  115OSM    C9F12045   3.141   4.587   7.414 -0.1796  0.0379  0.3599
  115OSM    H9F12046   3.147   4.514   7.333 -1.7490  1.4620 -1.0663
  115OSM   C10F12047   3.160   4.552   7.543  0.0538 -0.1137  0.4841
  115OSM   H10F12048   3.181   4.444   7.553  1.5857 -0.1027 -2.1861
  115OSM   C11F12049   3.178   4.630   7.673 -0.8008  0.7801  0.5128
  115OSM   H11F12050   3.099   4.595   7.743 -0.6816  0.2908  0.4041
  115OSM   H11G12051   3.161   4.737   7.646 -2.8932 -0.2759 -2.7774
  115OSM   C12F12052   3.305   4.625   7.760 -0.0431  0.2737 -0.1396
  115OSM   H12F12053   3.390   4.675   7.710 -0.6881  1.3147 -0.2218
  115OSM   H12G12054   3.329   4.517   7.767 -1.4777 -0.1993 -2.0542
  115OSM   C13F12055   3.299   4.673   7.903 -0.1636 -0.4073 -0.2690
  115OSM   H13F12056   3.230   4.619   7.971 -0.4624 -1.0425 -1.0773
  115OSM   H13G12057   3.252   4.772   7.885 -0.5454 -0.3846  0.7780
  115OSM   C14F12058   3.431   4.680   7.973 -0.1133  0.7637  0.2377
  115OSM   H14F12059   3.442   4.750   8.059 -0.0773  1.6544 -0.4903
  115OSM   H14G12060   3.501   4.717   7.895  0.6318  1.5388  1.2514
  115OSM   C15F12061   3.461   4.542   8.030  0.4740 -0.4146  0.2672
  115OSM   H15F12062   3.572   4.546   8.041  0.6192  1.3075 -1.6462
  115OSM   H15G12063   3.431   4.450   7.977  1.0138 -0.7192  0.4837
  115OSM   C16F12064   3.403   4.517   8.173  0.4494  0.0087 -0.5635
  115OSM   H16F12065   3.295   4.528   8.149  0.1357 -0.6204  0.5540
  115OSM   H16G12066   3.431   4.596   8.245 -1.8316 -1.0254  1.5353
  115OSM   C17F12067   3.434   4.383   8.239 -0.7671 -0.3276 -0.5219
  115OSM   H17F12068   3.543   4.378   8.259 -0.8884 -0.3554  0.1326
  115OSM   H17G12069   3.415   4.299   8.169 -1.5071 -2.3759  2.0374
  115OSM   C18F12070   3.346   4.352   8.365 -0.6847 -0.3224 -0.3312
  115OSM   H18F12071   3.365   4.429   8.443  3.0436 -2.1199  0.6525
  115OSM   H18G12072   3.380   4.252   8.400  0.1663  0.3143  0.6788
  115OSM   H18H12073   3.236   4.359   8.349 -0.5054 -1.1366 -2.0033
  116OSM      N12074   1.018   2.265   6.159  0.0006  0.4546 -0.1772
  116OSM    C1512075   1.014   2.281   6.309 -0.0286 -0.1341  0.8233
  116OSM   H15A12076   1.081   2.360   6.338 -1.6034  1.7503 -0.5900
  116OSM   H15B12077   1.038   2.190   6.362 -0.2295 -0.7300 -0.0891
  116OSM   H15C12078   0.918   2.316   6.341 -0.3605  1.0187 -1.3519
  116OSM    C1412079   0.968   2.130   6.130 -0.1763  0.2186  0.7487
  116OSM   H14A12080   0.863   2.132   6.154 -0.4986  0.9640 -0.6807
  116OSM   H14B12081   1.018   2.051   6.184  1.6493 -0.1399 -1.4131
  116OSM   H14C12082   0.971   2.114   6.023 -1.1787  0.7538  0.6387
  116OSM    C1312083   0.937   2.381   6.104  0.2406 -0.6842  0.7212
  116OSM   H13A12084   0.929   2.367   5.997  0.2710 -0.2231  0.6569
  116OSM   H13B12085   0.989   2.475   6.111 -1.8082  0.6443 -1.0180
  116OSM   H13C12086   0.844   2.399   6.157  0.3117 -0.4928  0.7809
  116OSM    C1212087   1.165   2.269   6.109  0.5860 -0.8193  0.2350
  116OSM   H12A12088   1.172   2.262   6.001  0.5990  1.6705  0.0301
  116OSM   H12B12089   1.212   2.177   6.137 -0.6887 -1.5554  0.0021
  116OSM    C1112090   1.239   2.400   6.144 -0.7780  0.9258 -0.3107
  116OSM   H11A12091   1.190   2.496   6.118 -1.0147  0.9629  0.2632
  116OSM   H11B12092   1.331   2.410   6.083 -0.9908  0.0390 -0.7832
  116OSM      P12093   1.399   2.352   6.349  0.2692 -0.1300  0.0464
  116OSM    O1312094   1.408   2.207   6.324 -0.1321 -0.3424 -0.1507
  116OSM    O1412095   1.517   2.434   6.302 -0.2427  0.7598 -0.4282
  116OSM    O1112096   1.358   2.389   6.494  0.4333 -0.6517 -0.3480
  116OSM    O1212097   1.267   2.406   6.283  0.1881 -0.0618 -0.5153
  116OSM    C1S12098   1.378   2.291   6.596  0.2642 -0.1633  0.1999
  116OSM    H1S12099   1.487   2.290   6.618  0.1382  1.1467  0.9941
  116OSM    H1T12100   1.339   2.192   6.565  0.6760 -0.2489 -0.0526
  116OSM     NF12101   1.363   2.244   6.847 -0.8039 -0.0542  0.0456
  116OSM    HNF12102   1.302   2.175   6.885 -0.8195  0.7936  1.6155
  116OSM    C2S12103   1.313   2.325   6.734 -0.7727  0.0742  0.3737
  116OSM    H2S12104   1.330   2.434   6.745 -0.1601  0.1217 -0.9992
  116OSM    C3S12105   1.157   2.308   6.722  0.0082 -0.2428 -0.1397
  116OSM    H3S12106   1.133   2.199   6.721  0.7592 -0.4102  0.0671
  116OSM     O312107   1.096   2.350   6.607  0.4750 -0.2578  0.2961
  116OSM    HO312108   1.168   2.358   6.545 -1.4074  0.3898 -1.8812
  116OSM    C4S12109   1.093   2.362   6.843  0.3276  0.7699 -0.1453
  116OSM    H4S12110   1.089   2.472   6.851 -0.4147  0.8109 -1.0169
  116OSM    C5S12111   1.033   2.293   6.938 -0.2519 -0.8479  0.2071
  116OSM    H5S12112   1.034   2.183   6.943  0.9253 -0.7849  1.3675
  116OSM    C6S12113   0.969   2.342   7.067  0.4445  0.1122 -1.0295
  116OSM    H6S12114   1.015   2.281   7.147 -0.7760  1.2186  0.5707
  116OSM    H6T12115   0.858   2.329   7.071  0.1992  2.0992 -0.5745
  116OSM    C7S12116   0.994   2.499   7.095  0.0265 -0.7974  0.7618
  116OSM    H7S12117   0.939   2.553   7.016  0.9686  1.3141  1.5092
  116OSM    H7T12118   1.102   2.526   7.091  0.6821 -3.6461 -2.1751
  116OSM    C8S12119   0.939   2.548   7.229  0.6451 -0.0404  0.2427
  116OSM    H8S12120   0.832   2.522   7.219  1.0850 -1.2961 -1.4934
  116OSM    H8T12121   0.951   2.658   7.229 -0.9189  0.1756 -1.9286
  116OSM    C9S12122   0.995   2.489   7.352 -0.3200  0.7407  0.3600
  116OSM    H9S12123   1.092   2.543   7.357  0.6658 -0.7285 -2.0188
  116OSM    H9T12124   1.030   2.385   7.334  0.9769  1.3298 -0.6209
  116OSM   C10S12125   0.905   2.508   7.472  0.5508 -0.5746  0.6720
  116OSM   H10S12126   0.819   2.439   7.466 -1.4723  1.8838  0.5882
  116OSM   H10T12127   0.880   2.616   7.480  2.6302 -0.0407  0.4431
  116OSM   C11S12128   0.993   2.473   7.599 -0.0385  0.1139  1.2605
  116OSM   H11S12129   1.087   2.531   7.594  1.1827 -1.5593  3.9339
  116OSM   H11T12130   1.005   2.363   7.597 -0.1129  0.1191 -1.1602
  116OSM   C12S12131   0.911   2.514   7.717  0.8277  0.7653 -0.3263
  116OSM   H12S12132   0.821   2.449   7.727  1.5503 -0.4406 -1.4438
  116OSM   H12T12133   0.891   2.621   7.694  1.0325  0.9233  0.2436
  116OSM   C13S12134   0.987   2.501   7.850 -0.2161  0.2115  0.0745
  116OSM   H13S12135   1.070   2.575   7.858 -1.0754  1.9187 -4.8441
  116OSM   H13T12136   1.025   2.399   7.871 -1.6656 -0.0186  1.6899
  116OSM   C14S12137   0.895   2.524   7.973 -0.1246 -0.1154  0.6164
  116OSM   H14S12138   0.811   2.452   7.971 -0.4229  0.2333  0.6144
  116OSM   H14T12139   0.865   2.631   7.977 -0.0742  0.0648 -2.6011
  116OSM   C15S12140   0.977   2.487   8.099 -0.2307 -0.4776 -0.0672
  116OSM   H15S12141   1.057   2.564   8.109 -0.7371 -0.1953  1.9550
  116OSM   H15T12142   1.035   2.394   8.083 -1.1851 -0.8373 -1.5470
  116OSM   C16S12143   0.892   2.476   8.226 -0.1872 -0.7081 -0.7288
  116OSM   H16S12144   0.946   2.450   8.320 -4.3642 -1.2181  1.6410
  116OSM   H16T12145   0.826   2.388   8.214  2.2910 -2.6690 -0.5668
  116OSM   C17S12146   0.806   2.605   8.240 -0.5910  0.4804  0.1948
  116OSM   H17S12147   0.761   2.578   8.338 -1.7351  0.8984 -0.2086
  116OSM   H17T12148   0.720   2.608   8.170  0.0241  0.4528 -0.5643
  116OSM   C18S12149   0.884   2.738   8.250  0.5861 -0.6620 -0.5138
  116OSM   H18S12150   0.931   2.752   8.150  3.4756  0.0394  0.8978
  116OSM   H18T12151   0.957   2.745   8.333 -2.1634 -0.5323  1.9566
  116OSM   H18U12152   0.820   2.828   8.260  2.4882  0.8872 -1.9511
  116OSM    C1F12153   1.483   2.257   6.901  0.0773 -0.5007 -0.1538
  116OSM     OF12154   1.562   2.345   6.860  0.0683  0.3340 -0.2656
  116OSM    C2F12155   1.524   2.161   7.005  0.2003  0.2345  0.2917
  116OSM    H2F12156   1.634   2.165   7.020  0.4616 -3.3679 -0.3194
  116OSM    H2G12157   1.494   2.059   6.974 -0.9186 -0.8607  4.5411
  116OSM    C3F12158   1.462   2.191   7.139 -0.0531  0.1696 -0.3247
  116OSM    H3F12159   1.480   2.109   7.211  0.4771  1.1370  0.6619
  116OSM    H3G12160   1.351   2.195   7.130  0.0084  1.1372 -0.7656
  116OSM    C4F12161   1.495   2.330   7.191 -0.3010 -0.1495  0.0881
  116OSM    H4F12162   1.477   2.403   7.110  0.5929  1.3904  1.2487
  116OSM    H4G12163   1.606   2.329   7.199 -0.1578 -0.5137 -1.7914
  116OSM    C5F12164   1.432   2.363   7.322  0.3216  0.1658 -0.1519
  116OSM    H5F12165   1.461   2.272   7.378  0.2121  0.9404  1.1798
  116OSM    H5G12166   1.321   2.371   7.319  0.2392 -0.0338  1.6049
  116OSM    C6F12167   1.484   2.492   7.400 -0.1324 -0.0079 -0.2001
  116OSM    H6F12168   1.488   2.585   7.338 -3.9315  0.5200  0.2586
  116OSM    H6G12169   1.586   2.471   7.439  0.0422 -1.7035 -1.5406
  116OSM    C7F12170   1.405   2.513   7.533  0.4860 -0.3180  0.6732
  116OSM    H7F12171   1.304   2.556   7.518  1.0352  0.5308 -0.7047
  116OSM    H7G12172   1.455   2.600   7.581  0.4319  0.7180 -1.0740
  116OSM    C8F12173   1.403   2.400   7.638  0.4238 -0.2634 -0.0017
  116OSM    H8F12174   1.510   2.374   7.653  0.3858 -1.6232 -1.9546
  116OSM    H8G12175   1.361   2.306   7.597 -0.3150 -0.1181  0.4214
  116OSM    C9F12176   1.320   2.438   7.757 -0.3924  0.2519 -0.2121
  116OSM    H9F12177   1.212   2.427   7.742 -0.8703  0.2962  2.7950
  116OSM   C10F12178   1.352   2.484   7.883 -0.1403  0.0755  0.1258
  116OSM   H10F12179   1.264   2.495   7.948 -2.4251  1.5664 -3.0723
  116OSM   C11F12180   1.490   2.503   7.937  0.2287 -0.3156 -0.2929
  116OSM   H11F12181   1.489   2.611   7.963 -0.2778 -0.4075  0.0691
  116OSM   H11G12182   1.572   2.493   7.863  1.4384  0.3968  0.9317
  116OSM   C12F12183   1.521   2.426   8.066  0.2478 -0.6927 -0.1224
  116OSM   H12F12184   1.630   2.429   8.090 -0.1115  0.3777  1.4602
  116OSM   H12G12185   1.498   2.319   8.048  0.9566 -0.4745 -2.4262
  116OSM   C13F12186   1.440   2.475   8.192 -0.2886 -0.3514  0.3617
  116OSM   H13F12187   1.332   2.460   8.171 -1.1778  3.8704  1.4318
  116OSM   H13G12188   1.454   2.583   8.210  1.3890 -0.9503  2.9245
  116OSM   C14F12189   1.474   2.395   8.322  0.1384 -0.0085 -0.2709
  116OSM   H14F12190   1.432   2.292   8.317 -2.5563  0.7756  3.6698
  116OSM   H14G12191   1.428   2.455   8.404  3.0923  0.9901  0.7253
  116OSM   C15F12192   1.626   2.378   8.359  0.0303  0.2086 -0.8977
  116OSM   H15F12193   1.683   2.313   8.289  0.9352  1.0290 -0.9409
  116OSM   H15G12194   1.637   2.328   8.457 -0.1557 -0.4530 -1.2171
  116OSM   C16F12195   1.688   2.517   8.378 -0.0356 -0.4624 -0.2186
  116OSM   H16F12196   1.616   2.576   8.439 -0.5804 -0.5862 -0.7314
  116OSM   H16G12197   1.687   2.570   8.280  0.1401  1.2330  0.6776
  116OSM   C17F12198   1.831   2.509   8.433 -0.1193  0.7256 -0.5579
  116OSM   H17F12199   1.820   2.450   8.526  0.6210  0.1718 -0.8143
  116OSM   H17G12200   1.874   2.609   8.454 -1.3513  0.7601  1.9947
  116OSM   C18F12201   1.933   2.427   8.351 -0.3093  0.0846  0.2999
  116OSM   H18F12202   1.952   2.461   8.247 -0.0470 -1.1384 -0.0567
  116OSM   H18G12203   1.892   2.324   8.340  0.8113 -0.6698  2.9996
  116OSM   H18H12204   2.029   2.403   8.401  0.0242  0.3006 -0.2256
  117OSM      N12205   0.345   3.556   6.236 -0.2055 -0.4067  0.1954
  117OSM    C1512206   0.259   3.524   6.115  0.2226  0.3425  0.0625
  117OSM   H15A12207   0.176   3.462   6.144 -0.6036  0.7389 -1.3825
  117OSM   H15B12208   0.316   3.469   6.042  0.7981  0.0403  0.7336
  117OSM   H15C12209   0.212   3.612   6.073  0.5711  1.0038  1.0412
  117OSM    C1412210   0.258   3.629   6.334  0.2775  0.5189  0.8210
  117OSM   H14A12211   0.304   3.630   6.432 -2.4820  1.5915  2.1423
  117OSM   H14B12212   0.158   3.589   6.340  0.5132 -0.5696 -1.8266
  117OSM   H14C12213   0.254   3.730   6.294  1.2752  0.6969  1.1447
  117OSM    C1312214   0.387   3.425   6.300 -0.5580 -0.4296  0.7096
  117OSM   H13A12215   0.301   3.362   6.318 -0.6883 -0.5524 -0.3030
  117OSM   H13B12216   0.443   3.437   6.392  0.9388  3.6993 -0.6497
  117OSM   H13C12217   0.456   3.370   6.239 -0.0468  0.8030  0.1620
  117OSM    C1212218   0.467   3.639   6.209 -0.2724 -0.2909  0.0252
  117OSM   H12A12219   0.541   3.573   6.166  0.6009 -1.7142  3.4800
  117OSM   H12B12220   0.502   3.667   6.308  3.0093 -0.4954 -0.9984
  117OSM    C1112221   0.449   3.772   6.125 -0.0425  0.0622  0.3941
  117OSM   H11A12222   0.453   3.741   6.018 -2.5260  0.3882  0.1772
  117OSM   H11B12223   0.548   3.820   6.142  1.5866 -3.3235  1.0119
  117OSM      P12224   0.309   3.978   6.079  0.3175 -0.5491 -0.1908
  117OSM    O1312225   0.426   4.019   6.006 -0.3511 -0.3702 -0.2829
  117OSM    O1412226   0.192   3.949   5.994 -0.2236 -0.7800 -0.3921
  117OSM    O1112227   0.266   4.095   6.175 -0.0253 -0.1907 -0.7523
  117OSM    O1212228   0.338   3.848   6.161  0.5325  0.5618 -0.1392
  117OSM    C1S12229   0.319   4.096   6.309  0.2095 -0.2624  0.1764
  117OSM    H1S12230   0.428   4.076   6.316  0.5708  0.8870 -1.6864
  117OSM    H1T12231   0.256   4.037   6.379 -1.0251 -0.2779 -0.9304
  117OSM     NF12232   0.340   4.232   6.509 -0.1631 -0.0318  0.6759
  117OSM    HNF12233   0.255   4.250   6.559 -1.3970  0.5930 -1.5404
  117OSM    C2S12234   0.333   4.244   6.364 -0.0563 -0.4161 -0.7251
  117OSM    H2S12235   0.422   4.297   6.323 -1.7685  3.5404  0.3860
  117OSM    C3S12236   0.215   4.336   6.321  0.5054 -0.1898 -0.5243
  117OSM    H3S12237   0.123   4.276   6.332  0.9779 -1.2168 -1.9915
  117OSM     O312238   0.215   4.364   6.181  0.4466 -0.1373  0.5033
  117OSM    HO312239   0.261   4.288   6.144 -0.1736 -1.2026  1.8645
  117OSM    C4S12240   0.218   4.463   6.400  0.0770 -0.3297  0.6308
  117OSM    H4S12241   0.317   4.511   6.406 -0.6384  1.3837 -0.8820
  117OSM    C5S12242   0.117   4.509   6.478  0.3455 -1.0021 -0.1750
  117OSM    H5S12243   0.018   4.462   6.479 -0.1794  0.0897  0.9171
  117OSM    C6S12244   0.144   4.627   6.567  0.0069 -0.2252 -0.8000
  117OSM    H6S12245   0.048   4.659   6.611  0.5014 -1.2362  1.0697
  117OSM    H6T12246   0.180   4.705   6.496  0.4150  0.3846  0.0642
  117OSM    C7S12247   0.235   4.617   6.695  0.6734 -0.1827  0.1287
  117OSM    H7S12248   0.250   4.718   6.737 -1.5884 -0.0808  0.7871
  117OSM    H7T12249   0.339   4.581   6.684  0.3901 -0.6396 -1.1069
  117OSM    C8S12250   0.171   4.518   6.799  0.3288  0.0558  0.6261
  117OSM    H8S12251   0.206   4.416   6.775  1.1314  1.0681 -2.7016
  117OSM    H8T12252   0.060   4.526   6.787  0.4973  0.9647 -0.3487
  117OSM    C9S12253   0.205   4.555   6.946 -0.4232 -0.5166  0.1651
  117OSM    H9S12254   0.153   4.650   6.969 -1.8992 -1.6866  1.7738
  117OSM    H9T12255   0.315   4.567   6.959 -0.3531 -1.0293  0.0375
  117OSM   C10S12256   0.181   4.437   7.043 -0.4101  0.6617  0.2588
  117OSM   H10S12257   0.254   4.358   7.015 -1.1580  0.2839 -0.6738
  117OSM   H10T12258   0.079   4.403   7.016 -0.4367  2.8295 -2.6031
  117OSM   C11S12259   0.186   4.475   7.189  0.2489 -0.2254 -0.3431
  117OSM   H11S12260   0.109   4.555   7.203  1.9149  1.4293 -0.5219
  117OSM   H11T12261   0.284   4.523   7.209 -1.2003  2.3494  0.9746
  117OSM   C12S12262   0.171   4.358   7.283  0.3130  0.2592 -0.9467
  117OSM   H12S12263   0.215   4.266   7.240 -0.6756  0.6005 -2.7128
  117OSM   H12T12264   0.063   4.334   7.296  0.1338  0.9252 -1.1885
  117OSM   C13S12265   0.204   4.384   7.427  0.1960 -0.4610 -0.2000
  117OSM   H13S12266   0.141   4.466   7.467 -0.7086 -0.4928 -1.5092
  117OSM   H13T12267   0.308   4.418   7.444 -0.4332  1.1162  0.5566
  117OSM   C14S12268   0.178   4.264   7.514  0.1316  1.0946  0.0206
  117OSM   H14S12269   0.244   4.184   7.475  0.4262  0.9783  0.7435
  117OSM   H14T12270   0.075   4.221   7.505  0.4021 -0.2876  2.8214
  117OSM   C15S12271   0.218   4.281   7.661  0.2668 -0.7626 -0.3781
  117OSM   H15S12272   0.143   4.352   7.702  0.3551  1.0033 -3.1118
  117OSM   H15T12273   0.320   4.324   7.652 -0.9501  2.3937  0.0696
  117OSM   C16S12274   0.216   4.157   7.745 -0.4915 -0.3794  0.4328
  117OSM   H16S12275   0.283   4.081   7.699 -0.7834 -1.2487  1.4248
  117OSM   H16T12276   0.109   4.129   7.748 -0.3097 -1.3145 -0.8720
  117OSM   C17S12277   0.276   4.188   7.881  0.4561  0.3092 -0.3980
  117OSM   H17S12278   0.219   4.274   7.923  2.0508  1.2709 -0.1795
  117OSM   H17T12279   0.382   4.216   7.866  0.3221 -0.5665 -3.2001
  117OSM   C18S12280   0.275   4.066   7.977  0.2300  0.1763 -0.2831
  117OSM   H18S12281   0.329   3.982   7.929  2.3869  1.3271  0.0496
  117OSM   H18T12282   0.174   4.031   8.006 -0.4028  3.0630  1.1560
  117OSM   H18U12283   0.338   4.085   8.066 -0.8494  1.1701  0.2950
  117OSM    C1F12284   0.455   4.189   6.567 -0.0028 -0.6511 -0.1234
  117OSM     OF12285   0.561   4.177   6.501  0.7412  0.5046  0.5644
  117OSM    C2F12286   0.437   4.130   6.705  0.4169  0.4047 -0.5481
  117OSM    H2F12287   0.471   4.025   6.700  1.2862  0.6273  0.4849
  117OSM    H2G12288   0.326   4.125   6.714  0.5511 -0.3949  0.7632
  117OSM    C3F12289   0.504   4.208   6.821  0.1426 -0.0564 -0.1591
  117OSM    H3F12290   0.458   4.308   6.827  0.1005  0.2208 -3.9048
  117OSM    H3G12291   0.609   4.225   6.789 -0.2997  0.1729 -1.5185
  117OSM    C4F12292   0.506   4.143   6.960  0.7781 -0.6745 -0.3519
  117OSM    H4F12293   0.586   4.067   6.970  0.1650 -1.4329 -1.1820
  117OSM    H4G12294   0.411   4.089   6.981  1.8541 -3.0234 -1.3020
  117OSM    C5F12295   0.540   4.241   7.076  0.1777 -0.3135  0.1499
  117OSM    H5F12296   0.454   4.311   7.093  0.9573  0.6206  0.3295
  117OSM    H5G12297   0.619   4.309   7.037 -0.5563  1.3283  1.4251
  117OSM    C6F12298   0.584   4.176   7.209 -0.2538  0.3856  0.5477
  117OSM    H6F12299   0.676   4.115   7.198  0.0318  0.9604 -0.2935
  117OSM    H6G12300   0.498   4.116   7.244 -1.5479 -0.1521 -3.3709
  117OSM    C7F12301   0.616   4.292   7.304  0.0686  0.1249 -0.0036
  117OSM    H7F12302   0.533   4.363   7.326 -1.3841 -1.7058  0.6144
  117OSM    H7G12303   0.700   4.348   7.258  0.8641  1.2910  2.7715
  117OSM    C8F12304   0.667   4.239   7.436  0.1510 -0.0568  0.3210
  117OSM    H8F12305   0.708   4.317   7.504  2.0338 -0.8304  0.1097
  117OSM    H8G12306   0.754   4.171   7.418 -0.9242 -1.5007  0.5147
  117OSM    C9F12307   0.574   4.151   7.514  0.7455 -0.2510  0.5927
  117OSM    H9F12308   0.478   4.203   7.529 -0.1034 -2.1764  1.9272
  117OSM   C10F12309   0.603   4.034   7.577 -0.9236  0.4140  0.0745
  117OSM   H10F12310   0.517   3.985   7.626 -0.8029 -2.1174 -2.0941
  117OSM   C11F12311   0.731   3.959   7.575 -0.4798  0.3920 -0.0328
  117OSM   H11F12312   0.810   3.993   7.504 -0.7193 -0.3366 -0.6466
  117OSM   H11G12313   0.724   3.849   7.564  0.4774  0.6126 -3.5639
  117OSM   C12F12314   0.785   3.985   7.721 -0.0364 -0.0578  0.3227
  117OSM   H12F12315   0.807   4.094   7.720  0.4411 -0.1580 -0.3058
  117OSM   H12G12316   0.884   3.936   7.738  0.9417  1.6223 -0.3836
  117OSM   C13F12317   0.691   3.940   7.835  0.2603  0.1747  0.1850
  117OSM   H13F12318   0.610   4.016   7.847 -0.4106 -0.8637  2.4568
  117OSM   H13G12319   0.743   3.944   7.932  0.1531  2.8608  0.1639
  117OSM   C14F12320   0.633   3.795   7.823 -0.1803  0.1776  0.3991
  117OSM   H14F12321   0.718   3.723   7.813  0.0566  0.4157  0.6852
  117OSM   H14G12322   0.570   3.788   7.732  0.7309  0.5926 -0.2792
  117OSM   C15F12323   0.546   3.755   7.943  0.0420  0.0267  1.4944
  117OSM   H15F12324   0.523   3.647   7.929  0.8156  0.3464 -3.2940
  117OSM   H15G12325   0.443   3.797   7.943  0.6201  1.5124  0.0487
  117OSM   C16F12326   0.600   3.769   8.090  0.2610 -0.1817 -0.1301
  117OSM   H16F12327   0.527   3.728   8.163  0.7359  1.0693  1.0544
  117OSM   H16G12328   0.599   3.878   8.113  0.0493 -0.3238  0.5564
  117OSM   C17F12329   0.735   3.705   8.098  0.1852  0.4059 -0.4779
  117OSM   H17F12330   0.720   3.609   8.045 -4.6993  0.5246  0.4078
  117OSM   H17G12331   0.813   3.762   8.044  0.3048 -0.5165 -1.2717
  117OSM   C18F12332   0.776   3.677   8.243 -0.3556  1.0737  0.8069
  117OSM   H18F12333   0.702   3.605   8.286 -0.3079  0.6465  0.1795
  117OSM   H18G12334   0.769   3.766   8.310 -4.6871  1.4951 -0.0392
  117OSM   H18H12335   0.880   3.640   8.236 -1.1879 -1.3751  0.8283
  118OSM      N12336   3.148   6.156   6.230  0.4686 -0.2705  0.0409
  118OSM    C1512337   3.218   6.084   6.344  0.1571 -0.4610  0.1608
  118OSM   H15A12338   3.305   6.140   6.377 -0.7729  1.0432  0.0853
  118OSM   H15B12339   3.242   5.981   6.323  1.8790 -0.5054  2.1208
  118OSM   H15C12340   3.146   6.078   6.424  0.3207  3.2046  0.6656
  118OSM    C1412341   3.252   6.148   6.123  0.1098  0.4449  0.1460
  118OSM   H14A12342   3.344   6.201   6.143 -0.2663  0.9148  0.6515
  118OSM   H14B12343   3.216   6.178   6.026 -0.5697 -2.2240 -0.4697
  118OSM   H14C12344   3.276   6.045   6.100  1.2470  0.5523  0.7917
  118OSM    C1312345   3.023   6.087   6.194  0.0219 -0.1335  0.1619
  118OSM   H13A12346   2.948   6.082   6.272  1.1600 -0.0320  1.2640
  118OSM   H13B12347   3.044   5.982   6.175  1.4245  0.0473  0.6568
  118OSM   H13C12348   2.981   6.136   6.107  1.6430 -0.8294 -1.0325
  118OSM    C1212349   3.112   6.302   6.261 -0.3332  0.7513 -0.9922
  118OSM   H12A12350   3.081   6.342   6.166 -0.5662 -1.3063 -1.8180
  118OSM   H12B12351   3.204   6.357   6.275 -0.0526 -0.3408  1.8773
  118OSM    C1112352   3.021   6.334   6.386  0.3290  0.2068 -0.9228
  118OSM   H11A12353   3.040   6.441   6.412  0.4440  0.0454 -0.3465
  118OSM   H11B12354   3.058   6.268   6.467 -3.2795  0.4865  1.0143
  118OSM      P12355   2.776   6.398   6.374  0.2555 -0.2342  0.1139
  118OSM    O1312356   2.813   6.517   6.292  0.9936 -0.1841  0.3511
  118OSM    O1412357   2.646   6.340   6.341  0.5995 -0.0419  0.0065
  118OSM    O1112358   2.775   6.439   6.521  0.2938 -0.0398 -0.2112
  118OSM    O1212359   2.887   6.292   6.361 -0.0749 -0.0089 -0.2281
  118OSM    C1S12360   2.772   6.337   6.623 -0.0324  0.0399 -0.5965
  118OSM    H1S12361   2.873   6.304   6.657 -0.9607 -1.8383  0.4063
  118OSM    H1T12362   2.709   6.249   6.596  0.0938  0.2017 -1.4572
  118OSM     NF12363   2.714   6.280   6.856 -0.4082  0.6863 -0.0948
  118OSM    HNF12364   2.633   6.241   6.899 -0.1445  0.7188  0.4394
  118OSM    C2S12365   2.706   6.382   6.758  0.9804  0.1357  0.7498
  118OSM    H2S12366   2.763   6.474   6.782  0.9947  1.1157 -2.7130
  118OSM    C3S12367   2.560   6.425   6.731  0.5218  0.6935  0.2939
  118OSM    H3S12368   2.505   6.334   6.699  0.8180  1.0618 -1.3152
  118OSM     O312369   2.531   6.513   6.620 -0.0725 -0.2096 -0.0782
  118OSM    HO312370   2.605   6.489   6.565 -0.2032 -1.2205  0.1782
  118OSM    C4S12371   2.510   6.477   6.863 -0.2400  0.1298 -0.6153
  118OSM    H4S12372   2.468   6.398   6.927 -0.4241  1.1643  0.5776
  118OSM    C5S12373   2.518   6.600   6.918 -0.2511  0.0882 -0.8072
  118OSM    H5S12374   2.561   6.684   6.862  0.8690  0.7800  1.0713
  118OSM    C6S12375   2.464   6.632   7.053 -0.1262 -0.0398  0.1943
  118OSM    H6S12376   2.446   6.741   7.063 -0.3686 -0.1536  0.9929
  118OSM    H6T12377   2.545   6.607   7.125  1.2003 -0.1945 -1.3192
  118OSM    C7S12378   2.330   6.576   7.104  0.6800 -0.3317  0.2206
  118OSM    H7S12379   2.329   6.466   7.120  0.0846 -0.4118 -0.3282
  118OSM    H7T12380   2.250   6.596   7.029  0.0706 -1.5629  0.5258
  118OSM    C8S12381   2.287   6.643   7.243 -0.2405 -0.4489  0.2222
  118OSM    H8S12382   2.270   6.751   7.223  0.4173 -0.9006 -3.0297
  118OSM    H8T12383   2.373   6.636   7.313 -0.8806  1.2007  1.1983
  118OSM    C9S12384   2.153   6.584   7.293 -0.4636 -1.1744  0.1176
  118OSM    H9S12385   2.156   6.473   7.302 -3.3299 -1.1029  2.7235
  118OSM    H9T12386   2.085   6.599   7.206 -0.2299 -0.0203  0.1368
  118OSM   C10S12387   2.110   6.629   7.431 -0.4583 -0.7338 -0.4501
  118OSM   H10S12388   2.007   6.596   7.452 -0.4735  0.1450  0.9027
  118OSM   H10T12389   2.105   6.739   7.420 -0.6435 -0.3916  2.6880
  118OSM   C11S12390   2.199   6.599   7.555 -0.8095  0.3852 -0.2939
  118OSM   H11S12391   2.291   6.660   7.552  0.4467 -1.5110 -1.4445
  118OSM   H11T12392   2.228   6.492   7.567 -0.1842  0.7661  1.8608
  118OSM   C12S12393   2.119   6.632   7.678  0.7282  0.3162 -0.2806
  118OSM   H12S12394   2.163   6.590   7.771  1.7945  0.2178 -0.8174
  118OSM   H12T12395   2.025   6.574   7.682  1.4824 -0.8258  1.5936
  118OSM   C13S12396   2.099   6.778   7.700 -0.3085 -0.4595 -1.0715
  118OSM   H13S12397   2.039   6.807   7.611 -0.7037 -1.5019 -1.1583
  118OSM   H13T12398   2.193   6.837   7.691 -0.0439 -0.2122  2.5921
  118OSM   C14S12399   2.037   6.818   7.832  0.5865 -0.5131  0.0970
  118OSM   H14S12400   1.958   6.748   7.864  0.4407 -0.0888  0.6697
  118OSM   H14T12401   1.983   6.913   7.815 -0.3849 -0.9641  0.6490
  118OSM   C15S12402   2.139   6.846   7.944  0.0675  0.0259  0.0795
  118OSM   H15S12403   2.186   6.947   7.939  0.0083  0.1326  1.6466
  118OSM   H15T12404   2.224   6.775   7.939  1.1884  1.3126  0.4124
  118OSM   C16S12405   2.077   6.845   8.083 -0.4261  0.6516 -0.2303
  118OSM   H16S12406   2.052   6.737   8.093 -1.7971  1.0609  0.8967
  118OSM   H16T12407   1.983   6.904   8.083 -0.1040  1.1746 -1.5667
  118OSM   C17S12408   2.173   6.875   8.195  0.1580  0.5498  0.2777
  118OSM   H17S12409   2.124   6.854   8.293  0.1772 -0.2947  0.1021
  118OSM   H17T12410   2.214   6.978   8.186  0.5039  0.4421  0.6077
  118OSM   C18S12411   2.298   6.786   8.197  0.0946 -0.1914  0.7759
  118OSM   H18S12412   2.349   6.808   8.101 -0.1954  0.8225  0.8502
  118OSM   H18T12413   2.260   6.682   8.193 -0.2187 -0.0852  1.0154
  118OSM   H18U12414   2.361   6.813   8.285 -1.5851 -0.2484  2.0149
  118OSM    C1F12415   2.829   6.253   6.929  0.5710 -0.3172  1.0181
  118OSM     OF12416   2.937   6.286   6.891  0.2125 -0.4597  0.0841
  118OSM    C2F12417   2.812   6.181   7.061  0.5743 -0.3628  0.0944
  118OSM    H2F12418   2.774   6.081   7.030  1.0944 -0.1230 -1.3334
  118OSM    H2G12419   2.735   6.229   7.125 -0.3958 -0.6911 -0.8145
  118OSM    C3F12420   2.948   6.156   7.135 -0.2074  0.1846  0.8669
  118OSM    H3F12421   2.996   6.255   7.152  0.6053  0.3870 -2.2496
  118OSM    H3G12422   3.016   6.092   7.075 -2.1961  0.9020 -2.2699
  118OSM    C4F12423   2.936   6.090   7.271 -0.5209 -0.1095  0.4235
  118OSM    H4F12424   2.929   5.979   7.265 -0.6881 -0.0422 -0.5971
  118OSM    H4G12425   2.841   6.127   7.315 -0.8612 -2.1507  1.4989
  118OSM    C5F12426   3.054   6.135   7.367 -0.1339 -0.2369  0.3585
  118OSM    H5F12427   3.079   6.243   7.359  0.3193 -0.2265  1.8897
  118OSM    H5G12428   3.143   6.078   7.332  0.9349  2.0484 -0.7422
  118OSM    C6F12429   3.020   6.083   7.510 -0.1504  0.0640 -0.5954
  118OSM    H6F12430   3.109   6.069   7.575 -0.0969  1.0401 -0.4428
  118OSM    H6G12431   2.976   5.982   7.512 -1.1296  0.4260 -2.8892
  118OSM    C7F12432   2.934   6.170   7.606 -0.9943  0.5481  0.2218
  118OSM    H7F12433   2.832   6.178   7.563 -0.6059  0.1655 -0.7709
  118OSM    H7G12434   2.969   6.275   7.600 -2.4627  1.0301 -0.0541
  118OSM    C8F12435   2.933   6.129   7.752 -0.2716 -0.2171 -0.0547
  118OSM    H8F12436   2.869   6.191   7.818 -0.4231 -0.1644 -0.2518
  118OSM    H8G12437   3.034   6.150   7.793 -0.3639  0.8787 -0.3745
  118OSM    C9F12438   2.882   5.990   7.779  0.3070 -0.1148 -0.1049
  118OSM    H9F12439   2.780   5.987   7.738 -0.7026  2.0837  2.0816
  118OSM   C10F12440   2.948   5.885   7.842  0.1773  0.5938  0.9669
  118OSM   H10F12441   2.897   5.789   7.860 -3.0625  1.8314 -1.0893
  118OSM   C11F12442   3.083   5.899   7.911  0.1738  0.4555 -1.2119
  118OSM   H11F12443   3.143   5.978   7.861  2.6900 -1.4273 -1.2155
  118OSM   H11G12444   3.142   5.806   7.904 -1.4293 -0.8013  1.3891
  118OSM   C12F12445   3.059   5.958   8.055  0.1653  0.7020 -0.0204
  118OSM   H12F12446   2.992   6.047   8.051  1.1853  1.5518  1.1932
  118OSM   H12G12447   3.160   5.977   8.097  0.9410 -2.1111 -0.5353
  118OSM   C13F12448   3.016   5.835   8.143  0.7527  0.1447 -0.4582
  118OSM   H13F12449   2.926   5.782   8.105 -0.7524  1.9509  0.4736
  118OSM   H13G12450   2.991   5.886   8.239 -3.1864 -0.4763 -1.0741
  118OSM   C14F12451   3.119   5.721   8.164 -0.0847 -0.9520  0.3518
  118OSM   H14F12452   3.217   5.774   8.165 -0.0818 -0.8789 -2.0927
  118OSM   H14G12453   3.121   5.651   8.078  1.9689  1.3347 -1.5557
  118OSM   C15F12454   3.098   5.645   8.295 -0.0124 -0.5922 -0.0409
  118OSM   H15F12455   3.117   5.714   8.381 -2.3897 -1.0469  0.8664
  118OSM   H15G12456   3.176   5.567   8.305  1.7072  0.9517 -1.0037
  118OSM   C16F12457   2.954   5.588   8.321  0.2744 -0.5963 -0.1803
  118OSM   H16F12458   2.911   5.528   8.238 -2.2284 -1.0434  1.3920
  118OSM   H16G12459   2.886   5.674   8.342 -0.1706 -1.8547  3.8639
  118OSM   C17F12460   2.936   5.513   8.451  0.1263  0.0143 -0.3085
  118OSM   H17F12461   2.957   5.576   8.540 -0.2803  2.8990 -2.1783
  118OSM   H17G12462   3.002   5.423   8.448 -0.3464 -0.3360 -0.1499
  118OSM   C18F12463   2.796   5.450   8.470 -0.0406  0.1573  0.0484
  118OSM   H18F12464   2.792   5.405   8.571 -1.2286 -1.2117 -0.5953
  118OSM   H18G12465   2.778   5.381   8.384 -0.3060 -0.0173  0.2433
  118OSM   H18H12466   2.730   5.539   8.474 -0.9636 -0.5289  0.1167
  119OSM      N12467   4.565   5.582   5.710  0.1064  0.4090  0.1102
  119OSM    C1512468   4.589   5.711   5.780  0.1175  0.0399 -0.7353
  119OSM   H15A12469   4.695   5.715   5.797 -0.4425 -1.7750  3.9826
  119OSM   H15B12470   4.543   5.707   5.878 -1.1809 -3.5253 -1.4163
  119OSM   H15C12471   4.557   5.799   5.726 -0.0659  1.1564  1.1411
  119OSM    C1412472   4.612   5.599   5.567 -0.0993 -0.4992  0.6690
  119OSM   H14A12473   4.711   5.643   5.564 -0.7789  0.9935 -1.0126
  119OSM   H14B12474   4.537   5.660   5.518  0.0761 -2.3502 -1.9482
  119OSM   H14C12475   4.616   5.502   5.521 -2.0729 -0.9494  1.3936
  119OSM    C1312476   4.657   5.487   5.781  0.2410  0.0343  0.7772
  119OSM   H13A12477   4.621   5.388   5.759  2.4839 -0.9720  1.5310
  119OSM   H13B12478   4.656   5.496   5.889 -0.7870 -0.1062  0.7833
  119OSM   H13C12479   4.753   5.492   5.733 -0.0087  2.3281  0.4342
  119OSM    C1212480   4.422   5.537   5.698 -0.5993 -0.3858  0.2659
  119OSM   H12A12481   4.402   5.463   5.622  0.0944 -0.6930  0.3783
  119OSM   H12B12482   4.362   5.624   5.676  0.5829  1.0547  2.5474
  119OSM    C1112483   4.367   5.472   5.828  1.0135 -0.8198  0.1477
  119OSM   H11A12484   4.431   5.392   5.869 -0.6809 -2.1376  0.2453
  119OSM   H11B12485   4.275   5.418   5.798  2.0706 -1.1183 -2.8102
  119OSM      P12486   4.265   5.706   5.904  0.5923 -0.2815  0.0415
  119OSM    O1312487   4.352   5.822   5.924  0.0822  0.0861  0.0739
  119OSM    O1412488   4.189   5.703   5.780  0.1215 -0.2670 -0.0006
  119OSM    O1112489   4.163   5.707   6.018 -0.4361 -0.4785 -0.5482
  119OSM    O1212490   4.341   5.567   5.929 -0.6473  0.1336 -0.0850
  119OSM    C1S12491   4.206   5.705   6.156 -0.1052 -0.4403 -0.1577
  119OSM    H1S12492   4.289   5.637   6.183  1.0506  0.9453 -0.2019
  119OSM    H1T12493   4.114   5.679   6.214 -0.0809 -1.1404 -0.4244
  119OSM     NF12494   4.265   5.808   6.365  0.1957 -0.1612 -0.0909
  119OSM    HNF12495   4.184   5.819   6.421  1.9398  1.1422  2.2777
  119OSM    C2S12496   4.250   5.842   6.222 -0.3708 -0.0646 -0.5024
  119OSM    H2S12497   4.345   5.873   6.174  0.3900 -0.0981  0.9438
  119OSM    C3S12498   4.139   5.943   6.188  1.2734 -0.4396 -1.0265
  119OSM    H3S12499   4.038   5.898   6.202  1.3859 -0.3644  0.1028
  119OSM     O312500   4.130   5.986   6.056 -0.2452  0.2409 -0.6615
  119OSM    HO312501   4.189   5.923   6.014 -2.9122 -0.8196 -2.9680
  119OSM    C4S12502   4.148   6.070   6.272  0.9281 -0.2644 -0.0504
  119OSM    H4S12503   4.245   6.120   6.270  1.6109 -1.5624  0.0855
  119OSM    C5S12504   4.045   6.114   6.350  0.2261 -0.1871  0.5582
  119OSM    H5S12505   3.952   6.055   6.357  0.6276 -0.5818  2.9917
  119OSM    C6S12506   4.062   6.233   6.444  0.1950 -0.4124  0.2213
  119OSM    H6S12507   3.973   6.300   6.439 -0.1431 -0.8152  0.7342
  119OSM    H6T12508   4.151   6.292   6.413  0.9968 -1.8048 -0.1562
  119OSM    C7S12509   4.067   6.197   6.596 -0.1276 -0.4699  0.2043
  119OSM    H7S12510   3.995   6.114   6.614  0.2110 -0.5816  1.0415
  119OSM    H7T12511   4.023   6.284   6.649  2.1573  2.4964 -2.5752
  119OSM    C8S12512   4.216   6.161   6.634 -0.6027  0.1971  0.5151
  119OSM    H8S12513   4.278   6.252   6.618 -1.4210  1.4311  3.9022
  119OSM    H8T12514   4.254   6.097   6.551 -0.9141  1.0441 -0.2918
  119OSM    C9S12515   4.231   6.092   6.772 -0.1972  0.6725  0.2037
  119OSM    H9S12516   4.340   6.088   6.794  0.3938 -0.9324 -2.7695
  119OSM    H9T12517   4.194   5.989   6.753  0.1117  0.7926 -1.1147
  119OSM   C10S12518   4.160   6.164   6.886  0.6615 -0.0090 -0.4482
  119OSM   H10S12519   4.052   6.190   6.880  0.3174 -0.9823  1.2896
  119OSM   H10T12520   4.213   6.260   6.904 -1.6289  1.2421 -0.2129
  119OSM   C11S12521   4.176   6.082   7.018  0.1889 -0.2098  0.2012
  119OSM   H11S12522   4.284   6.076   7.044  0.1201 -1.7423  0.1774
  119OSM   H11T12523   4.137   5.980   6.996 -1.2362  0.8575 -2.4990
  119OSM   C12S12524   4.102   6.143   7.131  0.2696  0.1624  0.8936
  119OSM   H12S12525   3.996   6.161   7.102  0.6158  1.8121  0.5815
  119OSM   H12T12526   4.138   6.247   7.149  0.1035  0.3377  0.2253
  119OSM   C13S12527   4.108   6.061   7.264  0.0272  0.1109  0.2256
  119OSM   H13S12528   4.087   5.953   7.247 -1.0748  0.4411 -0.5330
  119OSM   H13T12529   4.018   6.092   7.320 -0.3534 -3.3185  1.6231
  119OSM   C14S12530   4.242   6.073   7.342  0.3055 -0.2301 -0.6227
  119OSM   H14S12531   4.251   6.177   7.381 -0.5356 -1.1330  2.0754
  119OSM   H14T12532   4.324   6.047   7.272 -0.3336 -1.0267 -1.0897
  119OSM   C15S12533   4.243   5.991   7.468  0.2961 -0.2327  0.2343
  119OSM   H15S12534   4.345   5.991   7.511  0.2652 -0.5047  0.3072
  119OSM   H15T12535   4.205   5.891   7.437 -1.2371  0.5771 -0.5850
  119OSM   C16S12536   4.154   6.054   7.575  0.0893 -0.3547  0.0367
  119OSM   H16S12537   4.057   6.082   7.528  1.0580  0.8471 -1.2819
  119OSM   H16T12538   4.204   6.143   7.618 -2.2256  1.2466 -0.4858
  119OSM   C17S12539   4.109   5.950   7.680 -0.0608 -0.7275 -0.4499
  119OSM   H17S12540   4.041   5.875   7.634  0.7077 -0.2293 -2.4838
  119OSM   H17T12541   4.050   6.002   7.758  3.4452  2.4319  0.2535
  119OSM   C18S12542   4.233   5.896   7.748  0.3057  0.2043  0.0121
  119OSM   H18S12543   4.271   5.820   7.677  1.4606 -0.9190  1.7842
  119OSM   H18T12544   4.202   5.847   7.843 -0.2056  0.0468 -0.2313
  119OSM   H18U12545   4.313   5.967   7.779  0.9721 -0.8804  0.8145
  119OSM    C1F12546   4.371   5.754   6.428 -0.5515  0.8787  0.6627
  119OSM     OF12547   4.466   5.712   6.359  0.4957  0.2491  0.0513
  119OSM    C2F12548   4.365   5.754   6.580  0.7288 -0.5595  0.4659
  119OSM    H2F12549   4.282   5.688   6.615 -0.2592  0.0843 -0.6307
  119OSM    H2G12550   4.346   5.861   6.600 -0.2132 -0.7854  0.7726
  119OSM    C3F12551   4.492   5.714   6.658  0.2446 -0.3014 -0.1514
  119OSM    H3F12552   4.565   5.798   6.653  1.5454 -1.0883  3.9581
  119OSM    H3G12553   4.538   5.620   6.620 -1.5546 -1.3742  0.2456
  119OSM    C4F12554   4.462   5.688   6.807  0.1577  0.3387  0.1314
  119OSM    H4F12555   4.556   5.645   6.849  1.5299  0.9625 -2.2014
  119OSM    H4G12556   4.374   5.623   6.827  0.5622 -0.0834  0.5677
  119OSM    C5F12557   4.452   5.816   6.887  0.1386  0.1540  0.3487
  119OSM    H5F12558   4.348   5.848   6.867  0.3832  0.9854  0.3913
  119OSM    H5G12559   4.513   5.901   6.849 -1.3205  0.9793 -0.1550
  119OSM    C6F12560   4.470   5.790   7.041  0.0731 -0.4817  0.0499
  119OSM    H6F12561   4.479   5.893   7.083 -2.5434 -0.8800  1.7463
  119OSM    H6G12562   4.559   5.727   7.057  0.4802  0.5013  1.7741
  119OSM    C7F12563   4.349   5.732   7.116  0.0484 -1.1012 -0.6927
  119OSM    H7F12564   4.328   5.632   7.073  0.2323 -1.7599  0.7012
  119OSM    H7G12565   4.265   5.802   7.096  1.6357  1.0825  0.0427
  119OSM    C8F12566   4.365   5.711   7.274  0.3590 -0.3762  0.0370
  119OSM    H8F12567   4.261   5.715   7.316 -0.3727  1.6714 -1.8637
  119OSM    H8G12568   4.417   5.801   7.313  0.0993 -0.3915  0.4348
  119OSM    C9F12569   4.434   5.581   7.308 -0.3648 -0.3595 -0.5696
  119OSM    H9F12570   4.396   5.500   7.244  2.4258  0.0713 -2.8522
  119OSM   C10F12571   4.527   5.556   7.402  0.7909  0.1254 -0.4266
  119OSM   H10F12572   4.552   5.449   7.412  0.1259  0.0511  0.5013
  119OSM   C11F12573   4.595   5.643   7.506 -0.1991 -0.8773 -0.0863
  119OSM   H11F12574   4.593   5.748   7.472  2.2251 -1.6346 -2.7716
  119OSM   H11G12575   4.702   5.614   7.512 -0.3320 -1.4878 -0.5879
  119OSM   C12F12576   4.523   5.627   7.647 -0.1118 -0.5326 -0.5547
  119OSM   H12F12577   4.504   5.519   7.664  0.5598 -1.1825 -3.6592
  119OSM   H12G12578   4.428   5.685   7.646  0.4775  0.5032  1.2465
  119OSM   C13F12579   4.596   5.693   7.766  0.6104 -0.7951  0.4421
  119OSM   H13F12580   4.588   5.801   7.741  0.1713 -1.3018 -1.7527
  119OSM   H13G12581   4.705   5.671   7.773  1.0658  1.8083  1.8621
  119OSM   C14F12582   4.543   5.661   7.903  0.2178 -0.6298 -0.3933
  119OSM   H14F12583   4.587   5.563   7.932  0.2166  0.0917  2.2631
  119OSM   H14G12584   4.432   5.661   7.906  0.2189  1.6589  1.7200
  119OSM   C15F12585   4.576   5.769   8.013  0.4807  0.2550 -0.3928
  119OSM   H15F12586   4.521   5.863   7.990 -0.6369 -0.3962 -0.4448
  119OSM   H15G12587   4.683   5.796   8.025  0.9865 -1.1305 -1.6258
  119OSM   C16F12588   4.515   5.727   8.148  0.1106 -0.5438 -0.3329
  119OSM   H16F12589   4.571   5.637   8.181  2.9133  0.1277 -3.0484
  119OSM   H16G12590   4.408   5.706   8.127  0.3408 -0.3086 -1.7898
  119OSM   C17F12591   4.514   5.829   8.267  0.6539 -0.0933  0.3840
  119OSM   H17F12592   4.484   5.763   8.352  0.9263 -2.4426 -1.3062
  119OSM   H17G12593   4.439   5.910   8.255  0.4028 -0.6391 -1.8774
  119OSM   C18F12594   4.658   5.885   8.297  0.1129 -0.3013  0.9156
  119OSM   H18F12595   4.681   5.960   8.219  1.7353  0.4134  2.0484
  119OSM   H18G12596   4.738   5.810   8.314  0.8293  0.5518  1.3668
  119OSM   H18H12597   4.661   5.941   8.392  1.6262 -1.6482  1.6946
  120OSM      N12598   1.699   3.800   6.721  0.0515  0.9426 -0.3774
  120OSM    C1512599   1.821   3.835   6.641 -0.3687 -0.0696  0.2474
  120OSM   H15A12600   1.849   3.938   6.658 -2.0405  0.4604 -0.1326
  120OSM   H15B12601   1.807   3.825   6.534 -0.1726 -0.2391  0.2364
  120OSM   H15C12602   1.903   3.768   6.662 -0.9288 -1.0667 -0.6841
  120OSM    C1412603   1.712   3.821   6.865  0.5309  0.4710 -0.8072
  120OSM   H14A12604   1.622   3.787   6.913  1.4658  0.1781  0.8033
  120OSM   H14B12605   1.732   3.923   6.895  1.3315  0.0417  0.1985
  120OSM   H14C12606   1.805   3.784   6.908  0.2167  2.7178  2.0120
  120OSM    C1312607   1.586   3.889   6.679 -0.0491 -0.5981  0.1334
  120OSM   H13A12608   1.595   3.908   6.573  0.3386 -2.9709 -0.2673
  120OSM   H13B12609   1.578   3.982   6.734 -0.1526 -1.3596  1.4278
  120OSM   H13C12610   1.488   3.849   6.702 -1.0202 -0.8058 -4.0200
  120OSM    C1212611   1.663   3.651   6.693 -0.1537 -0.7290 -0.1870
  120OSM   H12A12612   1.597   3.614   6.770 -0.3408  0.3938  0.2024
  120OSM   H12B12613   1.749   3.586   6.701  0.3497  0.0604  1.1563
  120OSM    C1112614   1.593   3.624   6.557  0.1950  0.2549 -0.2698
  120OSM   H11A12615   1.497   3.680   6.553 -0.0425 -0.2110 -1.0405
  120OSM   H11B12616   1.570   3.516   6.566 -0.2696  0.5067  1.8514
  120OSM      P12617   1.779   3.526   6.406 -0.4533 -0.1938 -0.4424
  120OSM    O1312618   1.709   3.415   6.343  0.0492 -0.4236  0.4624
  120OSM    O1412619   1.879   3.587   6.321  0.4718 -0.2782  0.0603
  120OSM    O1112620   1.836   3.477   6.541 -0.0476  0.2681 -0.4368
  120OSM    O1212621   1.681   3.643   6.442 -0.4274 -0.3579  0.5239
  120OSM    C1S12622   1.949   3.389   6.553 -0.5176  0.5322  0.8011
  120OSM    H1S12623   2.040   3.453   6.546  1.0330 -1.8621 -2.0718
  120OSM    H1T12624   1.956   3.308   6.478  0.7597  2.1209 -0.8243
  120OSM     NF12625   2.086   3.262   6.706 -0.7540 -0.3523 -0.4817
  120OSM    HNF12626   2.103   3.172   6.669 -1.0658  0.3578 -2.4473
  120OSM    C2S12627   1.952   3.317   6.692 -0.2606  0.5531  0.2561
  120OSM    H2S12628   1.943   3.396   6.770 -1.7209 -0.9676  1.6635
  120OSM    C3S12629   1.836   3.226   6.700  0.0314 -0.6638 -0.1972
  120OSM    H3S12630   1.859   3.146   6.628  2.6782 -0.5091  0.4143
  120OSM     O312631   1.710   3.283   6.671  0.0366  0.4153  0.1116
  120OSM    HO312632   1.725   3.371   6.634  0.5961  0.1533 -0.2820
  120OSM    C4S12633   1.835   3.177   6.846 -0.7694  0.4462  0.4162
  120OSM    H4S12634   1.818   3.247   6.929  2.2033 -1.5357  2.8014
  120OSM    C5S12635   1.842   3.047   6.887 -0.4802  0.6203  0.6185
  120OSM    H5S12636   1.852   2.966   6.813  0.0061 -0.5181  1.9106
  120OSM    C6S12637   1.841   3.001   7.027 -1.1061  0.2628  1.3956
  120OSM    H6S12638   1.888   3.074   7.095  0.0405  1.9947 -1.1833
  120OSM    H6T12639   1.903   2.908   7.035 -0.0594  0.7989 -0.2239
  120OSM    C7S12640   1.694   2.971   7.075 -1.0770 -0.1771  0.1020
  120OSM    H7S12641   1.641   2.898   7.011  0.7888 -1.1090 -0.4277
  120OSM    H7T12642   1.647   3.072   7.075 -0.1823  0.2576  1.5683
  120OSM    C8S12643   1.709   2.904   7.210  0.0132  0.7163  0.5913
  120OSM    H8S12644   1.777   2.816   7.209 -2.2651 -1.0896  0.4126
  120OSM    H8T12645   1.610   2.856   7.223  0.5598 -0.4651  0.5455
  120OSM    C9S12646   1.738   2.981   7.336  0.3547  0.4193 -0.2350
  120OSM    H9S12647   1.661   3.059   7.355  0.2173 -0.0365  1.1790
  120OSM    H9T12648   1.837   3.030   7.337 -1.2628  3.8475  0.5351
  120OSM   C10S12649   1.738   2.889   7.462  0.5974 -0.5477  0.0649
  120OSM   H10S12650   1.826   2.821   7.472  0.6080 -0.6795 -0.8284
  120OSM   H10T12651   1.650   2.821   7.454  0.5205 -0.2958 -1.3636
  120OSM   C11S12652   1.743   2.962   7.601 -0.6003 -0.9125  0.5415
  120OSM   H11S12653   1.643   2.996   7.638 -1.3346  0.6241 -2.6483
  120OSM   H11T12654   1.795   3.056   7.573 -0.2179 -1.9630 -2.4089
  120OSM   C12S12655   1.813   2.883   7.714  0.1983 -0.1340 -0.5480
  120OSM   H12S12656   1.841   2.963   7.786  0.0157  1.2291 -1.9597
  120OSM   H12T12657   1.909   2.839   7.680  0.9702  0.9089  0.2225
  120OSM   C13S12658   1.718   2.788   7.777 -0.1778  0.3631 -0.5081
  120OSM   H13S12659   1.672   2.735   7.690 -1.3937  2.7307 -1.3473
  120OSM   H13T12660   1.641   2.843   7.834  1.1126  1.2071  0.4407
  120OSM   C14S12661   1.785   2.698   7.882  0.0567  0.0846 -0.0673
  120OSM   H14S12662   1.700   2.642   7.925 -1.0990  1.3689 -0.6236
  120OSM   H14T12663   1.837   2.753   7.964 -1.7360  0.0122  1.1418
  120OSM   C15S12664   1.877   2.594   7.818  0.2970 -0.8971  0.5448
  120OSM   H15S12665   1.976   2.637   7.790  0.2602 -1.6543 -0.7834
  120OSM   H15T12666   1.834   2.553   7.724 -1.7386 -0.6836  1.3589
  120OSM   C16S12667   1.909   2.482   7.918  0.0490  0.8227  0.5036
  120OSM   H16S12668   1.822   2.415   7.934 -0.2360  1.5174  1.9649
  120OSM   H16T12669   1.927   2.524   8.020  3.6364 -0.2139  0.3710
  120OSM   C17S12670   2.021   2.390   7.879 -0.6320  0.5742  0.6772
  120OSM   H17S12671   2.104   2.458   7.849 -1.1488  2.1070  2.6705
  120OSM   H17T12672   2.006   2.329   7.787  0.5128 -0.7074  1.3342
  120OSM   C18S12673   2.067   2.293   7.983  0.4558 -0.5326  0.5066
  120OSM   H18S12674   2.148   2.229   7.941 -0.9761 -1.6298 -0.6042
  120OSM   H18T12675   1.982   2.223   7.997 -0.9453  0.8674 -0.8626
  120OSM   H18U12676   2.097   2.348   8.075  4.4232 -0.2662 -0.8342
  120OSM    C1F12677   2.190   3.335   6.741 -0.2223  0.2952 -0.0729
  120OSM     OF12678   2.170   3.458   6.772 -0.1121 -0.0648 -0.1055
  120OSM    C2F12679   2.322   3.276   6.726  0.7191  0.0550 -0.2867
  120OSM    H2F12680   2.341   3.262   6.618 -0.9838 -1.2244 -0.4438
  120OSM    H2G12681   2.318   3.173   6.769 -0.6190  0.0028 -0.5275
  120OSM    C3F12682   2.443   3.345   6.790 -0.5151 -0.0215  0.4221
  120OSM    H3F12683   2.451   3.454   6.769  0.1121 -0.5405 -2.2579
  120OSM    H3G12684   2.542   3.298   6.767  0.2707  2.3903 -1.3031
  120OSM    C4F12685   2.436   3.330   6.949  0.7988 -0.4961  0.5669
  120OSM    H4F12686   2.446   3.226   6.986 -2.5589 -1.0471  0.0650
  120OSM    H4G12687   2.340   3.374   6.983  2.2055  3.7801 -0.6570
  120OSM    C5F12688   2.549   3.417   7.012 -0.1926  0.5567 -0.6361
  120OSM    H5F12689   2.515   3.523   7.016  2.5318  1.4754 -1.0227
  120OSM    H5G12690   2.637   3.410   6.945 -0.4216  2.3268 -1.1499
  120OSM    C6F12691   2.580   3.356   7.155 -0.6098  0.6835  0.5526
  120OSM    H6F12692   2.613   3.250   7.148  0.2515  1.0293 -0.9722
  120OSM    H6G12693   2.482   3.355   7.207 -1.0080  1.0562 -0.1772
  120OSM    C7F12694   2.680   3.441   7.241  0.2523 -0.0902 -0.0602
  120OSM    H7F12695   2.644   3.545   7.252 -1.3296 -0.5688 -0.5609
  120OSM    H7G12696   2.779   3.436   7.191  0.2264 -2.3336  0.0665
  120OSM    C8F12697   2.708   3.398   7.383 -0.0002  0.5744 -0.2913
  120OSM    H8F12698   2.733   3.291   7.365  1.5141  0.7633  0.5588
  120OSM    H8G12699   2.611   3.407   7.437 -0.7571 -1.4525 -1.2488
  120OSM    C9F12700   2.820   3.464   7.447  0.2065 -0.6391  0.3216
  120OSM    H9F12701   2.855   3.557   7.400 -0.9272  0.1625  1.0699
  120OSM   C10F12702   2.887   3.422   7.550 -0.2545  0.3302  0.1404
  120OSM   H10F12703   2.976   3.475   7.586 -0.6011  0.9279  0.1233
  120OSM   C11F12704   2.856   3.298   7.626 -0.4587  0.4485 -0.1438
  120OSM   H11F12705   2.947   3.241   7.602 -0.9538  0.0451 -1.0625
  120OSM   H11G12706   2.764   3.250   7.585 -1.8411  0.8272  2.3872
  120OSM   C12F12707   2.829   3.311   7.777 -0.5822  0.5896  0.3304
  120OSM   H12F12708   2.752   3.392   7.785 -2.0037 -0.3795 -2.6952
  120OSM   H12G12709   2.923   3.337   7.829  0.2426  0.5293 -1.0855
  120OSM   C13F12710   2.759   3.185   7.835  0.0269 -0.0677 -0.2283
  120OSM   H13F12711   2.831   3.101   7.826  0.7937  0.5393  0.2029
  120OSM   H13G12712   2.666   3.164   7.778 -0.3443  0.6478  0.0986
  120OSM   C14F12713   2.729   3.205   7.988  0.4775  0.1255  0.3915
  120OSM   H14F12714   2.655   3.288   7.990  1.4769  0.9892  2.3844
  120OSM   H14G12715   2.817   3.239   8.046  1.0124  0.3885 -0.5562
  120OSM   C15F12716   2.679   3.075   8.055 -0.1902  0.4025  0.0935
  120OSM   H15F12717   2.764   3.005   8.071  0.2199  0.6909 -0.7715
  120OSM   H15G12718   2.617   3.026   7.977  0.4551  0.6052 -0.5497
  120OSM   C16F12719   2.614   3.105   8.193 -0.2811 -0.2677 -0.2000
  120OSM   H16F12720   2.545   3.191   8.177 -0.0838 -0.6583 -3.6781
  120OSM   H16G12721   2.688   3.129   8.272  0.1294 -2.1404  0.0101
  120OSM   C17F12722   2.532   2.984   8.255  0.7591 -0.3676 -0.0411
  120OSM   H17F12723   2.601   2.898   8.248  0.9266 -0.3154  0.9065
  120OSM   H17G12724   2.438   2.955   8.202  0.7431  1.4563 -1.0522
  120OSM   C18F12725   2.507   3.002   8.410  0.4896 -0.0364  0.1676
  120OSM   H18F12726   2.596   3.039   8.466  0.7799 -2.1526  1.1524
  120OSM   H18G12727   2.486   2.902   8.454  1.4712 -1.8032 -3.2584
  120OSM   H18H12728   2.428   3.075   8.440  0.9186 -0.1266  1.5580
  121OSM      N12729   3.373   4.905   6.010  0.2076 -0.0200  0.8268
  121OSM    C1512730   3.503   4.908   5.960  0.0264  0.4451 -0.1841
  121OSM   H15A12731   3.573   4.889   6.040 -0.9350  1.1713  0.8450
  121OSM   H15B12732   3.518   5.002   5.909 -3.3226  1.0153 -0.2010
  121OSM   H15C12733   3.515   4.842   5.876  1.2420  1.7097 -1.0268
  121OSM    C1412734   3.291   4.978   5.914 -0.2307  1.3872  0.0712
  121OSM   H14A12735   3.265   4.911   5.833 -2.0951  1.3685  0.6653
  121OSM   H14B12736   3.335   5.070   5.879 -0.1280  0.9682 -0.9174
  121OSM   H14C12737   3.196   4.999   5.960 -0.9630  3.0632 -2.1293
  121OSM    C1312738   3.317   4.767   6.029 -0.3380  0.1260 -0.5658
  121OSM   H13A12739   3.214   4.761   6.063  0.6596 -1.7253  2.3060
  121OSM   H13B12740   3.368   4.724   6.114 -1.2381 -0.8511 -0.5081
  121OSM   H13C12741   3.334   4.704   5.943 -1.0305 -0.5596 -0.2165
  121OSM    C1212742   3.361   4.990   6.136 -0.6471  0.6853  0.3301
  121OSM   H12A12743   3.262   4.980   6.177 -0.9403 -0.6284 -0.6405
  121OSM   H12B12744   3.377   5.092   6.106 -0.8771  1.6711  3.3756
  121OSM    C1112745   3.463   4.970   6.245  0.7130 -0.4628 -0.1584
  121OSM   H11A12746   3.479   4.864   6.276 -2.2832 -1.0303 -0.3850
  121OSM   H11B12747   3.431   5.005   6.346 -2.5725 -2.6065 -0.3678
  121OSM      P12748   3.605   5.185   6.212  0.0184 -0.4766 -0.0772
  121OSM    O1312749   3.726   5.224   6.145  0.3787 -0.3302  0.1715
  121OSM    O1412750   3.477   5.247   6.171  0.8107 -0.4287 -0.0343
  121OSM    O1112751   3.621   5.204   6.363 -0.6472  0.4522  0.1833
  121OSM    O1212752   3.587   5.029   6.221  0.3910  0.0588 -0.2170
  121OSM    C1S12753   3.724   5.129   6.427 -0.2201 -0.4392  0.0853
  121OSM    H1S12754   3.820   5.161   6.383 -1.1762  1.0436 -0.9924
  121OSM    H1T12755   3.702   5.020   6.416 -0.2442 -0.3349 -0.9229
  121OSM     NF12756   3.860   5.105   6.637 -0.7186  0.1920 -0.7677
  121OSM    HNF12757   3.860   5.030   6.703 -1.8788  1.4127  0.6531
  121OSM    C2S12758   3.731   5.155   6.584  0.1083  0.9808 -0.5977
  121OSM    H2S12759   3.729   5.266   6.597 -1.2908  0.9518 -0.4836
  121OSM    C3S12760   3.608   5.096   6.650 -0.4648 -0.4020 -0.3782
  121OSM    H3S12761   3.623   4.987   6.634 -1.2316 -1.2208  3.7998
  121OSM     O312762   3.489   5.125   6.578 -0.7208  0.0620 -0.5281
  121OSM    HO312763   3.527   5.145   6.492 -2.2832  0.1969 -1.1979
  121OSM    C4S12764   3.598   5.139   6.791 -0.1672  0.2070  0.0004
  121OSM    H4S12765   3.684   5.108   6.852 -2.3585 -0.8759  2.6324
  121OSM    C5S12766   3.511   5.224   6.846  0.5155  0.4319  0.3382
  121OSM    H5S12767   3.443   5.275   6.777 -0.8119 -1.3616  0.2614
  121OSM    C6S12768   3.513   5.274   6.991  0.0964 -0.1876 -0.5753
  121OSM    H6S12769   3.614   5.256   7.034  0.1059 -0.4379 -0.6995
  121OSM    H6T12770   3.447   5.207   7.050 -1.3385  3.0192  1.5856
  121OSM    C7S12771   3.464   5.412   7.006 -0.7355 -0.0363 -0.5637
  121OSM    H7S12772   3.369   5.428   6.951 -0.1733  1.8665 -1.0159
  121OSM    H7T12773   3.537   5.478   6.955 -1.6223  0.8726 -0.6563
  121OSM    C8S12774   3.450   5.445   7.149 -0.2983 -0.7005  0.2780
  121OSM    H8S12775   3.542   5.433   7.209  0.5949 -2.3211 -1.3522
  121OSM    H8T12776   3.379   5.381   7.207 -0.2513 -1.2599 -0.2789
  121OSM    C9S12777   3.400   5.589   7.179  0.3810 -0.0794  0.2991
  121OSM    H9S12778   3.304   5.601   7.124 -1.5739  0.5359  3.6400
  121OSM    H9T12779   3.465   5.655   7.118 -0.9372  0.7185 -0.2695
  121OSM   C10S12780   3.406   5.626   7.327 -0.2781 -0.2608  0.2137
  121OSM   H10S12781   3.455   5.724   7.342  1.8040 -0.8869 -2.1460
  121OSM   H10T12782   3.475   5.548   7.368  0.4118 -0.0940 -0.6361
  121OSM   C11S12783   3.268   5.623   7.395 -0.6661  0.1437  0.4391
  121OSM   H11S12784   3.229   5.521   7.377  1.6912 -0.4900 -1.2536
  121OSM   H11T12785   3.207   5.699   7.342  0.7731  0.0402 -1.4179
  121OSM   C12S12786   3.273   5.638   7.545  0.1391  0.6905 -0.2355
  121OSM   H12S12787   3.171   5.632   7.588  0.0951 -2.8879 -0.6876
  121OSM   H12T12788   3.320   5.735   7.573  0.8009 -0.3553  2.4026
  121OSM   C13S12789   3.359   5.528   7.613  0.1220 -0.1991 -0.5735
  121OSM   H13S12790   3.464   5.525   7.577  1.3154  0.2546  2.7792
  121OSM   H13T12791   3.324   5.432   7.570  2.7085 -0.5674 -1.9258
  121OSM   C14S12792   3.357   5.535   7.762 -0.0298  0.9304  0.1845
  121OSM   H14S12793   3.253   5.549   7.797  0.5919  1.4892  1.8622
  121OSM   H14T12794   3.403   5.634   7.786  1.0630  0.7265 -1.0103
  121OSM   C15S12795   3.439   5.420   7.824 -0.1194  0.2233  0.9632
  121OSM   H15S12796   3.414   5.335   7.757 -3.0740  2.7907 -1.3089
  121OSM   H15T12797   3.405   5.394   7.927  1.9894 -1.9006  1.1718
  121OSM   C16S12798   3.592   5.440   7.824  0.1213  0.0945 -0.5553
  121OSM   H16S12799   3.618   5.524   7.892 -1.6404 -0.0956  0.3800
  121OSM   H16T12800   3.617   5.464   7.719  2.3749  2.8052  0.5386
  121OSM   C17S12801   3.668   5.312   7.879 -0.6158 -0.1087  0.4890
  121OSM   H17S12802   3.600   5.263   7.951 -0.0275  0.6358  1.5668
  121OSM   H17T12803   3.754   5.356   7.935  0.2860 -1.9829  0.6243
  121OSM   C18S12804   3.704   5.217   7.776 -0.4653  0.0471 -0.1031
  121OSM   H18S12805   3.715   5.115   7.820 -1.8076  0.3762  1.0082
  121OSM   H18T12806   3.796   5.252   7.724  2.1027 -5.3916  0.3655
  121OSM   H18U12807   3.629   5.200   7.696 -3.7243  0.9611  2.6398
  121OSM    C1F12808   3.972   5.181   6.625 -0.4257  0.8083  0.5449
  121OSM     OF12809   3.963   5.286   6.552 -0.1746 -0.0200  0.0177
  121OSM    C2F12810   4.100   5.139   6.690 -0.0476  0.4942 -0.5454
  121OSM    H2F12811   4.148   5.056   6.633 -0.5989  1.4164 -2.4003
  121OSM    H2G12812   4.070   5.111   6.793  0.6855  2.7292  0.2935
  121OSM    C3F12813   4.204   5.258   6.707  0.4966  0.0349  0.0038
  121OSM    H3F12814   4.149   5.348   6.744 -1.3987 -1.0952  0.0270
  121OSM    H3G12815   4.237   5.280   6.603  0.1352  0.9912  0.0884
  121OSM    C4F12816   4.320   5.213   6.800  0.1434 -0.5902  0.6743
  121OSM    H4F12817   4.275   5.162   6.887  0.9777 -0.4296  1.2066
  121OSM    H4G12818   4.370   5.302   6.844 -0.5500  1.0908 -1.7946
  121OSM    C5F12819   4.424   5.122   6.732 -0.1979 -0.7651 -0.9119
  121OSM    H5F12820   4.466   5.168   6.640  1.6911 -2.9061 -1.1531
  121OSM    H5G12821   4.372   5.033   6.690  0.1654 -1.8489  0.8786
  121OSM    C6F12822   4.543   5.091   6.822 -0.5221 -0.1751 -0.1437
  121OSM    H6F12823   4.591   5.186   6.856  1.7669 -1.3325 -0.0337
  121OSM    H6G12824   4.616   5.028   6.767 -0.9153 -1.2505  0.5440
  121OSM    C7F12825   4.498   5.023   6.955  0.1299  0.4639  0.2722
  121OSM    H7F12826   4.447   5.100   7.018 -1.5854  1.0529 -1.7641
  121OSM    H7G12827   4.584   4.994   7.019 -1.1401 -1.2000  1.2417
  121OSM    C8F12828   4.407   4.898   6.936 -0.5580 -0.0743  0.4714
  121OSM    H8F12829   4.458   4.836   6.859 -0.6587  2.0353 -1.3522
  121OSM    H8G12830   4.313   4.942   6.896  0.9105  1.0270 -1.8676
  121OSM    C9F12831   4.399   4.817   7.064 -0.0380  0.3674  0.0356
  121OSM    H9F12832   4.465   4.729   7.066  1.7622  1.7119  1.5291
  121OSM   C10F12833   4.301   4.836   7.155  0.4208  1.0832 -0.0667
  121OSM   H10F12834   4.314   4.770   7.241  0.6233  0.0629 -0.8727
  121OSM   C11F12835   4.192   4.940   7.137  0.1470  0.9917 -0.2171
  121OSM   H11F12836   4.194   4.986   7.036  1.3595  1.9575  0.2346
  121OSM   H11G12837   4.215   5.026   7.203 -0.0205  1.8246 -1.2153
  121OSM   C12F12838   4.052   4.891   7.183  0.6942  0.8736 -0.5065
  121OSM   H12F12839   4.059   4.889   7.294 -2.6751  0.4115 -0.2316
  121OSM   H12G12840   4.018   4.798   7.132 -3.9252  0.9450  2.1054
  121OSM   C13F12841   3.935   4.999   7.159 -0.2853  0.8423  0.0338
  121OSM   H13F12842   3.842   4.957   7.203  0.7161 -0.2206  1.1827
  121OSM   H13G12843   3.916   5.002   7.050  0.1892 -0.2192 -0.0897
  121OSM   C14F12844   3.963   5.135   7.232  0.1864 -0.2321  0.2276
  121OSM   H14F12845   3.935   5.215   7.160  2.4938 -0.2851 -0.7697
  121OSM   H14G12846   4.073   5.140   7.248  0.4412 -2.3746 -0.5917
  121OSM   C15F12847   3.882   5.167   7.356 -0.2906  0.1681  0.1170
  121OSM   H15F12848   3.908   5.264   7.402 -1.1941  0.8653 -0.8407
  121OSM   H15G12849   3.900   5.085   7.430 -1.0267 -0.3892 -0.3174
  121OSM   C16F12850   3.731   5.186   7.306 -0.9177 -1.1526 -0.3271
  121OSM   H16F12851   3.706   5.114   7.225 -2.0201  0.2935 -1.3046
  121OSM   H16G12852   3.723   5.283   7.251 -1.7311  0.2674  2.2422
  121OSM   C17F12853   3.614   5.188   7.411 -0.2937 -0.3077  1.6137
  121OSM   H17F12854   3.519   5.228   7.370 -1.3614 -1.7952  2.5721
  121OSM   H17G12855   3.661   5.256   7.486  1.9745 -1.8158  1.5992
  121OSM   C18F12856   3.594   5.052   7.480  0.4261  0.0220 -0.2492
  121OSM   H18F12857   3.549   4.978   7.410  0.1473  1.7883 -1.9991
  121OSM   H18G12858   3.529   5.050   7.570 -0.1468 -0.7843 -0.6765
  121OSM   H18H12859   3.699   5.023   7.501  0.7335  2.3709  1.6006
  122OSM      N12860   2.763   0.446   5.950 -0.2787 -0.6058  0.0562
  122OSM    C1512861   2.797   0.339   5.850 -0.8211  0.1131  0.3347
  122OSM   H15A12862   2.853   0.263   5.903 -1.5119 -0.7477 -0.1452
  122OSM   H15B12863   2.862   0.378   5.773 -1.9085  0.2879 -0.5015
  122OSM   H15C12864   2.706   0.295   5.812 -1.3259  0.7511  0.7808
  122OSM    C1412865   2.884   0.492   6.024  0.4629 -0.1017 -0.5752
  122OSM   H14A12866   2.863   0.570   6.096 -0.9029 -0.7937 -0.1921
  122OSM   H14B12867   2.961   0.530   5.959 -0.1657  2.6876  0.2358
  122OSM   H14C12868   2.914   0.409   6.085  0.7562  1.2777  1.2028
  122OSM    C1312869   2.708   0.573   5.873 -0.0916 -0.7938  0.1325
  122OSM   H13A12870   2.788   0.603   5.807 -0.5317  1.5755  0.6494
  122OSM   H13B12871   2.688   0.650   5.946  1.7163 -2.3927  2.4023
  122OSM   H13C12872   2.626   0.554   5.805  1.5822 -0.5490 -1.9993
  122OSM    C1212873   2.660   0.403   6.054 -0.0039  0.0712  0.2502
  122OSM   H12A12874   2.568   0.363   6.012 -0.9034  2.9797 -0.6406
  122OSM   H12B12875   2.622   0.491   6.102  1.6927  0.8060  0.2812
  122OSM    C1112876   2.713   0.301   6.167  0.2073 -0.4830  0.1825
  122OSM   H11A12877   2.620   0.285   6.226 -0.6503  1.1746 -0.6760
  122OSM   H11B12878   2.795   0.349   6.225  1.0289  1.9540 -2.8623
  122OSM      P12879   2.645   0.074   6.068  0.0703  0.3660  0.1309
  122OSM    O1312880   2.551   0.140   5.982  0.2419  0.2637  0.6327
  122OSM    O1412881   2.709  -0.049   6.016 -0.1208 -0.0774 -0.0720
  122OSM    O1112882   2.570   0.048   6.203  0.1911  0.2848  0.1165
  122OSM    O1212883   2.754   0.180   6.101  0.1787  0.9866 -0.8302
  122OSM    C1S12884   2.635  -0.011   6.315 -0.7620  0.6704 -0.2334
  122OSM    H1S12885   2.736   0.033   6.331  0.1186 -0.7372 -1.8174
  122OSM    H1T12886   2.638  -0.121   6.297 -0.0720  0.7911 -0.8782
  122OSM     NF12887   2.644  -0.032   6.562 -0.2535 -0.0091  0.2319
  122OSM    HNF12888   2.617  -0.122   6.594 -1.2683 -0.7284 -2.4752
  122OSM    C2S12889   2.560   0.018   6.451 -0.6810 -0.3192  0.0052
  122OSM    H2S12890   2.554   0.129   6.455  0.5251 -0.1148 -2.7006
  122OSM    C3S12891   2.415  -0.047   6.444 -1.2411  0.4574 -0.0091
  122OSM    H3S12892   2.419  -0.158   6.454  1.3946  0.5200 -0.1596
  122OSM     O312893   2.349  -0.017   6.324 -0.1435  0.1099  0.0743
  122OSM    HO312894   2.421   0.003   6.265 -0.4829 -1.7357 -0.9844
  122OSM    C4S12895   2.327   0.003   6.550  0.9348  0.3027 -0.4433
  122OSM    H4S12896   2.284   0.103   6.535 -0.4003 -0.0292  1.0243
  122OSM    C5S12897   2.285  -0.079   6.645 -0.0053  0.4081 -1.1184
  122OSM    H5S12898   2.331  -0.179   6.645 -1.6472 -0.3685 -1.6821
  122OSM    C6S12899   2.191  -0.040   6.757  0.5911  0.5139 -0.3741
  122OSM    H6S12900   2.153  -0.138   6.794  0.0790  1.4976  1.8331
  122OSM    H6T12901   2.097   0.010   6.723  1.0091  1.0271 -0.7923
  122OSM    C7S12902   2.242   0.048   6.869  0.3269 -0.7809 -0.9811
  122OSM    H7S12903   2.275   0.143   6.824 -1.4744  0.4765  0.2845
  122OSM    H7T12904   2.328  -0.004   6.917  0.5379  0.9174  0.5170
  122OSM    C8S12905   2.121   0.067   6.974 -0.0054  0.2674 -0.4500
  122OSM    H8S12906   2.107  -0.028   7.030 -1.6098 -0.0292 -1.3134
  122OSM    H8T12907   2.023   0.081   6.922  0.2522 -0.2754 -1.1028
  122OSM    C9S12908   2.153   0.186   7.067  0.0133 -0.1479 -0.0767
  122OSM    H9S12909   2.189   0.273   7.008 -1.0935 -0.3815 -1.1050
  122OSM    H9T12910   2.242   0.155   7.126 -0.2318  0.1243  0.4369
  122OSM   C10S12911   2.045   0.215   7.181  0.1284  0.4520  0.3998
  122OSM   H10S12912   1.998   0.116   7.201 -0.5490  0.4159 -1.2556
  122OSM   H10T12913   1.967   0.288   7.152 -0.5823  0.0044  1.1559
  122OSM   C11S12914   2.108   0.264   7.320 -0.5199 -0.1231  0.4257
  122OSM   H11S12915   2.163   0.359   7.300  0.5958 -1.1476 -1.6112
  122OSM   H11T12916   2.173   0.183   7.359 -0.1111 -0.8376 -1.6742
  122OSM   C12S12917   2.002   0.279   7.426 -0.1344  0.2628 -0.0076
  122OSM   H12S12918   1.948   0.184   7.447  0.3119  0.0191  0.0356
  122OSM   H12T12919   1.924   0.347   7.384  0.3246 -0.0128 -1.3571
  122OSM   C13S12920   2.049   0.349   7.556  0.0379  0.2680 -0.7162
  122OSM   H13S12921   2.075   0.457   7.544 -0.9189  0.5959  0.0673
  122OSM   H13T12922   2.133   0.286   7.592  0.8519  2.7997  2.0053
  122OSM   C14S12923   1.931   0.346   7.660 -0.3786 -1.1865  0.5345
  122OSM   H14S12924   1.889   0.243   7.663  0.0414 -1.3647  0.4078
  122OSM   H14T12925   1.850   0.416   7.630  0.5727 -0.4639 -0.3887
  122OSM   C15S12926   1.988   0.382   7.800  0.8991 -0.5126  0.0485
  122OSM   H15S12927   2.023   0.488   7.803  1.1332 -0.6024  0.5239
  122OSM   H15T12928   2.066   0.309   7.831  0.4880 -1.1979 -0.5237
  122OSM   C16S12929   1.874   0.371   7.898  0.2610 -0.3201 -0.0615
  122OSM   H16S12930   1.843   0.267   7.920  0.1390 -0.0779  0.9467
  122OSM   H16T12931   1.787   0.433   7.865 -0.3856 -0.3419  1.5101
  122OSM   C17S12932   1.915   0.428   8.036  0.8566 -0.3988  0.2543
  122OSM   H17S12933   1.896   0.534   8.013 -0.3319 -1.0918 -2.0477
  122OSM   H17T12934   2.023   0.418   8.063  0.4030 -0.8186  2.0192
  122OSM   C18S12935   1.824   0.377   8.156  0.2436  0.8824  0.6673
  122OSM   H18S12936   1.719   0.398   8.124 -0.4740 -1.4743  1.3818
  122OSM   H18T12937   1.849   0.437   8.246 -0.2714 -0.1639  1.5222
  122OSM   H18U12938   1.830   0.268   8.174 -0.6939  0.6809 -0.1364
  122OSM    C1F12939   2.763   0.012   6.605 -0.3232 -0.7495 -0.0039
  122OSM     OF12940   2.812   0.110   6.550  0.3186  0.4427 -0.0654
  122OSM    C2F12941   2.841  -0.074   6.714  0.5724  0.6288 -0.3273
  122OSM    H2F12942   2.908  -0.150   6.667 -1.6659 -0.9584 -1.0197
  122OSM    H2G12943   2.767  -0.129   6.776  0.2570 -1.7519 -2.7257
  122OSM    C3F12944   2.922   0.018   6.804  0.0090 -0.5984  0.3976
  122OSM    H3F12945   2.853   0.095   6.845 -0.9539  0.2230 -2.6034
  122OSM    H3G12946   3.004   0.068   6.749  0.9435 -1.4257  1.0251
  122OSM    C4F12947   2.983  -0.057   6.923 -0.7627 -0.7370  0.5316
  122OSM    H4F12948   3.052   0.008   6.980  0.7082 -2.0561  0.2972
  122OSM    H4G12949   3.043  -0.142   6.884  1.8853  0.9026  0.9235
  122OSM    C5F12950   2.884  -0.105   7.030  1.4792 -0.1871 -0.9230
  122OSM    H5F12951   2.810  -0.168   6.978  1.7301 -0.2483 -1.2055
  122OSM    H5G12952   2.820  -0.023   7.068  1.0742 -0.8723 -0.0960
  122OSM    C6F12953   2.953  -0.179   7.146 -0.4801 -0.6701 -0.1145
  122OSM    H6F12954   3.029  -0.118   7.200 -0.1386 -0.7285 -0.5209
  122OSM    H6G12955   3.007  -0.259   7.090  0.4214  0.9806 -1.6365
  122OSM    C7F12956   2.864  -0.244   7.250 -0.0215  0.2182 -0.5805
  122OSM    H7F12957   2.923  -0.312   7.315 -0.7828 -0.7239 -0.8621
  122OSM    H7G12958   2.790  -0.312   7.201 -0.0494  1.7420 -2.6885
  122OSM    C8F12959   2.788  -0.137   7.339  0.4099 -0.4890 -0.4799
  122OSM    H8F12960   2.716  -0.083   7.274  1.3320  1.5546  0.1424
  122OSM    H8G12961   2.862  -0.061   7.371 -1.6124  1.0336  0.7251
  122OSM    C9F12962   2.717  -0.205   7.451 -0.0919  0.0326  0.1861
  122OSM    H9F12963   2.610  -0.226   7.440 -0.1847  0.9453 -0.7139
  122OSM   C10F12964   2.778  -0.236   7.563 -0.2974 -0.3469 -0.6725
  122OSM   H10F12965   2.721  -0.291   7.639 -1.0718  0.4477 -0.6839
  122OSM   C11F12966   2.920  -0.205   7.604 -0.3218  0.2344 -0.5686
  122OSM   H11F12967   2.956  -0.113   7.554  2.1092 -0.5780 -0.3936
  122OSM   H11G12968   2.990  -0.281   7.564 -1.3588 -1.4785  0.8022
  122OSM   C12F12969   2.948  -0.188   7.752  0.7115  0.2905 -0.7826
  122OSM   H12F12970   2.880  -0.116   7.803  0.5038 -0.1615 -0.4233
  122OSM   H12G12971   3.049  -0.143   7.764  1.1816 -0.1813 -2.8080
  122OSM   C13F12972   2.940  -0.321   7.826 -0.7252 -0.2116 -0.8202
  122OSM   H13F12973   3.018  -0.387   7.783  1.0469  1.5165 -0.3348
  122OSM   H13G12974   2.842  -0.374   7.818 -1.5597  1.3392 -1.2403
  122OSM   C14F12975   2.975  -0.309   7.979  0.1053 -0.4185 -0.2166
  122OSM   H14F12976   2.893  -0.253   8.029  2.8887  1.9249  1.9535
  122OSM   H14G12977   3.070  -0.251   7.975  0.3610 -0.8492 -0.3714
  122OSM   C15F12978   2.978  -0.447   8.046 -0.4328 -0.2962  0.4493
  122OSM   H15F12979   3.042  -0.516   7.988 -1.0353 -0.6035  0.1416
  122OSM   H15G12980   2.878  -0.487   8.018  0.4025 -0.9977 -1.5747
  122OSM   C16F12981   3.005  -0.455   8.192  0.0762  0.6922  0.0458
  122OSM   H16F12982   3.014  -0.562   8.221  0.5450  0.4990 -0.7754
  122OSM   H16G12983   2.942  -0.396   8.261 -1.3881 -0.0998 -0.5890
  122OSM   C17F12984   3.153  -0.408   8.210 -0.3251 -0.1762  0.3654
  122OSM   H17F12985   3.149  -0.301   8.237 -0.2864 -0.1601  0.3077
  122OSM   H17G12986   3.213  -0.419   8.116  0.1148 -2.0217  0.8358
  122OSM   C18F12987   3.230  -0.472   8.321  0.0679  0.0965  0.3196
  122OSM   H18F12988   3.299  -0.410   8.382 -1.2877 -1.3216  3.4393
  122OSM   H18G12989   3.270  -0.569   8.284 -0.0710 -0.7613  2.3579
  122OSM   H18H12990   3.156  -0.512   8.394 -2.2865 -1.9032 -2.9983
  123OSM      N12991   0.291   2.520   6.367  0.7427 -0.4488 -0.4277
  123OSM    C1512992   0.219   2.497   6.232  0.7507  0.6224 -0.2615
  123OSM   H15A12993   0.284   2.469   6.151  0.6343 -0.2037 -0.0763
  123OSM   H15B12994   0.171   2.590   6.204  1.5754  1.7224  1.7885
  123OSM   H15C12995   0.147   2.417   6.239  2.7306 -1.2109 -0.5173
  123OSM    C1412996   0.408   2.619   6.342  0.7208  0.2678 -0.2883
  123OSM   H14A12997   0.484   2.563   6.289  0.3683  2.2587 -3.0053
  123OSM   H14B12998   0.444   2.649   6.439  1.0543  1.7787 -0.8755
  123OSM   H14C12999   0.373   2.705   6.286 -0.3856  2.1425  3.1591
  123OSM    C1313000   0.198   2.591   6.467  0.0934  0.2583 -0.6171
  123OSM   H13A13001   0.262   2.612   6.552  2.2235  0.2323 -2.1626
  123OSM   H13B13002   0.113   2.531   6.493  0.6300  0.3086  1.3256
  123OSM   H13C13003   0.159   2.690   6.449 -0.6858  0.1054  0.1836
  123OSM    C1213004   0.331   2.384   6.412  0.4421 -0.1485  0.4745
  123OSM   H12A13005   0.237   2.331   6.417  1.2305 -1.5326  0.6705
  123OSM   H12B13006   0.358   2.390   6.516 -0.2815  0.6772  0.6173
  123OSM    C1113007   0.434   2.295   6.341  0.0516 -0.5879  0.6293
  123OSM   H11A13008   0.405   2.276   6.236  0.5697  1.1967  0.1427
  123OSM   H11B13009   0.420   2.193   6.384 -0.7320 -0.7592 -0.0230
  123OSM      P13010   0.649   2.334   6.481 -0.1604 -0.2981  0.4633
  123OSM    O1313011   0.756   2.234   6.461 -0.7865 -0.3354 -0.3025
  123OSM    O1413012   0.702   2.467   6.512 -0.2175  0.0176  0.0234
  123OSM    O1113013   0.554   2.279   6.595  0.2034  0.2672 -0.2614
  123OSM    O1213014   0.568   2.344   6.348  0.0312 -0.0755 -0.2508
  123OSM    C1S13015   0.594   2.294   6.737  0.4566 -0.3694  0.3290
  123OSM    H1S13016   0.603   2.403   6.756  0.5479 -0.5835  1.5297
  123OSM    H1T13017   0.697   2.261   6.761  1.2838  2.2530  0.5445
  123OSM     NF13018   0.518   2.257   6.973 -0.5030 -0.3983 -0.0271
  123OSM    HNF13019   0.553   2.184   7.032 -2.2563 -0.2787  1.1820
  123OSM    C2S13020   0.492   2.223   6.834  0.0975 -0.3102  0.2444
  123OSM    H2S13021   0.390   2.264   6.819  0.1698  0.1431  0.9653
  123OSM    C3S13022   0.489   2.068   6.811 -0.2578 -0.2332 -0.0564
  123OSM    H3S13023   0.595   2.034   6.803  0.5301  2.5045 -2.1960
  123OSM     O313024   0.448   2.040   6.674  0.1675 -0.9678 -0.0345
  123OSM    HO313025   0.473   2.115   6.620 -0.3623 -0.0703  0.9624
  123OSM    C4S13026   0.401   2.004   6.911 -0.0427 -0.8777 -0.0731
  123OSM    H4S13027   0.448   1.958   6.999  1.2142 -1.2591 -0.9262
  123OSM    C5S13028   0.264   1.997   6.899 -0.3012  0.3482 -0.4306
  123OSM    H5S13029   0.226   2.033   6.803 -2.1461 -2.4068 -0.7806
  123OSM    C6S13030   0.159   1.942   6.996  0.3159 -0.1926  0.0579
  123OSM    H6S13031   0.095   1.870   6.941  0.3474  0.6027 -1.0549
  123OSM    H6T13032   0.081   2.019   7.014 -1.1526 -1.6351 -0.0538
  123OSM    C7S13033   0.217   1.879   7.130  0.5328  0.4457 -0.0392
  123OSM    H7S13034   0.293   1.945   7.177  1.5214  0.7538 -2.0306
  123OSM    H7T13035   0.265   1.781   7.111 -1.7772 -0.4141 -1.6562
  123OSM    C8S13036   0.106   1.841   7.224  0.3418  0.5643 -0.3559
  123OSM    H8S13037   0.050   1.757   7.178 -0.9287  1.1672  0.0655
  123OSM    H8T13038   0.047   1.929   7.257  0.5206  0.2039  0.9510
  123OSM    C9S13039   0.156   1.791   7.362  0.4220  1.1514  0.4302
  123OSM    H9S13040   0.252   1.846   7.378  0.4938  0.9258  0.7766
  123OSM    H9T13041   0.183   1.684   7.348  0.7596  1.5747 -2.4400
  123OSM   C10S13042   0.055   1.807   7.473  0.2163  0.0306  0.0867
  123OSM   H10S13043  -0.036   1.758   7.433  1.4311 -2.6027  0.4668
  123OSM   H10T13044   0.042   1.912   7.506  1.1779  0.2642 -0.2345
  123OSM   C11S13045   0.093   1.737   7.595  0.0985 -0.6015 -0.0664
  123OSM   H11S13046   0.186   1.775   7.642  0.5294 -2.4058  0.5825
  123OSM   H11T13047   0.116   1.630   7.575  1.3041 -0.7218  1.9293
  123OSM   C12S13048  -0.011   1.733   7.709  0.5459  0.8166  0.4603
  123OSM   H12S13049  -0.100   1.679   7.670  0.2909  1.2392  0.4595
  123OSM   H12T13050  -0.042   1.837   7.730  0.6673  1.0132 -0.3499
  123OSM   C13S13051   0.041   1.684   7.838  0.5230  0.1464 -0.7717
  123OSM   H13S13052   0.151   1.671   7.836  0.7087  0.7781  2.1764
  123OSM   H13T13053  -0.008   1.586   7.855  1.8440 -0.5139 -0.6896
  123OSM   C14S13054   0.017   1.780   7.955  0.4153 -0.2919 -0.3840
  123OSM   H14S13055  -0.092   1.792   7.977  0.2671 -1.6148 -0.3401
  123OSM   H14T13056   0.060   1.878   7.927 -0.0271 -0.0081 -0.0758
  123OSM   C15S13057   0.080   1.716   8.085 -0.6239 -0.0540  0.7441
  123OSM   H15S13058   0.187   1.710   8.055 -0.9187 -1.9823 -0.0507
  123OSM   H15T13059   0.038   1.613   8.096  1.1100 -0.6801  1.6988
  123OSM   C16S13060   0.046   1.788   8.216  0.0067  0.1920  0.0254
  123OSM   H16S13061  -0.064   1.794   8.228  0.0778  1.4607  0.1535
  123OSM   H16T13062   0.069   1.894   8.191 -0.6386  0.2570 -0.3138
  123OSM   C17S13063   0.107   1.726   8.338 -0.5396  0.3437  0.7383
  123OSM   H17S13064   0.215   1.713   8.315 -0.4368  0.9297  0.8868
  123OSM   H17T13065   0.069   1.622   8.349 -2.6760  0.7015 -2.4583
  123OSM   C18S13066   0.099   1.824   8.452  0.4344 -0.6794 -0.0397
  123OSM   H18S13067   0.136   1.774   8.544  0.4681  0.1740  0.4240
  123OSM   H18T13068  -0.009   1.845   8.464  0.3596  0.1562 -1.9267
  123OSM   H18U13069   0.155   1.918   8.429 -0.9515 -0.5716 -3.1270
  123OSM    C1F13070   0.501   2.382   7.021  0.5986  0.2060 -0.5833
  123OSM     OF13071   0.489   2.480   6.949  0.5530 -0.1598 -0.4718
  123OSM    C2F13072   0.498   2.390   7.176 -0.5136  0.6035  0.0874
  123OSM    H2F13073   0.576   2.325   7.219  0.4077  1.2612 -0.5662
  123OSM    H2G13074   0.397   2.356   7.208  0.3961 -1.2695  1.0180
  123OSM    C3F13075   0.521   2.537   7.226  0.3607  0.0061 -0.1424
  123OSM    H3F13076   0.444   2.611   7.194  0.8310  1.3871  1.8237
  123OSM    H3G13077   0.625   2.566   7.198 -0.2773  2.4789 -0.0644
  123OSM    C4F13078   0.513   2.533   7.378 -0.0149  0.2072  0.0811
  123OSM    H4F13079   0.577   2.445   7.403  0.5862  0.4531 -0.5915
  123OSM    H4G13080   0.409   2.515   7.413 -0.6379 -0.8963 -2.2551
  123OSM    C5F13081   0.565   2.659   7.447  0.0046  0.3627  0.0854
  123OSM    H5F13082   0.501   2.748   7.432 -2.6302 -1.4603  0.1214
  123OSM    H5G13083   0.671   2.681   7.422  0.7659 -1.3902  1.6299
  123OSM    C6F13084   0.575   2.630   7.597  0.1625 -0.2358 -0.0112
  123OSM    H6F13085   0.630   2.713   7.645 -1.6283 -0.3070  2.2499
  123OSM    H6G13086   0.626   2.532   7.609  0.0536 -0.2867  0.0430
  123OSM    C7F13087   0.439   2.622   7.670 -0.7075 -0.3577 -0.0379
  123OSM    H7F13088   0.370   2.551   7.619  1.3885 -0.9226 -2.1719
  123OSM    H7G13089   0.390   2.722   7.665 -2.1116 -1.1041 -1.8015
  123OSM    C8F13090   0.456   2.584   7.817  0.4829 -0.0788  0.0413
  123OSM    H8F13091   0.495   2.480   7.811 -0.6179 -0.6157  1.9911
  123OSM    H8G13092   0.356   2.596   7.864  0.7098  0.2937  0.4190
  123OSM    C9F13093   0.561   2.658   7.894 -0.1112  0.1826 -0.3369
  123OSM    H9F13094   0.663   2.650   7.855  0.0103  2.0815 -0.4691
  123OSM   C10F13095   0.537   2.726   8.004 -0.3751 -0.1462 -0.1979
  123OSM   H10F13096   0.627   2.768   8.053  0.7935 -2.7653 -0.0411
  123OSM   C11F13097   0.407   2.765   8.068  0.1080 -0.3694 -1.0727
  123OSM   H11F13098   0.319   2.758   8.001 -1.3027  1.2218  0.5688
  123OSM   H11G13099   0.408   2.875   8.081 -0.3035 -0.2575 -1.9715
  123OSM   C12F13100   0.369   2.695   8.195  0.0562  0.2386  0.1231
  123OSM   H12F13101   0.283   2.749   8.240 -0.4334  0.2062 -0.7623
  123OSM   H12G13102   0.449   2.696   8.271 -0.2724 -2.3067  0.5377
  123OSM   C13F13103   0.348   2.543   8.173  0.3804  0.0825 -0.3792
  123OSM   H13F13104   0.424   2.495   8.108  0.7296 -0.8469  0.6869
  123OSM   H13G13105   0.251   2.544   8.119 -1.4093  0.6857  2.7053
  123OSM   C14F13106   0.337   2.468   8.308 -0.9270  0.2125 -0.2325
  123OSM   H14F13107   0.264   2.516   8.376 -0.9948 -0.5305  0.2278
  123OSM   H14G13108   0.439   2.468   8.353 -0.7500  0.4471 -0.6369
  123OSM   C15F13109   0.293   2.323   8.283  0.4222  0.1904  0.2166
  123OSM   H15F13110   0.351   2.275   8.200 -3.4358 -1.2806 -1.7778
  123OSM   H15G13111   0.188   2.305   8.249  0.8693  0.5165 -1.4130
  123OSM   C16F13112   0.304   2.237   8.409 -0.6152 -0.7013 -0.0971
  123OSM   H16F13113   0.412   2.244   8.435 -0.7971 -1.7868  1.0043
  123OSM   H16G13114   0.285   2.132   8.381 -0.8595 -0.3202 -1.4008
  123OSM   C17F13115   0.214   2.274   8.517 -0.3969  0.3879 -0.6262
  123OSM   H17F13116   0.108   2.260   8.486 -0.3216  0.2309 -0.8118
  123OSM   H17G13117   0.229   2.379   8.551  0.0853 -0.1564  0.9031
  123OSM   C18F13118   0.243   2.187   8.641  0.6926 -0.1099 -0.0262
  123OSM   H18F13119   0.334   2.240   8.675  0.1066  1.0000 -0.1654
  123OSM   H18G13120   0.269   2.082   8.614  0.8965 -0.1940  0.5111
  123OSM   H18H13121   0.164   2.197   8.719  1.9516  0.4686  1.1860
  124OSM      N13122   0.882   5.296   5.960  0.0925 -0.1653  0.0724
  124OSM    C1513123   0.998   5.310   5.878 -0.6503 -0.0837  0.0427
  124OSM   H15A13124   1.083   5.340   5.938 -0.9679 -0.2509  0.5719
  124OSM   H15B13125   0.995   5.367   5.786  0.2725 -1.6216 -0.9736
  124OSM   H15C13126   1.019   5.210   5.843 -1.7954 -0.2004 -0.3365
  124OSM    C1413127   0.826   5.432   5.981  0.0154 -1.2182  0.1463
  124OSM   H14A13128   0.733   5.420   6.036 -1.6351 -4.1728 -3.0697
  124OSM   H14B13129   0.802   5.493   5.895 -1.0351  0.3654  1.5220
  124OSM   H14C13130   0.886   5.494   6.046  0.6194  0.1284 -1.6485
  124OSM    C1313131   0.769   5.222   5.894 -0.1386 -0.2599  0.2641
  124OSM   H13A13132   0.807   5.124   5.872  1.4681 -0.1458  2.2861
  124OSM   H13B13133   0.725   5.267   5.807 -1.1507  2.2621  2.0173
  124OSM   H13C13134   0.688   5.221   5.965 -1.6750 -0.6643 -1.4810
  124OSM    C1213135   0.917   5.226   6.089 -0.9194 -0.3797 -0.2759
  124OSM   H12A13136   0.945   5.123   6.072 -1.2978 -0.1329 -2.6071
  124OSM   H12B13137   0.831   5.225   6.154 -0.1504  0.6204  0.7878
  124OSM    C1113138   1.034   5.291   6.174 -0.0406 -0.0398  0.2267
  124OSM   H11A13139   1.045   5.260   6.280  0.7089  0.4646  0.3038
  124OSM   H11B13140   1.004   5.398   6.180 -0.9727 -0.2546 -0.4288
  124OSM      P13141   1.248   5.151   6.120  0.0939 -0.3376  0.3762
  124OSM    O1313142   1.173   5.024   6.088 -0.2067 -0.5001 -0.1456
  124OSM    O1413143   1.378   5.175   6.051 -0.1263  0.1525  0.0106
  124OSM    O1113144   1.274   5.150   6.279 -0.1978  0.4904 -0.1615
  124OSM    O1213145   1.158   5.277   6.109  0.0475  0.3229  0.1333
  124OSM    C1S13146   1.317   5.272   6.333  0.0938 -0.1496  0.5610
  124OSM    H1S13147   1.228   5.336   6.354  0.8850  0.3856  2.3256
  124OSM    H1T13148   1.380   5.327   6.260 -2.4606 -0.2174 -1.7855
  124OSM     NF13149   1.424   5.377   6.521 -0.0337 -0.3909 -0.0791
  124OSM    HNF13150   1.502   5.428   6.484  0.0052 -0.1283  0.3664
  124OSM    C2S13151   1.398   5.248   6.462 -0.4457  0.4429 -0.5112
  124OSM    H2S13152   1.345   5.178   6.529  1.8759 -0.6466  0.2352
  124OSM    C3S13153   1.531   5.167   6.422 -0.6102  0.0754  0.2509
  124OSM    H3S13154   1.590   5.227   6.349  0.3516 -1.9334 -0.6524
  124OSM     O313155   1.501   5.045   6.354 -0.0176  0.3450 -1.4007
  124OSM    HO313156   1.412   5.060   6.321 -1.1536 -0.8830  0.9084
  124OSM    C4S13157   1.626   5.138   6.526  0.2979  0.4412 -0.2940
  124OSM    H4S13158   1.703   5.216   6.529 -1.0064  1.7596 -0.5770
  124OSM    C5S13159   1.627   5.031   6.612 -0.9925  0.3013  0.2160
  124OSM    H5S13160   1.542   4.962   6.607 -0.3673 -0.4014 -0.7986
  124OSM    C6S13161   1.735   4.993   6.711 -0.0079 -0.1865  0.2348
  124OSM    H6S13162   1.814   5.070   6.723  1.8390 -2.1003  0.7616
  124OSM    H6T13163   1.797   4.906   6.678 -0.1180  0.0971 -0.7317
  124OSM    C7S13164   1.676   4.963   6.851  0.4736 -0.0012  0.4312
  124OSM    H7S13165   1.602   4.882   6.836  1.2594 -0.2005 -2.8314
  124OSM    H7T13166   1.628   5.057   6.886  0.2719 -0.8822  2.5536
  124OSM    C8S13167   1.783   4.921   6.947 -0.0147  0.5216  0.1868
  124OSM    H8S13168   1.867   4.992   6.960 -0.8771  1.8019 -1.0069
  124OSM    H8T13169   1.823   4.828   6.900 -3.7941  0.5908 -3.5032
  124OSM    C9S13170   1.720   4.896   7.084  0.2071  0.7733 -0.0552
  124OSM    H9S13171   1.658   4.804   7.083 -0.2478  1.0415  1.7292
  124OSM    H9T13172   1.653   4.983   7.098 -1.3901 -0.3929 -0.2415
  124OSM   C10S13173   1.821   4.886   7.201  0.3223  0.2495  0.3611
  124OSM   H10S13174   1.858   4.988   7.223  0.4590  0.0899  0.8739
  124OSM   H10T13175   1.906   4.825   7.164 -0.6804 -0.1299 -1.3696
  124OSM   C11S13176   1.758   4.838   7.333 -0.3969  0.2275  0.2311
  124OSM   H11S13177   1.712   4.739   7.316  2.8803 -1.2218 -0.5935
  124OSM   H11T13178   1.672   4.905   7.356 -0.8729 -0.2740 -0.0933
  124OSM   C12S13179   1.850   4.842   7.454  0.6569  0.3955  0.1429
  124OSM   H12S13180   1.866   4.950   7.470 -0.4282  0.4584  0.8665
  124OSM   H12T13181   1.946   4.800   7.416 -0.2628  0.0307 -1.8352
  124OSM   C13S13182   1.796   4.772   7.580  0.0266  0.0765 -0.4348
  124OSM   H13S13183   1.783   4.664   7.561 -0.2382  0.4080 -2.2456
  124OSM   H13T13184   1.700   4.825   7.598 -0.2046 -0.6381  0.4411
  124OSM   C14S13185   1.876   4.785   7.705  0.1396  1.0891 -0.2669
  124OSM   H14S13186   1.906   4.891   7.722  2.1804  0.7444 -1.5385
  124OSM   H14T13187   1.973   4.730   7.698 -0.6309 -0.1948 -1.0230
  124OSM   C15S13188   1.795   4.720   7.831 -0.0563 -0.3118 -0.1539
  124OSM   H15S13189   1.771   4.617   7.799  3.4868 -1.3946  0.4378
  124OSM   H15T13190   1.698   4.773   7.839 -1.0045 -1.6447 -2.5062
  124OSM   C16S13191   1.873   4.705   7.961  0.3446  0.3400  0.2667
  124OSM   H16S13192   1.862   4.805   8.008 -1.2406 -0.2851  1.2535
  124OSM   H16T13193   1.977   4.669   7.943  1.2452  2.5120  0.8404
  124OSM   C17S13194   1.823   4.611   8.065  0.3971 -0.0194 -0.1686
  124OSM   H17S13195   1.835   4.507   8.028 -1.5170 -0.9273  1.6387
  124OSM   H17T13196   1.712   4.619   8.072  0.4361 -0.8085  1.7486
  124OSM   C18S13197   1.896   4.614   8.198  0.0688  0.4394 -0.1219
  124OSM   H18S13198   1.854   4.550   8.278  1.4367 -0.3035  0.0138
  124OSM   H18T13199   1.903   4.719   8.235  2.5096 -0.3771  1.8059
  124OSM   H18U13200   2.006   4.598   8.193  0.3645  2.1789  0.3123
  124OSM    C1F13201   1.327   5.438   6.590  0.1193  0.2633 -0.3448
  124OSM     OF13202   1.226   5.378   6.620 -0.1584 -0.1667  0.1319
  124OSM    C2F13203   1.333   5.587   6.606  0.1307  0.5857 -0.5183
  124OSM    H2F13204   1.276   5.627   6.520  2.6099  1.3344 -1.8592
  124OSM    H2G13205   1.439   5.621   6.609  0.2371  0.2489 -0.3791
  124OSM    C3F13206   1.257   5.634   6.725 -0.5171  0.2040  0.6638
  124OSM    H3F13207   1.151   5.602   6.715  0.0375 -1.5363  0.1490
  124OSM    H3G13208   1.255   5.745   6.725 -0.1641  0.2078  0.4245
  124OSM    C4F13209   1.317   5.598   6.857 -1.0508 -1.0480  0.1788
  124OSM    H4F13210   1.424   5.629   6.860 -1.3950  0.3739 -1.5436
  124OSM    H4G13211   1.303   5.488   6.865 -0.7262 -1.0932  0.1216
  124OSM    C5F13212   1.245   5.660   6.978 -0.5376 -0.7555 -0.8062
  124OSM    H5F13213   1.135   5.651   6.967 -0.9381  1.2590  1.3795
  124OSM    H5G13214   1.275   5.767   6.974 -2.5184 -0.1487 -0.1587
  124OSM    C6F13215   1.285   5.606   7.113  0.5243 -0.1090 -0.6677
  124OSM    H6F13216   1.395   5.600   7.125  0.5242 -1.0411 -1.0732
  124OSM    H6G13217   1.258   5.499   7.118  1.8061 -0.4811 -1.5322
  124OSM    C7F13218   1.211   5.682   7.236  0.1779  0.0567 -0.4028
  124OSM    H7F13219   1.102   5.666   7.220 -0.1856  0.6383  1.3184
  124OSM    H7G13220   1.236   5.790   7.237  0.7362 -0.0583 -1.6697
  124OSM    C8F13221   1.245   5.629   7.371  0.2948 -0.0704 -0.1049
  124OSM    H8F13222   1.355   5.647   7.372 -0.0906  2.5362 -0.4978
  124OSM    H8G13223   1.236   5.518   7.374  1.0103 -0.2008 -1.7689
  124OSM    C9F13224   1.173   5.700   7.481  0.1396 -0.4573  0.2223
  124OSM    H9F13225   1.147   5.802   7.452  0.3756 -0.1404  1.0861
  124OSM   C10F13226   1.138   5.655   7.603  0.2657 -0.2269  0.1228
  124OSM   H10F13227   1.090   5.735   7.662 -2.9041  0.1870 -2.8183
  124OSM   C11F13228   1.169   5.513   7.649  0.3304  0.1206 -0.1728
  124OSM   H11F13229   1.146   5.443   7.566 -1.4700  1.3203 -0.7235
  124OSM   H11G13230   1.100   5.484   7.731  1.6181  0.2315  0.9613
  124OSM   C12F13231   1.314   5.480   7.707 -0.1715 -0.1901  0.4224
  124OSM   H12F13232   1.379   5.502   7.620  0.2447  1.1585  1.0519
  124OSM   H12G13233   1.323   5.374   7.737  0.1947 -0.3164 -0.1453
  124OSM   C13F13234   1.362   5.567   7.830 -0.1318 -0.1217 -1.0286
  124OSM   H13F13235   1.360   5.676   7.807  0.5780  0.3991  1.2219
  124OSM   H13G13236   1.469   5.540   7.836 -0.3862 -0.6123  1.6383
  124OSM   C14F13237   1.288   5.540   7.967  0.1071 -0.5951  0.2759
  124OSM   H14F13238   1.296   5.434   8.001  2.3810 -0.0382  1.5664
  124OSM   H14G13239   1.183   5.575   7.957  0.4676  0.5091  0.2680
  124OSM   C15F13240   1.345   5.633   8.073 -0.3115 -0.4985  0.0757
  124OSM   H15F13241   1.339   5.733   8.026  1.8939 -0.9253 -1.1830
  124OSM   H15G13242   1.453   5.623   8.098  0.5053  3.0742 -1.7223
  124OSM   C16F13243   1.256   5.629   8.200  0.0527 -0.4934 -0.6760
  124OSM   H16F13244   1.257   5.526   8.242  0.2937 -0.1312  0.2010
  124OSM   H16G13245   1.149   5.643   8.175 -0.6095 -0.8981  1.8304
  124OSM   C17F13246   1.299   5.731   8.302 -0.1189 -0.6528 -0.7122
  124OSM   H17F13247   1.226   5.728   8.386 -0.7784 -2.4597 -1.3182
  124OSM   H17G13248   1.283   5.830   8.255  2.0314  0.2136  0.3273
  124OSM   C18F13249   1.431   5.711   8.366 -0.2247  0.5040 -0.2796
  124OSM   H18F13250   1.446   5.789   8.443 -0.3455  1.1113 -0.8720
  124OSM   H18G13251   1.522   5.709   8.302 -0.2086  0.7861 -0.2659
  124OSM   H18H13252   1.424   5.613   8.419 -0.7390  0.0475 -1.1735
  125OSM      N13253   3.961   3.500   5.910 -0.3085 -0.1143  0.3088
  125OSM    C1513254   3.844   3.429   5.843  0.6238 -0.0217 -0.0905
  125OSM   H15A13255   3.840   3.323   5.863  0.7267  0.1176  0.6711
  125OSM   H15B13256   3.846   3.450   5.737  0.1558 -0.8388 -0.2668
  125OSM   H15C13257   3.749   3.474   5.866 -0.4454 -2.6645  0.8095
  125OSM    C1413258   4.077   3.412   5.875 -0.1101  0.5004  0.1012
  125OSM   H14A13259   4.062   3.309   5.903 -1.4655  0.7890  0.4678
  125OSM   H14B13260   4.156   3.440   5.944 -0.6510 -0.4643  1.1436
  125OSM   H14C13261   4.099   3.420   5.770 -2.0051 -1.6678 -0.5085
  125OSM    C1313262   3.974   3.633   5.856 -0.5187  0.4643  0.4280
  125OSM   H13A13263   4.058   3.686   5.898  0.1714  1.0467 -1.6499
  125OSM   H13B13264   3.890   3.700   5.856  2.2517  4.1016  0.6766
  125OSM   H13C13265   3.990   3.623   5.750 -1.7875 -2.8606  0.4876
  125OSM    C1213266   3.938   3.506   6.060  0.5544 -0.7266 -0.0105
  125OSM   H12A13267   3.901   3.410   6.095 -3.4463  1.4197  2.0601
  125OSM   H12B13268   3.852   3.567   6.082 -0.2713 -1.8713  0.0341
  125OSM    C1113269   4.046   3.562   6.154  0.1027  0.0240  0.1391
  125OSM   H11A13270   4.137   3.505   6.125 -1.0639 -1.2399 -1.1518
  125OSM   H11B13271   4.027   3.535   6.261 -0.2012 -2.8857 -0.6016
  125OSM      P13272   4.013   3.816   6.227 -0.0543 -0.5113 -0.3814
  125OSM    O1313273   4.055   3.954   6.178  0.5857  0.7972  0.3317
  125OSM    O1413274   3.872   3.789   6.270 -0.2024 -0.5463  0.2997
  125OSM    O1113275   4.105   3.770   6.349 -0.4896  0.1436  0.4576
  125OSM    O1213276   4.074   3.704   6.127  0.2062 -0.0843 -0.0717
  125OSM    C1S13277   4.064   3.807   6.474  0.0197  0.8361  0.8588
  125OSM    H1S13278   3.970   3.753   6.497  0.0209  0.4337 -0.0689
  125OSM    H1T13279   4.045   3.916   6.477 -0.6043  0.7390  0.4085
  125OSM     NF13280   4.108   3.772   6.720 -0.2837  0.3706 -0.1091
  125OSM    HNF13281   4.117   3.860   6.765  1.4293  0.3742 -0.4298
  125OSM    C2S13282   4.163   3.762   6.585  0.7891 -0.2847  0.8020
  125OSM    H2S13283   4.201   3.660   6.565  2.7540  0.6411 -0.4080
  125OSM    C3S13284   4.292   3.850   6.570 -0.2640 -0.4784 -0.3092
  125OSM    H3S13285   4.271   3.959   6.559  1.8400  0.2709  2.6210
  125OSM     O313286   4.361   3.832   6.443 -0.2708  0.3409  0.5601
  125OSM    HO313287   4.297   3.785   6.390  2.9474 -0.9837 -2.3197
  125OSM    C4S13288   4.394   3.834   6.679 -0.5239  0.3692  0.8465
  125OSM    H4S13289   4.414   3.726   6.692  1.0263  0.6848  1.2150
  125OSM    C5S13290   4.450   3.933   6.756  0.3705  0.0248 -0.6603
  125OSM    H5S13291   4.410   4.036   6.749  0.1873  0.0624  0.7937
  125OSM    C6S13292   4.546   3.922   6.867 -0.8242 -0.1260  0.1915
  125OSM    H6S13293   4.588   4.022   6.891  0.9388 -0.8529  0.2522
  125OSM    H6T13294   4.628   3.854   6.834  1.6596  1.8132  2.1616
  125OSM    C7S13295   4.496   3.865   6.997  0.4442  0.0085  0.0735
  125OSM    H7S13296   4.590   3.822   7.037  0.2467 -0.9648 -0.5102
  125OSM    H7T13297   4.416   3.788   6.990  1.4819 -1.2954  2.1466
  125OSM    C8S13298   4.439   3.960   7.107 -0.2275  0.4642  0.2681
  125OSM    H8S13299   4.331   3.984   7.090 -0.2159 -0.5227 -1.2407
  125OSM    H8T13300   4.502   4.051   7.118 -0.7811  0.6251  2.5153
  125OSM    C9S13301   4.430   3.892   7.248 -0.4329 -0.4726 -0.0819
  125OSM    H9S13302   4.356   3.810   7.246 -0.1171 -0.8456  2.3070
  125OSM    H9T13303   4.387   3.969   7.316  0.3086  2.1863 -2.5345
  125OSM   C10S13304   4.551   3.832   7.311  0.5844  0.5901 -0.7431
  125OSM   H10S13305   4.578   3.741   7.254 -0.1921 -0.4514  0.5364
  125OSM   H10T13306   4.518   3.812   7.415 -0.4921  1.6360 -0.8711
  125OSM   C11S13307   4.669   3.930   7.329 -0.0035 -0.3909  0.4265
  125OSM   H11S13308   4.705   3.970   7.232 -1.4128  0.3874  0.2107
  125OSM   H11T13309   4.754   3.871   7.369 -0.5243 -0.9704  0.6929
  125OSM   C12S13310   4.638   4.048   7.424 -0.4391  0.3112  0.4590
  125OSM   H12S13311   4.547   4.095   7.381 -0.2737 -1.0587 -1.4376
  125OSM   H12T13312   4.726   4.115   7.410 -0.8141  0.5413 -0.9292
  125OSM   C13S13313   4.635   4.002   7.571 -0.3332  1.1125  0.5114
  125OSM   H13S13314   4.716   3.930   7.596  0.3286  1.1130 -1.5689
  125OSM   H13T13315   4.540   3.946   7.587 -0.7673  2.2366  1.9689
  125OSM   C14S13316   4.646   4.124   7.670 -0.4112 -0.8245 -0.0621
  125OSM   H14S13317   4.549   4.175   7.653 -0.8401 -1.6186 -0.0104
  125OSM   H14T13318   4.730   4.189   7.637 -1.0960 -1.0562 -2.2919
  125OSM   C15S13319   4.659   4.096   7.823 -0.0522  0.2994 -0.6944
  125OSM   H15S13320   4.726   4.011   7.846 -0.2469  0.7466  1.6322
  125OSM   H15T13321   4.559   4.055   7.849  1.2365 -2.1450  0.5288
  125OSM   C16S13322   4.691   4.223   7.908 -0.7948 -0.8209 -0.3144
  125OSM   H16S13323   4.652   4.317   7.862  0.9950  0.4914  0.7656
  125OSM   H16T13324   4.801   4.239   7.901 -0.9638 -0.3896 -2.2015
  125OSM   C17S13325   4.638   4.230   8.055 -0.0261  0.2635 -0.9615
  125OSM   H17S13326   4.676   4.148   8.120  1.2975  2.6124  1.3556
  125OSM   H17T13327   4.530   4.204   8.048  0.0089 -0.7973  1.6159
  125OSM   C18S13328   4.648   4.368   8.121 -0.2811  0.3245  0.3594
  125OSM   H18S13329   4.626   4.352   8.229 -0.1612  2.9103  0.7868
  125OSM   H18T13330   4.571   4.435   8.077 -0.6932 -0.4462 -0.1160
  125OSM   H18U13331   4.749   4.414   8.118  1.0439 -2.4522  0.7922
  125OSM    C1F13332   4.008   3.695   6.768 -0.3813  0.2341  0.4449
  125OSM     OF13333   3.964   3.603   6.703 -0.6269 -0.0008  0.2361
  125OSM    C2F13334   3.954   3.735   6.901  0.4387  0.1792  0.5835
  125OSM    H2F13335   3.861   3.678   6.922 -0.8218  1.4368 -1.3999
  125OSM    H2G13336   3.930   3.843   6.905  1.3391  0.3706  0.8242
  125OSM    C3F13337   4.041   3.702   7.024  0.3381  0.1587 -0.0598
  125OSM    H3F13338   4.116   3.782   7.043  0.5235 -0.0610  0.1447
  125OSM    H3G13339   4.097   3.610   6.997  0.5840  0.2953 -0.0206
  125OSM    C4F13340   3.960   3.688   7.153 -0.4436  0.6476  0.1088
  125OSM    H4F13341   3.882   3.609   7.146 -0.5153  0.6452  0.9497
  125OSM    H4G13342   3.909   3.783   7.179  0.9537  1.3799  0.1979
  125OSM    C5F13343   4.049   3.656   7.265  0.7214 -1.0622  0.1921
  125OSM    H5F13344   4.137   3.724   7.263  0.6094 -0.9499 -0.8541
  125OSM    H5G13345   4.084   3.552   7.250 -0.6941 -1.8160  1.7884
  125OSM    C6F13346   3.994   3.666   7.409 -0.0520 -0.1904 -0.2784
  125OSM    H6F13347   3.915   3.588   7.423  0.6691 -1.2560 -2.0032
  125OSM    H6G13348   3.957   3.770   7.422  0.2182  0.1745 -2.3106
  125OSM    C7F13349   4.109   3.645   7.508  0.4389 -0.5387  0.0404
  125OSM    H7F13350   4.197   3.711   7.493  1.0399 -1.2934  0.2290
  125OSM    H7G13351   4.157   3.550   7.477  1.8259 -0.1448  0.9564
  125OSM    C8F13352   4.065   3.638   7.657 -0.2466 -0.1774  0.0515
  125OSM    H8F13353   4.098   3.549   7.715  1.4394 -0.0748 -0.7412
  125OSM    H8G13354   3.955   3.625   7.644 -0.4134 -0.6894  1.8594
  125OSM    C9F13355   4.080   3.767   7.735 -0.2480 -0.5848 -0.0002
  125OSM    H9F13356   3.988   3.827   7.726 -0.3572 -0.9178 -1.1767
  125OSM   C10F13357   4.187   3.828   7.787  0.5025  0.0582  0.1615
  125OSM   H10F13358   4.168   3.914   7.853 -2.3431  0.2144 -0.8041
  125OSM   C11F13359   4.327   3.776   7.790 -0.8292  0.6991 -0.0569
  125OSM   H11F13360   4.394   3.850   7.740  0.4956 -1.2983 -1.2774
  125OSM   H11G13361   4.345   3.679   7.740 -1.3121  1.0485 -0.9091
  125OSM   C12F13362   4.402   3.765   7.926  0.0336 -0.0180 -0.4798
  125OSM   H12F13363   4.509   3.762   7.896  0.5936 -1.1093  1.4845
  125OSM   H12G13364   4.380   3.669   7.977  0.2649  1.0423  1.6704
  125OSM   C13F13365   4.390   3.878   8.025 -0.1994  0.1038  0.0770
  125OSM   H13F13366   4.288   3.876   8.069  0.5133 -2.1471  1.6732
  125OSM   H13G13367   4.393   3.975   7.971  2.3435 -0.7417 -1.3934
  125OSM   C14F13368   4.490   3.868   8.136  0.0585 -0.1133  0.6130
  125OSM   H14F13369   4.585   3.887   8.081 -1.1455  0.7232 -1.2265
  125OSM   H14G13370   4.500   3.767   8.181 -0.9276 -0.5415 -0.1067
  125OSM   C15F13371   4.468   3.969   8.238  0.7072 -0.8027 -0.1725
  125OSM   H15F13372   4.365   3.961   8.279 -0.2798 -1.2549 -2.6309
  125OSM   H15G13373   4.465   4.069   8.189 -1.2263 -1.6468 -1.8308
  125OSM   C16F13374   4.573   3.985   8.343 -0.5773  0.2192  0.1029
  125OSM   H16F13375   4.671   4.005   8.293 -0.3687  1.0583  0.8286
  125OSM   H16G13376   4.588   3.889   8.396  0.1535  0.2845  0.0204
  125OSM   C17F13377   4.552   4.101   8.435  0.0705 -0.1153  0.3204
  125OSM   H17F13378   4.594   4.183   8.373 -3.0662  0.4775 -1.1166
  125OSM   H17G13379   4.619   4.077   8.520  1.5332  1.5799 -0.3223
  125OSM   C18F13380   4.415   4.132   8.493  0.2321  0.5955  0.6084
  125OSM   H18F13381   4.351   4.183   8.419 -1.2248 -0.9420  0.7668
  125OSM   H18G13382   4.417   4.191   8.587 -0.6613  1.6915 -0.0558
  125OSM   H18H13383   4.364   4.036   8.518 -1.2932  0.9163 -1.2064
  126OSM      N13384   1.748   2.017   6.439  0.4976  0.1906  0.3873
  126OSM    C1513385   1.676   1.943   6.331  0.2636  0.2215  0.1709
  126OSM   H15A13386   1.571   1.941   6.355 -0.1621  1.0277 -1.5497
  126OSM   H15B13387   1.708   1.840   6.323 -0.6207  0.0554 -1.4091
  126OSM   H15C13388   1.690   1.986   6.233  1.5927  0.4065  0.4296
  126OSM    C1413389   1.896   1.998   6.426  0.5218 -0.4086  1.2052
  126OSM   H14A13390   1.928   1.896   6.436 -0.4629 -1.1046 -2.0778
  126OSM   H14B13391   1.948   2.063   6.494 -1.7594  0.7534  1.8864
  126OSM   H14C13392   1.933   2.034   6.331  0.0772 -0.9091  0.8438
  126OSM    C1313393   1.712   2.158   6.426 -0.2360  0.4907  0.0395
  126OSM   H13A13394   1.604   2.167   6.424 -0.5867 -2.4439  1.8518
  126OSM   H13B13395   1.766   2.207   6.347  0.3426 -2.2120 -1.2889
  126OSM   H13C13396   1.723   2.210   6.520  2.1929  1.6000 -0.8308
  126OSM    C1213397   1.712   1.966   6.577 -0.3275  0.6261 -0.3142
  126OSM   H12A13398   1.780   2.006   6.651  0.0453 -0.4925 -0.0425
  126OSM   H12B13399   1.729   1.859   6.576  1.0038  0.8254 -0.1824
  126OSM    C1113400   1.564   1.984   6.628 -0.0944  0.0867  0.2321
  126OSM   H11A13401   1.561   2.095   6.639  1.0353  0.0863  0.6260
  126OSM   H11B13402   1.557   1.947   6.732  1.8037  1.4595  0.8914
  126OSM      P13403   1.374   1.823   6.565  0.5210  0.1899  0.0986
  126OSM    O1313404   1.262   1.801   6.472 -0.5375  0.3478 -0.6183
  126OSM    O1413405   1.466   1.703   6.573  0.4468  0.0046 -0.2363
  126OSM    O1113406   1.328   1.849   6.713 -0.3634  0.1287  0.2653
  126OSM    O1213407   1.465   1.947   6.529  0.4577 -0.0099 -0.4336
  126OSM    C1S13408   1.265   1.738   6.784 -0.0221  0.0982  0.5734
  126OSM    H1S13409   1.330   1.651   6.761  0.7086  0.9299 -0.5651
  126OSM    H1T13410   1.160   1.723   6.750 -1.0636  1.5223  2.9906
  126OSM     NF13411   1.231   1.629   6.997 -0.1287  0.5897  0.1989
  126OSM    HNF13412   1.139   1.635   7.034 -0.1904  2.4382 -0.2060
  126OSM    C2S13413   1.273   1.752   6.936  0.0451  0.8690 -0.7396
  126OSM    H2S13414   1.382   1.758   6.959 -0.2411  0.0119  0.9426
  126OSM    C3S13415   1.212   1.878   6.998  0.6149  0.1258 -0.8821
  126OSM    H3S13416   1.104   1.852   6.990  1.0306 -2.2297  0.5920
  126OSM     O313417   1.245   1.994   6.922  0.8686 -0.7797  0.1072
  126OSM    HO313418   1.292   1.963   6.844  0.5799  0.3285 -0.5301
  126OSM    C4S13419   1.257   1.903   7.137  0.2075  0.0594 -0.4791
  126OSM    H4S13420   1.363   1.933   7.141 -0.3604  2.2464 -1.1719
  126OSM    C5S13421   1.174   1.902   7.244  0.5589 -0.6237 -0.6149
  126OSM    H5S13422   1.067   1.882   7.235  0.7582 -1.0803 -2.1014
  126OSM    C6S13423   1.221   1.922   7.385  0.7284  0.2933 -0.7618
  126OSM    H6S13424   1.330   1.939   7.403  0.1511  0.7322  2.7260
  126OSM    H6T13425   1.193   1.831   7.443  3.7145  1.5188  2.8350
  126OSM    C7S13426   1.146   2.042   7.455  0.4479  0.1809 -0.3044
  126OSM    H7S13427   1.039   2.017   7.436 -0.2083  1.5784  1.5093
  126OSM    H7T13428   1.167   2.133   7.394  2.0480 -0.1112 -0.1960
  126OSM    C8S13429   1.181   2.079   7.601 -0.3923 -0.3792 -0.1133
  126OSM    H8S13430   1.093   2.142   7.629 -0.2689  0.4477 -1.4888
  126OSM    H8T13431   1.277   2.134   7.597 -1.2475  1.1495 -0.1196
  126OSM    C9S13432   1.186   1.965   7.698  0.2391  0.6684 -0.6164
  126OSM    H9S13433   1.244   1.886   7.645 -0.3555 -1.5058  1.8940
  126OSM    H9T13434   1.083   1.924   7.707  0.4742  0.2969  0.4471
  126OSM   C10S13435   1.239   2.010   7.840  1.2888 -0.1495 -0.2049
  126OSM   H10S13436   1.298   2.101   7.816 -1.2620  0.9066 -2.8685
  126OSM   H10T13437   1.314   1.937   7.876  0.0300 -1.0744  0.5714
  126OSM   C11S13438   1.126   2.048   7.940  0.2054  0.5633 -0.4114
  126OSM   H11S13439   1.042   1.975   7.947  0.7744  0.0220  0.9225
  126OSM   H11T13440   1.085   2.143   7.899 -1.3845 -0.2065 -0.6326
  126OSM   C12S13441   1.177   2.073   8.084 -0.0488 -0.4072  0.0702
  126OSM   H12S13442   1.122   2.150   8.144 -1.9545 -1.7055  0.0237
  126OSM   H12T13443   1.278   2.115   8.067  0.3996 -1.4685  0.1038
  126OSM   C13S13444   1.195   1.952   8.174 -0.0596 -0.1370  0.3112
  126OSM   H13S13445   1.226   1.865   8.113  0.4609  0.5572 -0.4182
  126OSM   H13T13446   1.099   1.927   8.225  0.1104 -0.9044  0.2563
  126OSM   C14S13447   1.290   1.968   8.292 -0.3397  0.0308 -0.5562
  126OSM   H14S13448   1.248   2.047   8.358  2.1436  0.0097  1.1159
  126OSM   H14T13449   1.394   1.986   8.258 -0.3237 -0.8829 -1.0194
  126OSM   C15S13450   1.310   1.840   8.376  0.7292 -0.1752  0.1794
  126OSM   H15S13451   1.336   1.754   8.310  1.0255  0.8762 -1.1004
  126OSM   H15T13452   1.211   1.831   8.425 -0.0542 -0.8965 -1.4871
  126OSM   C16S13453   1.411   1.860   8.491 -0.3540  0.1507 -1.3502
  126OSM   H16S13454   1.383   1.955   8.540 -3.6131 -1.0898 -0.6429
  126OSM   H16T13455   1.507   1.873   8.436  2.0919 -2.6546  2.0106
  126OSM   C17S13456   1.424   1.743   8.582  0.3224 -0.8382  0.0305
  126OSM   H17S13457   1.425   1.649   8.523 -1.0934 -1.6426  1.2566
  126OSM   H17T13458   1.332   1.738   8.644 -0.2333  0.5295 -0.6838
  126OSM   C18S13459   1.549   1.756   8.667  0.1926  0.8321 -0.7933
  126OSM   H18S13460   1.638   1.810   8.629 -0.0415  1.5079 -0.3932
  126OSM   H18T13461   1.575   1.657   8.710 -0.0991  1.3561  0.6122
  126OSM   H18U13462   1.521   1.817   8.756  1.5777 -0.3687  0.4716
  126OSM    C1F13463   1.293   1.514   6.981 -0.3590 -0.0630  0.1580
  126OSM     OF13464   1.409   1.513   6.946  0.2502  0.0932  0.0958
  126OSM    C2F13465   1.209   1.388   6.991  0.6905  0.5432  0.0149
  126OSM    H2F13466   1.160   1.367   6.893 -0.6311 -2.9979  1.3593
  126OSM    H2G13467   1.129   1.417   7.062 -0.6932  0.0515 -1.2909
  126OSM    C3F13468   1.286   1.260   7.034 -0.5678 -0.1716  0.0533
  126OSM    H3F13469   1.386   1.241   6.990 -0.2639  0.1389  0.6046
  126OSM    H3G13470   1.219   1.174   7.013 -2.2205  1.0525  0.2778
  126OSM    C4F13471   1.312   1.262   7.183 -0.4547  0.1150 -0.0304
  126OSM    H4F13472   1.225   1.300   7.241  0.3239 -0.7172  1.7191
  126OSM    H4G13473   1.406   1.318   7.203  0.1214 -0.2773 -1.5904
  126OSM    C5F13474   1.348   1.121   7.231  1.0274 -1.1925  0.2637
  126OSM    H5F13475   1.423   1.071   7.166  0.9008 -0.9750 -0.0481
  126OSM    H5G13476   1.261   1.053   7.216  0.6696 -0.4377 -1.1713
  126OSM    C6F13477   1.402   1.124   7.372 -0.3486 -0.4112 -0.0966
  126OSM    H6F13478   1.484   1.198   7.378 -0.1796 -0.5824 -0.2862
  126OSM    H6G13479   1.450   1.026   7.396  0.8044  0.1311 -0.1457
  126OSM    C7F13480   1.306   1.172   7.484 -1.0015 -0.2764 -0.0170
  126OSM    H7F13481   1.204   1.132   7.470 -1.2370  0.5515 -0.7455
  126OSM    H7G13482   1.306   1.283   7.474  3.0769 -0.0663  1.5433
  126OSM    C8F13483   1.349   1.135   7.630  0.2354  0.0426  0.0612
  126OSM    H8F13484   1.451   1.173   7.655  0.9977 -1.5845 -0.5217
  126OSM    H8G13485   1.370   1.027   7.622 -1.3821 -0.3286  0.6462
  126OSM    C9F13486   1.255   1.162   7.747  0.3600 -0.6934  0.9433
  126OSM    H9F13487   1.161   1.213   7.720  0.8575 -0.1646  0.2005
  126OSM   C10F13488   1.271   1.126   7.877 -1.2018 -0.0204 -0.3123
  126OSM   H10F13489   1.190   1.150   7.947 -1.2333  0.2944 -0.4571
  126OSM   C11F13490   1.393   1.054   7.930 -0.0235 -0.0948 -0.2987
  126OSM   H11F13491   1.485   1.072   7.871 -0.0598  0.6378 -0.1367
  126OSM   H11G13492   1.366   0.946   7.936 -2.1410  0.4557  0.6051
  126OSM   C12F13493   1.419   1.102   8.078  0.1765 -0.0607  0.4095
  126OSM   H12F13494   1.415   1.213   8.082  2.9717  0.0557  1.0025
  126OSM   H12G13495   1.522   1.070   8.103  0.9469  0.5853 -1.8272
  126OSM   C13F13496   1.328   1.057   8.188 -0.4925 -0.0805 -0.0843
  126OSM   H13F13497   1.323   0.946   8.198  3.3043 -0.2393  0.7881
  126OSM   H13G13498   1.226   1.091   8.158 -1.4458 -3.0048 -0.3833
  126OSM   C14F13499   1.365   1.115   8.329  0.3967 -0.1475 -0.2564
  126OSM   H14F13500   1.360   1.225   8.313 -2.4193  0.0512  1.7407
  126OSM   H14G13501   1.470   1.097   8.361  0.0502 -0.4815  0.7301
  126OSM   C15F13502   1.266   1.073   8.444  0.3775  0.7391  0.7803
  126OSM   H15F13503   1.262   0.962   8.450 -0.8508  0.6799 -0.8875
  126OSM   H15G13504   1.168   1.110   8.408 -0.2445 -1.0453  0.5991
  126OSM   C16F13505   1.316   1.110   8.576  0.3018 -0.1186  0.5145
  126OSM   H16F13506   1.359   1.212   8.580 -0.0648  0.0332  0.6271
  126OSM   H16G13507   1.404   1.049   8.605  0.1694 -0.0985  0.9620
  126OSM   C17F13508   1.205   1.106   8.685 -0.1190  0.2274 -0.6249
  126OSM   H17F13509   1.168   1.002   8.689 -3.1027  1.3028  0.9388
  126OSM   H17G13510   1.127   1.178   8.652  0.1798  1.1113  0.5474
  126OSM   C18F13511   1.256   1.150   8.822  0.2685  0.1772  0.3016
  126OSM   H18F13512   1.280   1.257   8.842 -0.4001 -0.0991  2.7377
  126OSM   H18G13513   1.350   1.099   8.851 -0.2074  0.2004  1.9278
  126OSM   H18H13514   1.188   1.115   8.902 -1.1210 -2.1687 -1.8435
  127OSM      N13515   6.346   2.157   6.108 -0.5206  0.5255  0.1278
  127OSM    C1513516   6.481   2.153   6.040 -0.1357  0.3640  0.1454
  127OSM   H15A13517   6.554   2.171   6.116 -0.8659  1.3585  0.6183
  127OSM   H15B13518   6.489   2.228   5.963 -2.0140 -0.5249 -0.9832
  127OSM   H15C13519   6.496   2.053   6.002  0.4804 -0.7290  3.1489
  127OSM    C1413520   6.240   2.122   6.013  0.0354  0.4093  0.8038
  127OSM   H14A13521   6.137   2.134   6.044 -0.5093 -0.2698 -0.6895
  127OSM   H14B13522   6.254   2.023   5.972 -2.2873  0.4418 -0.1683
  127OSM   H14C13523   6.237   2.193   5.931 -0.0253  2.2425  2.3424
  127OSM    C1313524   6.346   2.040   6.204  0.5785 -0.1889  0.0078
  127OSM   H13A13525   6.429   2.049   6.272 -0.3334 -0.7178  1.2085
  127OSM   H13B13526   6.378   1.949   6.156  1.4497 -0.8043  1.7157
  127OSM   H13C13527   6.251   2.028   6.253  0.7970 -0.6566  0.3241
  127OSM    C1213528   6.318   2.281   6.189  0.6194 -0.1044 -0.0455
  127OSM   H12A13529   6.213   2.287   6.214  0.1004  0.0222 -2.2137
  127OSM   H12B13530   6.309   2.362   6.119  0.8020 -0.9920 -1.1142
  127OSM    C1113531   6.409   2.316   6.314 -0.6890 -0.7068 -0.2669
  127OSM   H11A13532   6.384   2.253   6.402 -1.8990 -0.9338 -0.7651
  127OSM   H11B13533   6.382   2.418   6.347  0.3997 -0.5235  0.0640
  127OSM      P13534   6.629   2.425   6.243  0.0534 -0.5302 -0.5171
  127OSM    O1313535   6.762   2.382   6.197 -0.5500 -0.5842  0.0261
  127OSM    O1413536   6.557   2.511   6.155  0.2969  0.0733  0.1426
  127OSM    O1113537   6.647   2.503   6.373 -0.0482  0.0796  0.4082
  127OSM    O1213538   6.546   2.300   6.277  0.4216  0.0944 -0.1386
  127OSM    C1S13539   6.668   2.433   6.499  0.0497 -0.1218 -0.1756
  127OSM    H1S13540   6.775   2.400   6.502  0.3188  0.8238  1.1123
  127OSM    H1T13541   6.604   2.343   6.513  0.0420  0.0647  1.0330
  127OSM     NF13542   6.701   2.456   6.740  0.1143  0.9470  0.4989
  127OSM    HNF13543   6.626   2.417   6.794 -0.7475 -1.8218 -2.5436
  127OSM    C2S13544   6.654   2.522   6.618 -0.6925 -0.1998  0.2681
  127OSM    H2S13545   6.721   2.611   6.607 -0.8767 -0.2132 -1.0536
  127OSM    C3S13546   6.507   2.576   6.634  0.3191  0.2538  0.8323
  127OSM    H3S13547   6.445   2.486   6.650  1.6381 -0.7077  0.6017
  127OSM     O313548   6.457   2.646   6.517 -0.0072 -0.3402 -0.3016
  127OSM    HO313549   6.519   2.620   6.448  2.3229 -1.3045  2.0912
  127OSM    C4S13550   6.509   2.677   6.753  0.2315  0.5834  0.2136
  127OSM    H4S13551   6.490   2.629   6.850  0.5189 -0.3091 -0.1651
  127OSM    C5S13552   6.532   2.806   6.757  0.2945 -0.6602 -0.5043
  127OSM    H5S13553   6.557   2.856   6.663  1.0738  1.8156  0.9598
  127OSM    C6S13554   6.533   2.891   6.880  0.2788 -0.6325 -0.1017
  127OSM    H6S13555   6.456   2.971   6.874 -0.5050 -1.2631  1.2943
  127OSM    H6T13556   6.632   2.939   6.896 -0.0597 -1.0494  3.5789
  127OSM    C7S13557   6.513   2.817   7.020 -0.1114 -0.0901 -0.0455
  127OSM    H7S13558   6.588   2.734   7.025 -0.5221 -0.5476 -1.2447
  127OSM    H7T13559   6.407   2.786   7.033 -1.3220  2.9609 -2.0922
  127OSM    C8S13560   6.526   2.911   7.142  0.6404 -0.0067 -0.4635
  127OSM    H8S13561   6.488   3.011   7.110  0.6933 -0.5075 -2.1463
  127OSM    H8T13562   6.629   2.927   7.180  0.0725  0.3700  0.9370
  127OSM    C9S13563   6.454   2.868   7.267  0.4311  0.3308 -0.0121
  127OSM    H9S13564   6.346   2.875   7.240  1.2680 -0.7562 -3.9503
  127OSM    H9T13565   6.476   2.944   7.345  2.9184  2.9897 -3.1773
  127OSM   C10S13566   6.504   2.732   7.317  0.3899 -0.4996 -0.3431
  127OSM   H10S13567   6.543   2.661   7.240  0.6146  0.2307 -0.9085
  127OSM   H10T13568   6.429   2.674   7.375  0.6697  0.3148  0.8290
  127OSM   C11S13569   6.623   2.749   7.430  0.1018  0.3284 -0.2654
  127OSM   H11S13570   6.610   2.842   7.489 -0.2409 -0.3583  0.7591
  127OSM   H11T13571   6.713   2.760   7.365  1.0978 -1.4769  0.7689
  127OSM   C12S13572   6.624   2.618   7.520 -0.2994  0.3899  0.6082
  127OSM   H12S13573   6.715   2.626   7.584  0.2007  1.3136 -0.2057
  127OSM   H12T13574   6.642   2.528   7.457  1.5188 -0.1751  1.8536
  127OSM   C13S13575   6.500   2.603   7.619 -0.2544 -0.5264  0.4792
  127OSM   H13S13576   6.402   2.583   7.572  0.0553 -2.8497  0.7662
  127OSM   H13T13577   6.499   2.696   7.680  2.8901 -0.9814  1.3063
  127OSM   C14S13578   6.514   2.484   7.717  0.7089 -1.1423 -0.1367
  127OSM   H14S13579   6.602   2.505   7.781  0.8484 -2.6702  0.1885
  127OSM   H14T13580   6.531   2.393   7.655  0.3465 -0.0738 -1.8385
  127OSM   C15S13581   6.391   2.461   7.805  0.0368  0.1603  1.0326
  127OSM   H15S13582   6.306   2.442   7.735  1.0701  1.6660 -0.6747
  127OSM   H15T13583   6.364   2.542   7.876 -1.8588  0.0633  0.4623
  127OSM   C16S13584   6.414   2.337   7.888  0.7290 -0.1126  0.5900
  127OSM   H16S13585   6.484   2.355   7.972  2.8274 -0.7217 -0.9854
  127OSM   H16T13586   6.440   2.247   7.829  0.8740 -2.4212  4.0553
  127OSM   C17S13587   6.283   2.290   7.962  0.0841 -0.6520  0.1916
  127OSM   H17S13588   6.205   2.294   7.882 -0.1166 -0.4260  0.3961
  127OSM   H17T13589   6.241   2.357   8.040 -3.1043 -0.6019 -1.4699
  127OSM   C18S13590   6.292   2.153   8.032  0.0083 -0.4185  0.1319
  127OSM   H18S13591   6.324   2.079   7.956  3.1448  1.0530 -0.0428
  127OSM   H18T13592   6.196   2.123   8.080  0.6936 -1.4644  0.8689
  127OSM   H18U13593   6.370   2.152   8.111 -0.1199 -2.3117  0.2729
  127OSM    C1F13594   6.828   2.416   6.759 -0.4299 -0.8762  0.0766
  127OSM     OF13595   6.925   2.466   6.698  0.3360 -0.1626 -0.1032
  127OSM    C2F13596   6.851   2.305   6.855 -0.3378  0.6839  0.4776
  127OSM    H2F13597   6.868   2.210   6.800  2.0546  0.7578  1.0287
  127OSM    H2G13598   6.758   2.288   6.914 -0.0767  2.9690  1.6238
  127OSM    C3F13599   6.959   2.344   6.961 -0.4682  0.6335 -0.3426
  127OSM    H3F13600   7.053   2.342   6.902 -0.2504  0.7431 -0.0004
  127OSM    H3G13601   6.977   2.267   7.039 -0.1075  0.9016 -0.1598
  127OSM    C4F13602   6.935   2.483   7.023 -0.2308 -0.0859 -0.5439
  127OSM    H4F13603   6.937   2.560   6.943  0.0493  1.8150  1.2596
  127OSM    H4G13604   7.021   2.494   7.092 -1.6503 -1.2191  1.4784
  127OSM    C5F13605   6.799   2.500   7.097  0.3978 -0.1845  0.3437
  127OSM    H5F13606   6.712   2.504   7.028  0.9039  1.4456 -0.2215
  127OSM    H5G13607   6.803   2.602   7.141 -0.8675 -0.4052  0.9952
  127OSM    C6F13608   6.769   2.403   7.213  0.1237  0.3352 -0.2034
  127OSM    H6F13609   6.759   2.299   7.174  1.2736  0.0383  0.2734
  127OSM    H6G13610   6.675   2.428   7.265 -1.3346 -1.5719 -1.8211
  127OSM    C7F13611   6.891   2.392   7.312  0.2948  0.1751 -0.0226
  127OSM    H7F13612   6.924   2.496   7.336 -2.8844  0.8580  1.6115
  127OSM    H7G13613   6.969   2.344   7.249  0.9912  0.5871  0.5292
  127OSM    C8F13614   6.865   2.300   7.432  0.2991 -0.0255  0.1405
  127OSM    H8F13615   6.827   2.202   7.398 -0.7339 -0.9754  3.7575
  127OSM    H8G13616   6.781   2.346   7.489 -1.8249 -3.3175 -0.2484
  127OSM    C9F13617   6.999   2.271   7.506 -0.2787  0.6527 -0.6017
  127OSM    H9F13618   7.077   2.235   7.437  2.0131  0.7051  1.8941
  127OSM   C10F13619   7.026   2.288   7.637  0.1415  0.4497  0.1034
  127OSM   H10F13620   7.130   2.269   7.666  0.2825  0.2239 -0.5416
  127OSM   C11F13621   6.933   2.345   7.739  0.2070 -0.1131 -1.1517
  127OSM   H11F13622   6.847   2.387   7.683 -1.6182  0.3869  1.9077
  127OSM   H11G13623   6.987   2.428   7.787  1.7179 -1.8250  0.1719
  127OSM   C12F13624   6.881   2.242   7.844 -0.1216 -0.1403  0.3659
  127OSM   H12F13625   6.972   2.189   7.880  0.8287  0.3942 -1.2170
  127OSM   H12G13626   6.826   2.157   7.797 -1.1284 -0.0384  1.3485
  127OSM   C13F13627   6.801   2.307   7.960  0.0379  0.1122  0.1988
  127OSM   H13F13628   6.713   2.366   7.929  0.8599  0.7821 -0.9212
  127OSM   H13G13629   6.860   2.378   8.022 -0.4126  1.1344 -0.5330
  127OSM   C14F13630   6.764   2.194   8.057 -0.4529 -0.4247 -0.3321
  127OSM   H14F13631   6.847   2.129   8.094 -0.2056 -0.9455 -1.7792
  127OSM   H14G13632   6.703   2.126   7.995 -2.2479 -1.2113  2.1910
  127OSM   C15F13633   6.683   2.244   8.183  0.0828 -0.3394  0.5536
  127OSM   H15F13634   6.581   2.258   8.140  0.7379  0.4770 -0.7672
  127OSM   H15G13635   6.727   2.338   8.223  0.8332 -0.9786  1.2562
  127OSM   C16F13636   6.670   2.141   8.292  0.0032 -0.2579 -0.1871
  127OSM   H16F13637   6.769   2.126   8.340  1.0777  1.2102 -1.8644
  127OSM   H16G13638   6.644   2.043   8.245 -0.1197 -1.0690  1.5431
  127OSM   C17F13639   6.561   2.179   8.397  0.6543  0.4180 -0.2392
  127OSM   H17F13640   6.590   2.127   8.490 -3.2174 -1.4219  0.0397
  127OSM   H17G13641   6.464   2.133   8.366  1.1198 -1.1017  0.5439
  127OSM   C18F13642   6.554   2.333   8.416 -0.0228  0.5480 -0.3931
  127OSM   H18F13643   6.510   2.383   8.327 -0.9613 -0.5122 -0.5268
  127OSM   H18G13644   6.654   2.368   8.451  0.1421 -0.5421  0.2551
  127OSM   H18H13645   6.485   2.347   8.501 -1.0078  0.0641 -1.1152
  128OSM      N13646   0.275   6.144   5.915  0.1715 -0.2409 -0.6299
  128OSM    C1513647   0.300   5.999   5.875 -0.3736  0.1423  0.2189
  128OSM   H15A13648   0.346   5.941   5.954 -1.4465 -1.8798 -0.5996
  128OSM   H15B13649   0.377   5.995   5.800 -0.3394 -0.9131  0.2924
  128OSM   H15C13650   0.212   5.947   5.839  0.8429 -0.6651 -1.6373
  128OSM    C1413651   0.407   6.198   5.970 -0.2439 -0.3278  0.6333
  128OSM   H14A13652   0.422   6.136   6.057  1.7182  0.0907  0.6245
  128OSM   H14B13653   0.399   6.300   6.005 -0.6271  0.2244 -1.0249
  128OSM   H14C13654   0.486   6.196   5.897  0.2846  1.8676  1.1053
  128OSM    C1313655   0.226   6.212   5.795  0.4234 -0.4970 -0.4218
  128OSM   H13A13656   0.127   6.175   5.773 -1.5267  4.4042 -0.6668
  128OSM   H13B13657   0.306   6.211   5.723  1.1276 -2.1429  0.3636
  128OSM   H13C13658   0.220   6.319   5.811  0.5792 -0.2688 -1.8341
  128OSM    C1213659   0.176   6.145   6.033  0.0856 -0.2157  0.6539
  128OSM   H12A13660   0.206   6.078   6.112  0.0647 -0.5966  0.3395
  128OSM   H12B13661   0.082   6.105   5.999 -0.0039 -0.1640  0.8423
  128OSM    C1113662   0.143   6.282   6.113 -0.8583  0.3997  0.1439
  128OSM   H11A13663   0.065   6.273   6.191 -1.0202 -1.5605 -0.2378
  128OSM   H11B13664   0.110   6.359   6.040  1.0824  3.4734  2.3283
  128OSM      P13665   0.304   6.475   6.213 -0.3705 -0.1291 -0.5723
  128OSM    O1313666   0.444   6.472   6.256  0.1534  0.3492  0.1467
  128OSM    O1413667   0.266   6.553   6.089  0.0047  0.1869  0.0097
  128OSM    O1113668   0.208   6.506   6.331 -0.1565  0.8642  0.0319
  128OSM    O1213669   0.258   6.336   6.178  0.1169  0.8653  0.3434
  128OSM    C1S13670   0.236   6.478   6.473 -0.0244 -0.2957  0.5675
  128OSM    H1S13671   0.326   6.536   6.504 -1.4772  2.0343  0.5836
  128OSM    H1T13672   0.247   6.368   6.478 -1.0955 -0.5048 -1.3305
  128OSM     NF13673   0.158   6.429   6.704  0.4252  0.6228  0.2431
  128OSM    HNF13674   0.127   6.334   6.711  1.0639  0.4402  0.6798
  128OSM    C2S13675   0.121   6.495   6.580 -0.1395 -0.1845 -0.1096
  128OSM    H2S13676   0.118   6.604   6.600  0.8662  0.4774 -3.3231
  128OSM    C3S13677  -0.019   6.453   6.528  0.6833  0.4461  0.2604
  128OSM    H3S13678  -0.007   6.344   6.508  1.2035  0.2820  1.3754
  128OSM     O313679  -0.051   6.507   6.402  0.2571  0.3383  0.0766
  128OSM    HO313680   0.027   6.549   6.367 -1.7401  4.3206  0.2115
  128OSM    C4S13681  -0.124   6.473   6.633  0.4591 -0.2289  0.3747
  128OSM    H4S13682  -0.124   6.402   6.717  0.8109 -2.5446 -1.5457
  128OSM    C5S13683  -0.198   6.585   6.637 -0.3244 -0.0543 -0.0333
  128OSM    H5S13684  -0.193   6.648   6.547  0.8854 -0.6925 -0.4113
  128OSM    C6S13685  -0.295   6.628   6.746 -0.4166  0.1091  0.1735
  128OSM    H6S13686  -0.397   6.633   6.703 -0.7234  0.1533  0.9037
  128OSM    H6T13687  -0.278   6.730   6.786  1.1242  0.5347 -1.5084
  128OSM    C7S13688  -0.306   6.530   6.866  0.0139 -0.2879  0.0569
  128OSM    H7S13689  -0.204   6.499   6.895 -0.5741 -2.0812  0.2838
  128OSM    H7T13690  -0.361   6.435   6.846 -1.5822 -0.4456  4.5839
  128OSM    C8S13691  -0.369   6.594   6.991  0.4193 -1.1672 -0.2611
  128OSM    H8S13692  -0.478   6.603   6.970  0.8566 -0.7657 -2.4406
  128OSM    H8T13693  -0.315   6.690   7.006  0.0285 -1.0324  0.2858
  128OSM    C9S13694  -0.353   6.498   7.110  0.8236  0.2738  0.4243
  128OSM    H9S13695  -0.245   6.485   7.132  0.4974 -2.0441  0.7200
  128OSM    H9T13696  -0.398   6.401   7.078 -0.0418  0.9763 -0.5370
  128OSM   C10S13697  -0.434   6.550   7.229  0.0067  0.2955 -0.4319
  128OSM   H10S13698  -0.542   6.562   7.205 -0.5650 -0.6725  1.5150
  128OSM   H10T13699  -0.393   6.649   7.258 -1.3323  0.9479 -0.7227
  128OSM   C11S13700  -0.422   6.448   7.338  0.3606  0.1266 -0.5542
  128OSM   H11S13701  -0.316   6.427   7.364  0.3726 -0.2717 -0.9217
  128OSM   H11T13702  -0.469   6.350   7.319  2.4320 -1.5084  2.4112
  128OSM   C12S13703  -0.480   6.500   7.470  0.2521 -0.3919 -0.1934
  128OSM   H12S13704  -0.591   6.495   7.463  0.3445 -0.6421 -1.8260
  128OSM   H12T13705  -0.441   6.602   7.489 -0.4334 -0.1479 -0.0524
  128OSM   C13S13706  -0.445   6.416   7.589 -0.6871 -0.7756 -0.2415
  128OSM   H13S13707  -0.334   6.421   7.590 -0.6988  0.2898 -2.2696
  128OSM   H13T13708  -0.475   6.310   7.574  0.4812 -1.0356 -0.7770
  128OSM   C14S13709  -0.508   6.466   7.719 -0.4780 -0.0581 -0.0210
  128OSM   H14S13710  -0.619   6.471   7.717 -0.4386  0.7627 -0.5928
  128OSM   H14T13711  -0.457   6.563   7.740  3.2060 -2.3713  2.0811
  128OSM   C15S13712  -0.469   6.375   7.839  0.1215  0.7941 -0.1042
  128OSM   H15S13713  -0.358   6.380   7.844  0.1339 -0.1377  0.6772
  128OSM   H15T13714  -0.494   6.268   7.822  1.2961 -0.1628  3.6994
  128OSM   C16S13715  -0.541   6.417   7.973  0.6265  0.4464  0.7984
  128OSM   H16S13716  -0.647   6.383   7.976 -0.6610  4.1586 -0.5956
  128OSM   H16T13717  -0.542   6.528   7.976 -0.8330  0.4876 -0.7658
  128OSM   C17S13718  -0.459   6.367   8.093  0.1365  0.6405  0.3573
  128OSM   H17S13719  -0.362   6.421   8.096 -1.4488  3.6517 -0.0723
  128OSM   H17T13720  -0.440   6.259   8.080 -1.0436  0.5224 -0.5709
  128OSM   C18S13721  -0.550   6.380   8.216 -0.7479 -0.2048  0.4399
  128OSM   H18S13722  -0.566   6.488   8.236  0.0766  0.1367 -0.6596
  128OSM   H18T13723  -0.502   6.333   8.304 -1.4573  0.4746  1.1993
  128OSM   H18U13724  -0.650   6.338   8.193 -2.2864  2.5833  1.6887
  128OSM    C1F13725   0.267   6.473   6.777 -0.2591 -0.4744 -0.8793
  128OSM     OF13726   0.319   6.581   6.754 -0.5921 -0.0797 -0.0747
  128OSM    C2F13727   0.324   6.371   6.868  0.9738  0.1560 -0.2945
  128OSM    H2F13728   0.431   6.351   6.848  1.5826  0.7182  2.1685
  128OSM    H2G13729   0.261   6.280   6.863  1.0258 -0.1799  3.3928
  128OSM    C3F13730   0.318   6.416   7.010  0.7099 -0.2944 -0.5542
  128OSM    H3F13731   0.213   6.407   7.046  1.8598 -0.0756  3.0672
  128OSM    H3G13732   0.356   6.518   7.031  0.8668 -0.0483 -1.9410
  128OSM    C4F13733   0.402   6.322   7.100  0.4889 -0.1471  0.2145
  128OSM    H4F13734   0.506   6.337   7.066  0.2253 -0.5750 -0.7764
  128OSM    H4G13735   0.366   6.223   7.065  2.4284  0.4573 -3.6551
  128OSM    C5F13736   0.391   6.352   7.248 -0.0628  0.2375 -0.5776
  128OSM    H5F13737   0.287   6.377   7.278 -1.0091 -1.6389 -2.1834
  128OSM    H5G13738   0.441   6.448   7.273 -0.8932 -0.1458  2.8831
  128OSM    C6F13739   0.450   6.247   7.344  0.4807 -0.3994  0.0841
  128OSM    H6F13740   0.561   6.238   7.350  0.6586  1.8881  0.6464
  128OSM    H6G13741   0.395   6.156   7.311 -1.2513  0.7232 -0.1604
  128OSM    C7F13742   0.397   6.268   7.485 -0.6801 -1.0519 -0.0055
  128OSM    H7F13743   0.300   6.319   7.470 -0.8365 -0.5538  2.4577
  128OSM    H7G13744   0.463   6.335   7.545 -1.8350 -1.1850  1.4528
  128OSM    C8F13745   0.381   6.138   7.559  0.3276 -0.6895 -0.5707
  128OSM    H8F13746   0.484   6.112   7.592  0.6334  1.5496  0.3285
  128OSM    H8G13747   0.347   6.060   7.488 -0.3146 -1.0935  0.1698
  128OSM    C9F13748   0.289   6.155   7.671 -0.5085  0.3584 -0.6376
  128OSM    H9F13749   0.185   6.187   7.654 -0.1361  1.5115 -0.7861
  128OSM   C10F13750   0.315   6.128   7.803 -0.2706  0.6435  0.5936
  128OSM   H10F13751   0.230   6.133   7.874 -0.0555  2.4682  0.7647
  128OSM   C11F13752   0.448   6.084   7.862  0.4404 -0.0861  0.1870
  128OSM   H11F13753   0.533   6.139   7.814 -0.8189  1.7716  0.0402
  128OSM   H11G13754   0.461   5.975   7.845 -3.0672 -0.3146 -1.2688
  128OSM   C12F13755   0.447   6.102   8.012 -0.2166  1.2179 -0.4576
  128OSM   H12F13756   0.438   6.208   8.044  0.9374  0.6914  1.7239
  128OSM   H12G13757   0.544   6.068   8.056 -0.0249 -1.7964 -2.9745
  128OSM   C13F13758   0.348   6.014   8.096 -0.1532  0.3456  0.2172
  128OSM   H13F13759   0.369   5.907   8.074 -0.5108  0.4456 -0.6188
  128OSM   H13G13760   0.242   6.023   8.063  0.3197  3.3800 -0.5754
  128OSM   C14F13761   0.380   6.021   8.248 -0.7348 -0.4038  0.5881
  128OSM   H14F13762   0.318   6.092   8.307 -0.0356 -1.5088  2.6866
  128OSM   H14G13763   0.484   6.052   8.271 -0.0724 -0.2350 -2.4950
  128OSM   C15F13764   0.356   5.892   8.319 -0.0658  0.1156  0.0991
  128OSM   H15F13765   0.427   5.816   8.282 -0.6171  0.1869 -1.1207
  128OSM   H15G13766   0.255   5.846   8.304  0.7954 -1.8023  0.0090
  128OSM   C16F13767   0.346   5.908   8.472 -0.1941  0.5271 -0.0871
  128OSM   H16F13768   0.301   5.816   8.514 -2.0945  2.8198  3.1205
  128OSM   H16G13769   0.270   5.986   8.496 -1.7087 -0.0350 -2.7613
  128OSM   C17F13770   0.485   5.932   8.553  1.2470  1.1772  0.8128
  128OSM   H17F13771   0.539   6.011   8.496  1.5075 -0.5459 -1.3854
  128OSM   H17G13772   0.537   5.834   8.551  0.1181  0.5864 -2.0518
  128OSM   C18F13773   0.457   5.979   8.696  0.4750  0.0432  0.4778
  128OSM   H18F13774   0.374   6.052   8.692 -1.1676 -1.7845  0.1623
  128OSM   H18G13775   0.551   6.016   8.741  0.4913  0.4872  0.0828
  128OSM   H18H13776   0.403   5.905   8.760  1.3380 -1.5293 -0.5795
  129OSM      N13777   4.298   2.003   6.093  0.0609  0.0578 -0.4828
  129OSM    C1513778   4.317   2.116   6.195  0.1245  0.2812 -0.4873
  129OSM   H15A13779   4.409   2.088   6.244 -0.1687 -0.9552 -0.6412
  129OSM   H15B13780   4.238   2.114   6.269  0.1172 -1.5313 -0.5227
  129OSM   H15C13781   4.318   2.218   6.159  1.4482  1.1099  1.7732
  129OSM    C1413782   4.182   2.042   6.006 -0.2791  0.0577  0.4429
  129OSM   H14A13783   4.096   2.061   6.069 -1.0018  1.6848 -1.0091
  129OSM   H14B13784   4.164   1.960   5.939  0.9357 -1.0029  1.3774
  129OSM   H14C13785   4.202   2.131   5.948 -1.7770  0.9086  1.2014
  129OSM    C1313786   4.427   1.997   6.011 -0.1832  0.3781 -0.3591
  129OSM   H13A13787   4.509   1.977   6.079  1.2245  0.6243 -1.9644
  129OSM   H13B13788   4.443   2.090   5.959  1.6637 -0.8587 -2.0613
  129OSM   H13C13789   4.423   1.918   5.937  1.7078 -0.3040  0.2446
  129OSM    C1213790   4.267   1.877   6.167 -0.0129  0.5907 -0.4875
  129OSM   H12A13791   4.252   1.797   6.096  0.4900  2.2480 -2.5210
  129OSM   H12B13792   4.174   1.888   6.221  1.0551 -1.1798  1.7882
  129OSM    C1113793   4.376   1.833   6.268  0.0373  0.1531 -0.3758
  129OSM   H11A13794   4.328   1.776   6.350  1.5346  1.5973  1.5223
  129OSM   H11B13795   4.392   1.928   6.323 -0.2309  0.6369 -1.1199
  129OSM      P13796   4.488   1.629   6.159  0.0745  0.0166 -0.2246
  129OSM    O1313797   4.363   1.612   6.083  0.0946 -0.0054 -0.1581
  129OSM    O1413798   4.618   1.621   6.084  0.2348 -0.0709 -0.2534
  129OSM    O1113799   4.493   1.540   6.300 -0.2312 -0.2418 -0.0179
  129OSM    O1213800   4.494   1.774   6.213  0.4118 -0.5530  0.6971
  129OSM    C1S13801   4.620   1.530   6.362  0.0722 -0.4148  0.3607
  129OSM    H1S13802   4.685   1.620   6.350 -0.1633 -0.3805 -0.7469
  129OSM    H1T13803   4.678   1.459   6.300  0.7250  1.4622 -1.2372
  129OSM     NF13804   4.734   1.457   6.570 -0.1977 -0.0132  0.0245
  129OSM    HNF13805   4.739   1.358   6.575  0.0442 -0.0101 -0.1380
  129OSM    C2S13806   4.606   1.497   6.514  0.1542 -0.3615 -0.2216
  129OSM    H2S13807   4.577   1.597   6.551  2.1558  0.2504 -0.2298
  129OSM    C3S13808   4.492   1.387   6.541 -0.4525 -0.3861 -0.6866
  129OSM    H3S13809   4.513   1.309   6.465  1.8438  0.0668 -0.5447
  129OSM     O313810   4.361   1.425   6.505 -0.1491 -0.1952 -0.6106
  129OSM    HO313811   4.368   1.508   6.457  0.6648  0.5413  0.7465
  129OSM    C4S13812   4.494   1.359   6.689  0.6320 -0.8857 -0.0976
  129OSM    H4S13813   4.553   1.276   6.730  1.5563 -0.6622 -0.9698
  129OSM    C5S13814   4.418   1.435   6.780 -0.8991 -0.3478  0.4426
  129OSM    H5S13815   4.358   1.525   6.758  0.2998  0.0889 -1.1217
  129OSM    C6S13816   4.427   1.411   6.926  0.0123 -0.2353 -0.0438
  129OSM    H6S13817   4.485   1.316   6.935 -0.0916 -0.3931 -1.0718
  129OSM    H6T13818   4.325   1.405   6.971 -0.1690  5.4747  0.5913
  129OSM    C7S13819   4.506   1.535   6.991 -0.4310  0.1980 -0.4217
  129OSM    H7S13820   4.453   1.626   6.954 -0.7236  0.5908  0.9076
  129OSM    H7T13821   4.610   1.524   6.954  0.7689  1.9929  2.2003
  129OSM    C8S13822   4.491   1.545   7.141 -0.4716 -0.2310  0.2652
  129OSM    H8S13823   4.547   1.457   7.177  1.7750 -0.8652 -4.3737
  129OSM    H8T13824   4.388   1.547   7.184 -0.0405  0.0840  1.2897
  129OSM    C9S13825   4.563   1.671   7.199  0.0663 -0.0601  0.0951
  129OSM    H9S13826   4.509   1.767   7.181  1.6118  1.0243  1.0888
  129OSM    H9T13827   4.647   1.694   7.131 -0.1172  1.4321  0.3502
  129OSM   C10S13828   4.614   1.667   7.344  0.4277  0.1752 -0.2986
  129OSM   H10S13829   4.671   1.761   7.363  0.7010  0.3536 -1.8622
  129OSM   H10T13830   4.689   1.588   7.366  0.2596  0.5770  1.7983
  129OSM   C11S13831   4.510   1.644   7.459  0.9241  0.2707  0.1726
  129OSM   H11S13832   4.455   1.552   7.430 -1.5744  2.2851 -1.7942
  129OSM   H11T13833   4.437   1.726   7.440  2.2220  1.6309  1.0106
  129OSM   C12S13834   4.564   1.635   7.600  0.1170  0.2761 -0.4657
  129OSM   H12S13835   4.590   1.737   7.635  1.4128  0.4132 -1.7722
  129OSM   H12T13836   4.660   1.580   7.608 -0.7794 -1.4701 -1.2119
  129OSM   C13S13837   4.455   1.585   7.693 -0.1277  0.6211 -0.8996
  129OSM   H13S13838   4.417   1.484   7.666  1.7642 -0.2214 -0.5078
  129OSM   H13T13839   4.364   1.641   7.663 -0.5461  0.0606 -0.6981
  129OSM   C14S13840   4.482   1.622   7.839 -0.3508  0.0960 -1.0679
  129OSM   H14S13841   4.393   1.666   7.890  1.6916  2.4774  0.6040
  129OSM   H14T13842   4.559   1.702   7.848  0.3524 -0.6936  0.0237
  129OSM   C15S13843   4.527   1.504   7.924 -0.5323  0.5104 -0.4568
  129OSM   H15S13844   4.605   1.451   7.866 -0.0646  0.5226  0.1636
  129OSM   H15T13845   4.439   1.437   7.940 -0.0116  0.1978  1.2432
  129OSM   C16S13846   4.577   1.541   8.068  0.0948 -0.0208  0.7536
  129OSM   H16S13847   4.670   1.602   8.065  0.7494 -1.0044  0.6274
  129OSM   H16T13848   4.605   1.447   8.119 -1.3646 -0.8253  0.1004
  129OSM   C17S13849   4.468   1.610   8.158 -1.2494 -0.0001  0.2785
  129OSM   H17S13850   4.376   1.548   8.159 -0.0956 -1.7513  0.1313
  129OSM   H17T13851   4.439   1.712   8.126 -0.8443  0.0642  0.1056
  129OSM   C18S13852   4.510   1.619   8.298  0.3096 -0.2133 -0.5019
  129OSM   H18S13853   4.543   1.519   8.332  2.6487 -0.7548 -4.1490
  129OSM   H18T13854   4.414   1.644   8.349  0.1607  0.0054 -0.8921
  129OSM   H18U13855   4.589   1.698   8.309  0.7306 -0.7284  0.2423
  129OSM    C1F13856   4.835   1.547   6.583  0.0530  0.1861  0.0608
  129OSM     OF13857   4.825   1.660   6.542  0.5878 -0.0058  0.1293
  129OSM    C2F13858   4.967   1.498   6.636  0.1021 -0.8142  0.5731
  129OSM    H2F13859   5.041   1.523   6.557  0.6487  0.4298  1.4525
  129OSM    H2G13860   4.954   1.388   6.636  0.8123 -0.9000 -1.3218
  129OSM    C3F13861   5.025   1.560   6.766 -0.1894  0.3087  0.6479
  129OSM    H3F13862   5.026   1.669   6.745 -1.8785  0.5938  1.9539
  129OSM    H3G13863   5.129   1.527   6.789 -0.0436 -1.3656 -2.2397
  129OSM    C4F13864   4.957   1.513   6.901 -0.0858 -0.3013  0.6064
  129OSM    H4F13865   4.850   1.542   6.900 -0.3024 -1.0199 -2.5725
  129OSM    H4G13866   5.007   1.566   6.985  1.3904 -0.2090 -0.3034
  129OSM    C5F13867   4.948   1.362   6.935  0.5826  0.6463  0.1695
  129OSM    H5F13868   5.051   1.322   6.922  0.5135  1.3196 -2.8974
  129OSM    H5G13869   4.890   1.303   6.861  0.7487  0.0762  0.4886
  129OSM    C6F13870   4.880   1.319   7.070 -0.6571 -0.4522 -0.2185
  129OSM    H6F13871   4.891   1.208   7.081 -1.0175 -0.7475 -2.5905
  129OSM    H6G13872   4.771   1.341   7.066 -0.1548  1.7861 -2.3433
  129OSM    C7F13873   4.942   1.398   7.189 -0.8186 -0.2359  0.7768
  129OSM    H7F13874   4.928   1.507   7.168  1.5273 -0.1222 -0.3364
  129OSM    H7G13875   5.051   1.383   7.181 -1.0287 -0.7304 -1.3336
  129OSM    C8F13876   4.898   1.351   7.327 -1.1955  0.6562  0.6641
  129OSM    H8F13877   4.940   1.248   7.336  0.2364  1.0837 -0.7890
  129OSM    H8G13878   4.787   1.347   7.327 -1.2126  1.1107  1.4723
  129OSM    C9F13879   4.937   1.435   7.442 -1.0703 -0.9776 -0.3894
  129OSM    H9F13880   4.933   1.544   7.426 -0.1594 -0.8041  0.5418
  129OSM   C10F13881   4.965   1.396   7.567 -0.6097  0.5614 -0.2432
  129OSM   H10F13882   4.997   1.460   7.651  0.0319 -1.0536  0.7630
  129OSM   C11F13883   4.965   1.254   7.613 -0.2292 -0.2379 -0.0026
  129OSM   H11F13884   5.062   1.215   7.649  0.0055 -1.6074 -2.0662
  129OSM   H11G13885   4.947   1.198   7.519  1.6243  0.4669 -0.8057
  129OSM   C12F13886   4.856   1.225   7.713  0.6690 -0.3184 -0.4383
  129OSM   H12F13887   4.840   1.118   7.738  0.5117 -0.2180 -0.1079
  129OSM   H12G13888   4.761   1.266   7.673 -0.0411 -2.4481 -0.9869
  129OSM   C13F13889   4.885   1.279   7.859 -0.5969  0.7207  0.2926
  129OSM   H13F13890   4.811   1.236   7.930  0.1709 -2.4105 -0.7146
  129OSM   H13G13891   4.872   1.390   7.856 -3.1618  0.5213  2.0391
  129OSM   C14F13892   5.020   1.233   7.924  1.5744  0.8234  0.1787
  129OSM   H14F13893   5.100   1.287   7.870  1.3549 -0.6723 -1.6787
  129OSM   H14G13894   5.033   1.126   7.900 -0.3865  0.6228 -0.1113
  129OSM   C15F13895   5.029   1.259   8.084 -0.9401  0.0907 -0.1818
  129OSM   H15F13896   5.125   1.226   8.129 -1.3278 -0.7180  0.0665
  129OSM   H15G13897   4.953   1.191   8.129  0.1282  0.7733  2.8291
  129OSM   C16F13898   5.000   1.407   8.115  0.4988 -0.4668 -0.5181
  129OSM   H16F13899   4.889   1.408   8.121  0.6393  0.0760  2.8743
  129OSM   H16G13900   5.043   1.468   8.032 -0.2067 -1.9452 -2.0005
  129OSM   C17F13901   5.049   1.451   8.260 -0.6825 -0.1306 -0.2330
  129OSM   H17F13902   5.026   1.559   8.261  1.1519  0.2856  1.1834
  129OSM   H17G13903   5.160   1.440   8.264 -0.7129 -0.5617 -0.5582
  129OSM   C18F13904   4.982   1.390   8.383 -0.2885 -1.2753 -0.1777
  129OSM   H18F13905   5.032   1.428   8.475  0.7274 -0.0875 -1.2205
  129OSM   H18G13906   4.991   1.280   8.369  1.9681 -0.9051 -1.8384
  129OSM   H18H13907   4.877   1.425   8.394 -0.1036 -0.6511 -0.4216
  130OSM      N13908   4.676   4.797   6.146  0.5479 -0.1786 -0.2684
  130OSM    C1513909   4.547   4.786   6.216 -0.1629 -0.8304 -0.1044
  130OSM   H15A13910   4.463   4.754   6.157 -0.8993  0.1454  0.4187
  130OSM   H15B13911   4.523   4.883   6.257  0.1713 -0.7936  0.0038
  130OSM   H15C13912   4.550   4.727   6.306 -2.0013  1.4703  1.5119
  130OSM    C1413913   4.716   4.667   6.092 -0.0501  0.4366  0.4193
  130OSM   H14A13914   4.812   4.673   6.045 -0.5447 -1.1416 -0.8549
  130OSM   H14B13915   4.651   4.627   6.014 -2.8276  1.0149  2.3477
  130OSM   H14C13916   4.712   4.593   6.171  0.9323  0.3901  0.4222
  130OSM    C1313917   4.656   4.895   6.035 -0.7722  0.5858  0.5550
  130OSM   H13A13918   4.566   4.884   5.977 -0.5839 -0.5890  0.4540
  130OSM   H13B13919   4.730   4.887   5.957 -2.6734 -1.4876 -1.1150
  130OSM   H13C13920   4.657   4.995   6.075  1.5329  0.2406  1.4674
  130OSM    C1213921   4.793   4.865   6.221  0.0044 -0.1323 -0.1402
  130OSM   H12A13922   4.770   4.968   6.245  0.1035 -0.2192  0.3436
  130OSM   H12B13923   4.874   4.872   6.150  0.6530  0.3473  0.6274
  130OSM    C1113924   4.835   4.793   6.352 -0.6195  0.6198  0.6497
  130OSM   H11A13925   4.759   4.800   6.432  0.4543 -0.1614  1.7661
  130OSM   H11B13926   4.926   4.847   6.386 -0.4869  0.5317  0.4376
  130OSM      P13927   5.007   4.602   6.331 -0.0251 -0.0688 -0.2432
  130OSM    O1313928   5.018   4.456   6.349  0.3231 -0.3532 -0.4801
  130OSM    O1413929   5.076   4.665   6.213 -0.4750  0.1317 -0.0750
  130OSM    O1113930   5.060   4.672   6.460  0.4033  0.0173 -0.0358
  130OSM    O1213931   4.857   4.650   6.332 -0.0930  0.1648 -0.3889
  130OSM    C1S13932   5.175   4.756   6.467  0.4435  0.2185 -0.0429
  130OSM    H1S13933   5.155   4.854   6.419  0.7920 -0.2170 -1.0815
  130OSM    H1T13934   5.265   4.709   6.421  1.0035  0.8821  0.3820
  130OSM     NF13935   5.306   4.899   6.612  0.2077 -0.7065  0.1943
  130OSM    HNF13936   5.399   4.886   6.645  0.3736 -0.4734 -0.1696
  130OSM    C2S13937   5.217   4.789   6.616  0.1732 -0.4555 -1.1854
  130OSM    H2S13938   5.127   4.825   6.671 -1.0434 -2.0760 -2.0922
  130OSM    C3S13939   5.278   4.660   6.683 -0.0317  0.4695 -0.6356
  130OSM    H3S13940   5.365   4.649   6.614  0.3699  2.1448 -0.4016
  130OSM     O313941   5.200   4.539   6.662  0.2937  0.0078  0.2504
  130OSM    HO313942   5.126   4.567   6.607 -2.0969 -3.3970  1.5599
  130OSM    C4S13943   5.314   4.675   6.829  0.1990 -0.6907  0.2285
  130OSM    H4S13944   5.396   4.746   6.847  0.9466 -2.2086  3.1037
  130OSM    C5S13945   5.248   4.628   6.937  0.2678 -0.2646  0.6921
  130OSM    H5S13946   5.157   4.567   6.925 -1.3942  2.4850 -1.1690
  130OSM    C6S13947   5.305   4.672   7.070  1.2490  0.4358 -0.6905
  130OSM    H6S13948   5.327   4.781   7.063  0.6589  0.8564  2.8400
  130OSM    H6T13949   5.397   4.615   7.094  0.8395 -0.0693 -0.2956
  130OSM    C7S13950   5.207   4.664   7.187  0.2954 -0.3600 -0.4093
  130OSM    H7S13951   5.173   4.559   7.198  0.2564 -0.4461 -1.2958
  130OSM    H7T13952   5.117   4.722   7.160 -0.1061 -1.7978 -2.2753
  130OSM    C8S13953   5.272   4.715   7.318 -0.1072 -0.3832 -0.1498
  130OSM    H8S13954   5.324   4.812   7.301  1.6162 -0.7528  2.6971
  130OSM    H8T13955   5.349   4.639   7.343  2.0621  1.5929 -0.5905
  130OSM    C9S13956   5.163   4.727   7.426 -0.0512  0.0418 -0.2360
  130OSM    H9S13957   5.117   4.628   7.444 -2.2176  0.8776 -0.9147
  130OSM    H9T13958   5.084   4.785   7.374  0.7356  1.5416  0.2104
  130OSM   C10S13959   5.213   4.778   7.568  0.2718 -0.0399  1.2052
  130OSM   H10S13960   5.123   4.779   7.633  0.4868  2.1066  1.4902
  130OSM   H10T13961   5.260   4.879   7.573  1.6088 -0.6573  1.5253
  130OSM   C11S13962   5.307   4.675   7.624  0.4200  0.6329  0.1911
  130OSM   H11S13963   5.402   4.668   7.565  2.5710  2.2084  3.3413
  130OSM   H11T13964   5.268   4.571   7.622  1.7671  0.1070  0.0000
  130OSM   C12S13965   5.358   4.726   7.758  0.1290 -0.8403  0.9028
  130OSM   H12S13966   5.317   4.827   7.779 -0.6737 -1.1302  0.7345
  130OSM   H12T13967   5.469   4.728   7.765  0.3021  1.3326 -1.7257
  130OSM   C13S13968   5.332   4.638   7.879 -0.1389 -0.0141  0.2578
  130OSM   H13S13969   5.342   4.529   7.860 -0.6328  0.0677 -0.5432
  130OSM   H13T13970   5.225   4.650   7.906 -0.2707  0.3835 -0.4155
  130OSM   C14S13971   5.416   4.678   8.006  0.4465  0.1452 -0.0531
  130OSM   H14S13972   5.424   4.788   7.997 -1.4220  0.1397 -2.3958
  130OSM   H14T13973   5.520   4.639   8.010  0.3570  0.0788  1.9863
  130OSM   C15S13974   5.342   4.632   8.135  0.1634 -0.0186 -0.3168
  130OSM   H15S13975   5.317   4.525   8.123  0.5601 -0.0814 -0.5816
  130OSM   H15T13976   5.244   4.685   8.128  0.3548  0.2400 -1.2212
  130OSM   C16S13977   5.406   4.667   8.271 -0.0700 -0.2818  0.2433
  130OSM   H16S13978   5.510   4.629   8.267 -1.7699 -5.3633  1.2292
  130OSM   H16T13979   5.357   4.610   8.353 -1.4266 -0.5821 -0.7567
  130OSM   C17S13980   5.391   4.816   8.317  0.9146  0.5630  0.2532
  130OSM   H17S13981   5.298   4.872   8.297  1.0850  0.8736  0.3137
  130OSM   H17T13982   5.469   4.871   8.260  2.1193  0.5510  1.8237
  130OSM   C18S13983   5.446   4.853   8.462 -0.5819  0.4506 -0.6387
  130OSM   H18S13984   5.460   4.963   8.466  3.0091  0.0030  0.9446
  130OSM   H18T13985   5.541   4.796   8.471 -1.0021 -0.4331 -1.7454
  130OSM   H18U13986   5.376   4.816   8.540 -1.3962  1.5664 -0.8190
  130OSM    C1F13987   5.263   5.024   6.592  0.4129 -0.7674 -0.3449
  130OSM     OF13988   5.147   5.049   6.553 -0.2825  0.3699 -0.0738
  130OSM    C2F13989   5.360   5.133   6.608 -0.1405 -0.1810  0.2385
  130OSM    H2F13990   5.414   5.158   6.514  2.6946 -0.8707  1.6337
  130OSM    H2G13991   5.441   5.100   6.676  0.2822 -0.0631 -0.2058
  130OSM    C3F13992   5.287   5.264   6.664 -0.6643  0.0697  0.0426
  130OSM    H3F13993   5.206   5.296   6.595 -0.0874 -1.8907 -1.5956
  130OSM    H3G13994   5.362   5.346   6.657  1.8581 -2.2092 -0.6942
  130OSM    C4F13995   5.243   5.249   6.807 -0.0612 -0.3085 -0.6145
  130OSM    H4F13996   5.174   5.162   6.801 -0.6407  0.0442  0.6087
  130OSM    H4G13997   5.184   5.341   6.829  0.8839 -0.0482  0.8731
  130OSM    C5F13998   5.353   5.219   6.909  0.1839 -0.3034 -0.0553
  130OSM    H5F13999   5.430   5.299   6.910 -0.2346  0.1093  1.3689
  130OSM    H5G14000   5.395   5.118   6.894 -0.3955 -0.3251 -1.6567
  130OSM    C6F14001   5.292   5.208   7.049  0.2871  0.3652 -0.3189
  130OSM    H6F14002   5.209   5.135   7.046  0.8619 -0.2314 -1.8688
  130OSM    H6G14003   5.234   5.299   7.076 -1.8994 -1.3046  0.7498
  130OSM    C7F14004   5.403   5.176   7.147 -0.2528 -0.0704 -0.0799
  130OSM    H7F14005   5.481   5.252   7.122 -0.5104 -0.0250 -0.7717
  130OSM    H7G14006   5.438   5.072   7.132  2.5292  0.7861  0.3041
  130OSM    C8F14007   5.376   5.187   7.308 -0.1942 -0.5308 -0.2060
  130OSM    H8F14008   5.473   5.162   7.356  0.5659  0.2666 -1.2939
  130OSM    H8G14009   5.308   5.101   7.328 -0.6102 -0.3445 -0.7899
  130OSM    C9F14010   5.323   5.318   7.363 -0.1267  0.3517  0.6826
  130OSM    H9F14011   5.298   5.391   7.285  1.2826  2.4656  2.1702
  130OSM   C10F14012   5.324   5.359   7.483  0.5784 -0.5903 -0.0448
  130OSM   H10F14013   5.294   5.462   7.506 -2.4224 -1.4055 -0.0670
  130OSM   C11F14014   5.388   5.279   7.595  0.2447 -0.1456  0.0908
  130OSM   H11F14015   5.478   5.327   7.640 -0.0722  0.3434  0.2074
  130OSM   H11G14016   5.400   5.177   7.553 -2.1401  0.0948 -1.2354
  130OSM   C12F14017   5.284   5.266   7.711  0.0871  0.2495  0.8103
  130OSM   H12F14018   5.187   5.232   7.669  0.2530 -1.5067  1.8109
  130OSM   H12G14019   5.263   5.356   7.773 -0.8046  0.7564 -0.2066
  130OSM   C13F14020   5.331   5.162   7.813  0.2984 -0.7355  0.4568
  130OSM   H13F14021   5.415   5.198   7.876 -0.8573  3.6748 -0.3334
  130OSM   H13G14022   5.376   5.074   7.763 -1.3927 -1.5317  0.2986
  130OSM   C14F14023   5.213   5.126   7.906  0.3870  0.1758 -0.5097
  130OSM   H14F14024   5.247   5.048   7.978  0.4122  0.8015  0.1624
  130OSM   H14G14025   5.115   5.106   7.858  0.0468 -0.0872  0.2855
  130OSM   C15F14026   5.191   5.245   8.005 -0.3929 -0.5123  0.1387
  130OSM   H15F14027   5.129   5.315   7.946 -3.9491 -3.0750  0.6825
  130OSM   H15G14028   5.289   5.296   8.021 -0.5857  0.4055 -1.5129
  130OSM   C16F14029   5.130   5.220   8.138  0.0417 -0.2790 -1.2957
  130OSM   H16F14030   5.200   5.171   8.209 -0.3138 -0.3921 -1.0214
  130OSM   H16G14031   5.042   5.153   8.140 -0.1341 -0.0381  1.1224
  130OSM   C17F14032   5.094   5.355   8.211  0.0181 -0.0889 -0.7958
  130OSM   H17F14033   5.178   5.426   8.227 -1.8667  1.5162  2.6321
  130OSM   H17G14034   5.065   5.324   8.314 -1.1353  1.1899 -0.7190
  130OSM   C18F14035   4.968   5.430   8.152 -0.4208 -0.4294  0.6362
  130OSM   H18F14036   4.883   5.358   8.145  0.7692 -1.6227 -2.5694
  130OSM   H18G14037   4.985   5.449   8.044  0.7167  0.8582  1.0429
  130OSM   H18H14038   4.942   5.523   8.206 -0.5659  0.5116 -1.0063
  131OSM      N14039   6.143   2.936   5.873 -0.4116 -0.3748  0.3156
  131OSM    C1514040   6.282   2.889   5.904  0.0442  0.2389 -0.0819
  131OSM   H15A14041   6.340   2.975   5.935  3.2720 -1.6747 -0.6650
  131OSM   H15B14042   6.327   2.838   5.820  0.1889  1.3926 -0.7283
  131OSM   H15C14043   6.291   2.821   5.987  0.6306 -1.1735 -1.2751
  131OSM    C1414044   6.147   3.005   5.737 -0.3943  0.6660 -0.0789
  131OSM   H14A14045   6.050   3.038   5.703 -0.7067  1.7695  1.8003
  131OSM   H14B14046   6.188   2.937   5.663  1.0458  0.5519  0.8082
  131OSM   H14C14047   6.218   3.086   5.738 -0.0241  0.3340  1.1953
  131OSM    C1314048   6.063   2.808   5.863 -0.2020  0.1808  0.9993
  131OSM   H13A14049   6.050   2.758   5.957 -0.4573 -0.9254  0.3897
  131OSM   H13B14050   6.122   2.746   5.797 -0.2098 -0.1136  1.2678
  131OSM   H13C14051   5.962   2.829   5.829  0.8788  0.7390 -2.0723
  131OSM    C1214052   6.082   3.021   5.985  0.4589 -0.5146  0.3160
  131OSM   H12A14053   5.974   3.018   5.977  0.3275  3.1723 -0.4192
  131OSM   H12B14054   6.116   3.124   5.982 -0.2425 -0.3005 -1.1535
  131OSM    C1114055   6.106   2.972   6.126  0.0853  0.4877 -0.1866
  131OSM   H11A14056   6.215   2.970   6.147 -0.3075 -0.7492  1.8850
  131OSM   H11B14057   6.065   2.870   6.140  0.3877  0.2743 -0.8690
  131OSM      P14058   5.872   3.057   6.225  0.4335  0.0603  0.1285
  131OSM    O1314059   5.833   3.158   6.331 -0.0891 -0.1236  0.4951
  131OSM    O1414060   5.810   3.065   6.089 -0.1285 -0.3431  0.1654
  131OSM    O1114061   5.838   2.913   6.286 -0.4984  0.2197 -0.2834
  131OSM    O1214062   6.033   3.053   6.209  0.4547 -0.2414 -0.4967
  131OSM    C1S14063   5.917   2.857   6.396  0.4240 -0.5723  0.2380
  131OSM    H1S14064   6.023   2.890   6.390  0.1567  0.6645  2.1015
  131OSM    H1T14065   5.918   2.746   6.387 -1.1959 -0.4682 -1.5109
  131OSM     NF14066   5.954   2.847   6.645  0.3508  0.2464  0.2657
  131OSM    HNF14067   5.929   2.766   6.698 -0.3211 -0.9567 -1.8290
  131OSM    C2S14068   5.867   2.893   6.537  0.2624  0.1833 -0.9113
  131OSM    H2S14069   5.847   3.002   6.539  3.2593  0.7821 -1.1447
  131OSM    C3S14070   5.721   2.839   6.544  0.0412  0.4158  0.2113
  131OSM    H3S14071   5.728   2.728   6.535  2.8030  0.5842  0.0121
  131OSM     O314072   5.635   2.887   6.444 -0.1898  0.2753  0.1710
  131OSM    HO314073   5.684   2.940   6.381  1.9721  0.7073  2.1318
  131OSM    C4S14074   5.663   2.871   6.680  0.0712 -0.4042 -0.3969
  131OSM    H4S14075   5.642   2.780   6.738  3.1406 -1.1107 -0.3272
  131OSM    C5S14076   5.620   2.993   6.731 -1.2102 -0.8839 -0.0959
  131OSM    H5S14077   5.620   3.090   6.679 -0.2060 -0.5536  0.5056
  131OSM    C6S14078   5.554   3.011   6.868  0.1654 -0.1026  0.3171
  131OSM    H6S14079   5.449   3.048   6.862  1.0476  2.8410  1.9590
  131OSM    H6T14080   5.616   3.068   6.940 -0.7843  0.7385  0.4870
  131OSM    C7S14081   5.541   2.878   6.949  0.4338  0.4687  0.4832
  131OSM    H7S14082   5.641   2.833   6.963  0.1750  0.4203  2.3248
  131OSM    H7T14083   5.489   2.802   6.887 -0.6975  1.1698  0.5480
  131OSM    C8S14084   5.476   2.893   7.095  0.7107 -0.0067  0.0518
  131OSM    H8S14085   5.432   2.791   7.103  2.9803 -1.0582 -0.3845
  131OSM    H8T14086   5.412   2.983   7.101  4.2298  2.7015 -0.8273
  131OSM    C9S14087   5.578   2.901   7.205  0.3736 -0.0924 -0.8146
  131OSM    H9S14088   5.649   2.983   7.179  0.2997  0.4875  0.7624
  131OSM    H9T14089   5.638   2.807   7.213 -0.6041 -0.7557 -1.1062
  131OSM   C10S14090   5.503   2.932   7.329 -0.4937 -0.0045 -0.4951
  131OSM   H10S14091   5.428   2.853   7.350  1.1418 -1.2062  1.0085
  131OSM   H10T14092   5.459   3.033   7.320 -1.5764 -0.1815  2.4671
  131OSM   C11S14093   5.590   2.929   7.451  0.2463 -0.3678 -0.3755
  131OSM   H11S14094   5.668   3.008   7.462 -1.5577  1.0511  2.8743
  131OSM   H11T14095   5.661   2.843   7.454 -0.3440 -0.8320  0.9711
  131OSM   C12S14096   5.506   2.934   7.580  0.5902 -0.3597 -0.7965
  131OSM   H12S14097   5.466   2.830   7.586  0.7654 -0.3977 -0.2117
  131OSM   H12T14098   5.414   2.996   7.581  2.2441  2.1614  0.4745
  131OSM   C13S14099   5.589   2.956   7.706 -0.8890 -0.4764  0.1042
  131OSM   H13S14100   5.511   2.970   7.785 -1.0374  2.5373 -0.5106
  131OSM   H13T14101   5.653   3.045   7.689 -1.6980  0.3307  1.2322
  131OSM   C14S14102   5.676   2.840   7.743 -0.2297  0.1583 -0.6163
  131OSM   H14S14103   5.755   2.834   7.665 -0.0808  2.4790 -0.6619
  131OSM   H14T14104   5.630   2.739   7.753  0.8909 -0.2638  0.4245
  131OSM   C15S14105   5.751   2.863   7.872 -1.1796  0.7739  0.0966
  131OSM   H15S14106   5.693   2.848   7.966 -0.6284 -2.0126  0.0092
  131OSM   H15T14107   5.792   2.967   7.875  0.2232  0.2008  1.8568
  131OSM   C16S14108   5.876   2.772   7.898  0.5136 -0.6614 -0.0120
  131OSM   H16S14109   5.953   2.786   7.819  0.7908  0.6000  0.4732
  131OSM   H16T14110   5.845   2.665   7.895 -1.2784 -0.1616  0.2812
  131OSM   C17S14111   5.950   2.796   8.031  0.2111 -0.4433  0.9560
  131OSM   H17S14112   5.877   2.773   8.111  0.3178  0.6266  1.3681
  131OSM   H17T14113   5.985   2.901   8.042  2.1273 -1.0524  1.0183
  131OSM   C18S14114   6.077   2.705   8.037  0.0462  1.0529  0.1927
  131OSM   H18S14115   6.125   2.717   8.137  1.2885  0.4848 -0.3206
  131OSM   H18T14116   6.151   2.721   7.955  0.2167 -1.4821 -0.2051
  131OSM   H18U14117   6.058   2.596   8.026  2.6652  0.2737  2.6382
  131OSM    C1F14118   6.066   2.913   6.674 -0.3664 -0.7151 -0.5954
  131OSM     OF14119   6.111   3.009   6.612  0.0095 -0.2777  0.0330
  131OSM    C2F14120   6.136   2.848   6.786  0.3151  0.4075 -0.6985
  131OSM    H2F14121   6.238   2.814   6.758 -0.5808 -2.4626 -0.6494
  131OSM    H2G14122   6.083   2.758   6.826  0.8150 -1.0222 -3.1133
  131OSM    C3F14123   6.143   2.954   6.897 -0.1515  0.1931  0.0819
  131OSM    H3F14124   6.197   3.046   6.863  0.6932  0.9329  3.2365
  131OSM    H3G14125   6.200   2.926   6.988  0.7921  2.2382  0.1666
  131OSM    C4F14126   6.002   2.998   6.956 -0.1042  0.2775  0.6689
  131OSM    H4F14127   5.936   3.053   6.886  0.5626 -0.6535 -0.7160
  131OSM    H4G14128   6.013   3.060   7.047  1.8398 -0.2152  0.7875
  131OSM    C5F14129   5.915   2.879   7.006  0.8640 -0.0890 -0.6940
  131OSM    H5F14130   5.872   2.813   6.928  1.1573  0.3086 -1.1968
  131OSM    H5G14131   5.824   2.926   7.050  0.2054 -1.2011 -0.8626
  131OSM    C6F14132   5.982   2.789   7.107 -0.0043 -0.7460  0.4287
  131OSM    H6F14133   6.034   2.856   7.179  4.9511 -1.8918 -1.8515
  131OSM    H6G14134   6.057   2.728   7.052 -0.1387 -2.5784  2.2186
  131OSM    C7F14135   5.897   2.685   7.173  0.8565 -0.0924  0.2336
  131OSM    H7F14136   5.807   2.662   7.112 -0.4219  2.1990  1.2237
  131OSM    H7G14137   5.858   2.732   7.265 -1.2123 -2.5740  0.6919
  131OSM    C8F14138   5.962   2.557   7.217  0.3668  0.0126 -0.0064
  131OSM    H8F14139   5.974   2.496   7.125 -0.2650 -0.0945 -0.0191
  131OSM    H8G14140   5.895   2.492   7.276  1.4237 -0.1175  1.0601
  131OSM    C9F14141   6.095   2.587   7.283 -0.0047  0.4603  0.3923
  131OSM    H9F14142   6.156   2.672   7.249  2.6532 -1.1683  0.9051
  131OSM   C10F14143   6.140   2.526   7.397  0.4244  0.0939 -0.5892
  131OSM   H10F14144   6.233   2.566   7.441  0.7755  0.5041 -1.6698
  131OSM   C11F14145   6.058   2.430   7.484  0.3223  0.0222 -0.2087
  131OSM   H11F14146   5.960   2.401   7.440  0.5281 -0.9231 -0.0525
  131OSM   H11G14147   6.033   2.475   7.583 -0.5774  0.2252 -0.5235
  131OSM   C12F14148   6.148   2.305   7.489 -0.1065  0.4366  0.6763
  131OSM   H12F14149   6.251   2.315   7.531  0.5152  0.1339 -0.7418
  131OSM   H12G14150   6.157   2.258   7.389 -0.5689  1.0389  0.3440
  131OSM   C13F14151   6.082   2.200   7.577  0.3558  0.0712 -0.6216
  131OSM   H13F14152   5.972   2.193   7.565  0.2529 -2.5127  1.3590
  131OSM   H13G14153   6.091   2.242   7.679  1.1133  1.0248 -1.0610
  131OSM   C14F14154   6.131   2.052   7.568  0.8511  1.0647  0.3282
  131OSM   H14F14155   6.102   1.997   7.476  0.6561  2.4327 -0.4431
  131OSM   H14G14156   6.063   2.002   7.640  0.8544 -1.4162 -1.3333
  131OSM   C15F14157   6.273   2.029   7.611  0.0145 -0.1335  0.6786
  131OSM   H15F14158   6.267   1.925   7.651  0.0516 -1.6462 -2.9974
  131OSM   H15G14159   6.301   2.099   7.693 -1.7066 -0.0536  1.2163
  131OSM   C16F14160   6.372   2.030   7.496  0.1527 -0.3811  0.0213
  131OSM   H16F14161   6.371   2.130   7.446 -0.0674  0.3629  1.5093
  131OSM   H16G14162   6.328   1.972   7.412 -0.4077  1.8791 -1.2871
  131OSM   C17F14163   6.513   1.972   7.532  0.7490  0.0288  0.1374
  131OSM   H17F14164   6.571   1.969   7.437  0.2553  1.4554 -0.2108
  131OSM   H17G14165   6.496   1.870   7.575  0.3860  1.1754  2.8401
  131OSM   C18F14166   6.593   2.069   7.627  0.4609  0.1632  0.8307
  131OSM   H18F14167   6.574   2.174   7.593  1.3048 -0.1003 -0.5310
  131OSM   H18G14168   6.700   2.045   7.643  1.0573  1.1802 -1.3990
  131OSM   H18H14169   6.542   2.053   7.724 -0.1918 -1.3050  0.2566
  132OSM      N14170   0.593   0.572   6.322  0.1579 -0.4370  0.4044
  132OSM    C1514171   0.475   0.485   6.346  0.8755  0.6265 -0.4811
  132OSM   H15A14172   0.396   0.549   6.380  1.6945  1.1530  0.4435
  132OSM   H15B14173   0.493   0.426   6.434 -1.3714  0.5992 -0.0101
  132OSM   H15C14174   0.436   0.443   6.254  1.6654 -1.6139  0.1828
  132OSM    C1414175   0.548   0.681   6.231  0.1673 -0.1197  0.1793
  132OSM   H14A14176   0.469   0.741   6.274  0.2107  1.2607 -1.6203
  132OSM   H14B14177   0.522   0.638   6.135  2.7549  2.2927 -1.6674
  132OSM   H14C14178   0.625   0.753   6.208  0.1563 -0.8228 -2.1393
  132OSM    C1314179   0.644   0.637   6.443  0.2441  0.3080 -0.0688
  132OSM   H13A14180   0.724   0.705   6.415 -1.1687  1.6876 -0.7981
  132OSM   H13B14181   0.688   0.571   6.517  0.5967  0.6054 -0.0115
  132OSM   H13C14182   0.568   0.695   6.493  0.6539  0.2525  0.6263
  132OSM    C1214183   0.708   0.488   6.257  0.1551 -0.1133  0.2404
  132OSM   H12A14184   0.762   0.442   6.338 -1.7164 -0.6048  1.2150
  132OSM   H12B14185   0.777   0.562   6.219 -1.0800  0.7846 -0.3055
  132OSM    C1114186   0.675   0.391   6.139  0.4250  0.0696 -1.1339
  132OSM   H11A14187   0.766   0.351   6.088  1.9456  1.0122  0.7860
  132OSM   H11B14188   0.616   0.439   6.058 -0.1771  0.9162 -0.1930
  132OSM      P14189   0.662   0.159   6.269 -0.0753  0.4425 -0.1424
  132OSM    O1314190   0.745   0.069   6.189 -0.0855  0.0234 -0.2620
  132OSM    O1414191   0.726   0.219   6.396  0.4850 -0.1880  0.8548
  132OSM    O1114192   0.532   0.078   6.301 -0.1969  0.6505  0.0989
  132OSM    O1214193   0.600   0.275   6.183  0.4211  0.4581  0.2077
  132OSM    C1S14194   0.538  -0.041   6.386 -0.6436  0.8199  0.6553
  132OSM    H1S14195   0.631  -0.098   6.362 -0.6385  1.2015 -0.2738
  132OSM    H1T14196   0.458  -0.116   6.367  0.0065  0.1235  0.6321
  132OSM     NF14197   0.544  -0.135   6.604 -0.4257  0.4579 -0.1438
  132OSM    HNF14198   0.463  -0.166   6.653 -0.6095  1.5197  0.2526
  132OSM    C2S14199   0.536  -0.009   6.531 -0.3655  0.6263 -0.4538
  132OSM    H2S14200   0.621   0.060   6.549 -1.7889  2.3091  0.0093
  132OSM    C3S14201   0.409   0.070   6.573  0.3824 -0.3694 -0.1626
  132OSM    H3S14202   0.320   0.011   6.541  0.7584 -0.7767 -0.4683
  132OSM     O314203   0.390   0.195   6.502 -0.2339  0.0716 -0.0223
  132OSM    HO314204   0.451   0.192   6.428 -0.7750 -0.2937 -0.4575
  132OSM    C4S14205   0.385   0.089   6.722 -0.3809 -0.3588  0.0493
  132OSM    H4S14206   0.358  -0.003   6.775 -2.2689 -0.4629 -1.0323
  132OSM    C5S14207   0.425   0.195   6.800 -0.6257 -0.1310  0.7911
  132OSM    H5S14208   0.483   0.266   6.740  0.1519 -1.5741 -0.1940
  132OSM    C6S14209   0.411   0.202   6.954  0.0016  0.5699  1.0243
  132OSM    H6S14210   0.310   0.245   6.971 -1.4497 -2.4885  0.3687
  132OSM    H6T14211   0.486   0.266   7.006  0.3136  1.5339 -0.5817
  132OSM    C7S14212   0.409   0.064   7.018  0.7304  0.4326  0.0106
  132OSM    H7S14213   0.498   0.005   6.988 -1.3213 -3.2336  0.7492
  132OSM    H7T14214   0.316   0.012   6.985 -0.0578  1.0884  1.1629
  132OSM    C8S14215   0.427   0.064   7.170  0.5755 -0.5439 -0.8536
  132OSM    H8S14216   0.342   0.120   7.215  0.5004 -1.7991  0.6163
  132OSM    H8T14217   0.513   0.115   7.217  0.5108 -1.6461  0.5147
  132OSM    C9S14218   0.449  -0.070   7.231 -0.4357 -0.8120  0.0630
  132OSM    H9S14219   0.527  -0.130   7.179  0.9531  0.5626  0.5109
  132OSM    H9T14220   0.354  -0.128   7.232 -1.0232  0.1455  0.6317
  132OSM   C10S14221   0.498  -0.067   7.378  0.0202 -0.0172  0.7731
  132OSM   H10S14222   0.586   0.000   7.385 -0.1939  0.1542  1.8168
  132OSM   H10T14223   0.526  -0.173   7.397 -1.8345 -0.7271 -0.2998
  132OSM   C11S14224   0.394  -0.027   7.490 -0.8543  0.0355 -0.0835
  132OSM   H11S14225   0.318  -0.107   7.481  1.4408 -2.1394 -0.7093
  132OSM   H11T14226   0.359   0.076   7.473 -0.8890  0.0637  0.1551
  132OSM   C12S14227   0.453  -0.056   7.634  0.2564  0.7259  0.2713
  132OSM   H12S14228   0.517   0.026   7.674  0.0884  0.1864  1.6684
  132OSM   H12T14229   0.524  -0.141   7.636 -2.2391 -1.4455 -0.4282
  132OSM   C13S14230   0.346  -0.095   7.744 -0.8191 -0.1130 -0.1624
  132OSM   H13S14231   0.311  -0.198   7.722 -0.5970 -0.0726 -0.7243
  132OSM   H13T14232   0.266  -0.019   7.729 -1.4932 -1.2001 -2.2825
  132OSM   C14S14233   0.392  -0.087   7.887  0.5333 -0.4753  0.1831
  132OSM   H14S14234   0.397   0.021   7.912  0.0350 -0.1791 -0.9500
  132OSM   H14T14235   0.484  -0.143   7.913 -2.2210 -5.0343  0.7726
  132OSM   C15S14236   0.280  -0.141   7.987  0.5398  0.3506 -0.1460
  132OSM   H15S14237   0.182  -0.094   7.964  0.3967  0.5827  0.8839
  132OSM   H15T14238   0.295  -0.106   8.092  0.9188 -3.1109  1.0229
  132OSM   C16S14239   0.271  -0.292   7.996  0.6049  0.8724 -0.3375
  132OSM   H16S14240   0.376  -0.329   8.010  0.6231  1.5737  1.5790
  132OSM   H16T14241   0.236  -0.346   7.906 -1.7449  0.0883  0.9933
  132OSM   C17S14242   0.186  -0.334   8.107  0.0838 -0.3095 -0.8498
  132OSM   H17S14243   0.082  -0.315   8.074 -0.2625 -0.8998 -0.1097
  132OSM   H17T14244   0.214  -0.275   8.197 -1.4390  0.3533 -0.7894
  132OSM   C18S14245   0.197  -0.481   8.151  0.4993  0.3162  0.8043
  132OSM   H18S14246   0.165  -0.545   8.066 -2.2386  1.1373  1.1631
  132OSM   H18T14247   0.120  -0.506   8.227  1.3156 -3.2465  0.5469
  132OSM   H18U14248   0.294  -0.506   8.199  0.0628  0.1471  1.5988
  132OSM    C1F14249   0.657  -0.208   6.619 -0.3091 -0.3547 -0.8105
  132OSM     OF14250   0.757  -0.172   6.563 -0.8845  0.4988  0.1500
  132OSM    C2F14251   0.661  -0.323   6.718  0.2963  0.2063 -0.2888
  132OSM    H2F14252   0.637  -0.416   6.662 -0.2740 -0.6072  1.2843
  132OSM    H2G14253   0.569  -0.312   6.779 -2.1843 -0.8167 -3.7254
  132OSM    C3F14254   0.789  -0.317   6.809 -0.2671 -0.2943  0.3536
  132OSM    H3F14255   0.804  -0.211   6.839  0.3937  0.7326 -3.3488
  132OSM    H3G14256   0.883  -0.344   6.757 -0.3965 -0.7388  0.3487
  132OSM    C4F14257   0.762  -0.404   6.943 -0.2483 -0.6286  0.1281
  132OSM    H4F14258   0.766  -0.512   6.918  0.3124 -0.6473  0.3015
  132OSM    H4G14259   0.663  -0.370   6.982 -0.0167  1.7085 -1.2257
  132OSM    C5F14260   0.863  -0.371   7.052  0.4444  0.4095  0.8173
  132OSM    H5F14261   0.872  -0.260   7.062  0.4278  0.9346 -3.7502
  132OSM    H5G14262   0.956  -0.415   7.009 -0.8723 -2.9613  1.3393
  132OSM    C6F14263   0.813  -0.430   7.185  0.8001 -0.1010 -0.0894
  132OSM    H6F14264   0.797  -0.539   7.171  0.4975 -0.2647  1.4546
  132OSM    H6G14265   0.709  -0.398   7.207  1.2823  2.0606 -0.8966
  132OSM    C7F14266   0.900  -0.420   7.306  0.5030 -0.5008 -0.5887
  132OSM    H7F14267   0.909  -0.311   7.323 -1.7440 -0.1708 -1.4714
  132OSM    H7G14268   1.003  -0.460   7.288  0.3815 -0.6500 -0.9591
  132OSM    C8F14269   0.840  -0.503   7.425  0.9263  0.2072 -0.1371
  132OSM    H8F14270   0.818  -0.603   7.381  2.4091  0.1220 -0.7386
  132OSM    H8G14271   0.745  -0.451   7.450 -0.1348 -1.8883  0.3414
  132OSM    C9F14272   0.947  -0.530   7.528 -0.5302 -0.1040 -0.1577
  132OSM    H9F14273   1.034  -0.591   7.499 -1.2949 -1.8020  1.0594
  132OSM   C10F14274   0.931  -0.500   7.656 -0.2880 -0.1819  0.0816
  132OSM   H10F14275   1.012  -0.528   7.724  2.0275 -4.3902 -4.0670
  132OSM   C11F14276   0.822  -0.416   7.720  0.4370 -0.4317 -0.3334
  132OSM   H11F14277   0.732  -0.471   7.755 -1.7035  3.8994  1.3089
  132OSM   H11G14278   0.782  -0.347   7.643 -1.5954  0.2948  1.3315
  132OSM   C12F14279   0.884  -0.328   7.835  0.6687  0.4866  0.3817
  132OSM   H12F14280   0.815  -0.247   7.869 -1.5786 -1.5645  0.7896
  132OSM   H12G14281   0.974  -0.274   7.799 -0.5028  2.1553 -0.1293
  132OSM   C13F14282   0.906  -0.410   7.966  0.4032  0.3129 -0.0536
  132OSM   H13F14283   0.963  -0.333   8.022  2.4208 -0.4832 -0.9965
  132OSM   H13G14284   0.965  -0.502   7.948  1.1214  0.6471  0.5668
  132OSM   C14F14285   0.773  -0.434   8.048  0.0244  0.2762  0.4693
  132OSM   H14F14286   0.715  -0.515   7.998 -0.4331  0.4729  0.6785
  132OSM   H14G14287   0.713  -0.341   8.056  0.6649  0.7588 -0.1661
  132OSM   C15F14288   0.805  -0.467   8.192 -1.0249  0.1583  0.2796
  132OSM   H15F14289   0.850  -0.374   8.233 -1.5194  0.8620 -0.7637
  132OSM   H15G14290   0.875  -0.554   8.196 -0.6351  0.5103  1.1065
  132OSM   C16F14291   0.685  -0.489   8.288  0.0102 -0.1378  0.1189
  132OSM   H16F14292   0.626  -0.577   8.255 -1.4695  0.2357  1.6813
  132OSM   H16G14293   0.620  -0.400   8.275  3.4593  2.4822  0.0127
  132OSM   C17F14294   0.728  -0.503   8.438  0.3396 -0.1045 -0.4104
  132OSM   H17F14295   0.821  -0.564   8.430 -0.0575 -0.6296 -1.0738
  132OSM   H17G14296   0.652  -0.570   8.483  0.3955  1.8623  2.7060
  132OSM   C18F14297   0.743  -0.374   8.511 -0.7712 -0.5235 -0.1635
  132OSM   H18F14298   0.776  -0.372   8.617 -1.3480  0.4652  0.0118
  132OSM   H18G14299   0.643  -0.326   8.523 -0.0430  0.9592  0.0505
  132OSM   H18H14300   0.812  -0.302   8.461  0.5735 -1.7402 -0.0783
  133SAPE     N14301   3.235   4.840  10.789 -0.4962  0.3319  0.2553
  133SAPE   HN114302   3.197   4.860  10.694 -0.6215  0.4235  0.3247
  133SAPE   HN214303   3.165   4.786  10.845 -1.6721  0.5498 -0.9931
  133SAPE   HN314304   3.264   4.925  10.841  1.1538  1.3716 -2.2694
  133SAPE   C1214305   3.362   4.764  10.760 -0.0307  0.0120 -0.0591
  133SAPE  H12A14306   3.388   4.715  10.856 -0.6419  2.4663  1.4071
  133SAPE  H12B14307   3.441   4.838  10.734  0.0063  0.6882  1.9447
  133SAPE   C1114308   3.341   4.656  10.646  0.4136  0.7621 -0.2419
  133SAPE  H11A14309   3.289   4.688  10.553 -0.2110 -1.8685 -0.8502
  133SAPE  H11B14310   3.269   4.580  10.684  1.1327  0.1885 -0.0123
  133SAPE     P14311   3.514   4.451  10.656 -0.0068 -0.1499  0.5436
  133SAPE   O1314312   3.660   4.431  10.638  0.7728  0.9584  0.2368
  133SAPE   O1414313   3.462   4.441  10.790  0.4941 -0.3653 -0.6407
  133SAPE   O1214314   3.471   4.599  10.614  0.6159 -0.3521  0.3301
  133SAPE   O1114315   3.432   4.384  10.550  0.4114  0.0218  0.0212
  133SAPE    C114316   3.480   4.329  10.432  0.3371 -0.0353  0.2147
  133SAPE    HA14317   3.566   4.263  10.455 -0.3517 -0.9113  0.3089
  133SAPE    HB14318   3.404   4.261  10.387  1.3088 -0.3410 -1.0090
  133SAPE    C214319   3.511   4.427  10.317 -0.3564  0.0825 -0.1527
  133SAPE    HS14320   3.585   4.499  10.357  0.1835  0.0314 -1.0599
  133SAPE   O2114321   3.395   4.496  10.286  0.3267 -0.3974  0.2218
  133SAPE   C2114322   3.413   4.603  10.210 -0.4956  0.4532  0.1966
  133SAPE   O2214323   3.517   4.666  10.193  0.1232 -0.0118  0.1142
  133SAPE   C2214324   3.278   4.650  10.159  0.0353  0.1861  0.0803
  133SAPE   H2R14325   3.210   4.565  10.136 -2.5109  1.6446  1.9840
  133SAPE   H2S14326   3.221   4.702  10.239 -1.4755 -1.4608  0.1223
  133SAPE    C314327   3.571   4.359  10.190 -0.5015  0.1585  0.5046
  133SAPE    HX14328   3.488   4.307  10.139  0.9769 -1.3819 -0.3928
  133SAPE    HY14329   3.643   4.277  10.215 -1.6529 -0.3279  2.2996
  133SAPE   O3114330   3.628   4.450  10.099  0.6743  0.1511  0.3251
  133SAPE   C3114331   3.753   4.499  10.129  0.4228 -0.9020  0.2619
  133SAPE   O3214332   3.822   4.454  10.219  0.6257 -0.1425 -0.2087
  133SAPE   C3214333   3.800   4.606  10.022  0.3711 -0.2893  0.1482
  133SAPE   H2X14334   3.905   4.593   9.990 -0.3771 -0.1932 -2.4994
  133SAPE   H2Y14335   3.794   4.703  10.077 -0.0644  0.7122 -1.6103
  133SAPE   C2314336   3.304   4.736  10.032 -0.5572 -0.2499 -0.4143
  133SAPE   H3R14337   3.400   4.791  10.028 -1.8966  2.1400 -0.4503
  133SAPE   H3S14338   3.228   4.813  10.008 -1.1064 -0.4515  0.6515
  133SAPE   C2414339   3.321   4.654   9.901  0.1807  0.7434  0.5184
  133SAPE   H4R14340   3.401   4.578   9.915  1.7212  2.0526 -0.9465
  133SAPE   H4S14341   3.357   4.726   9.824  0.3316  0.7718  0.6147
  133SAPE   C2514342   3.192   4.582   9.849  0.4740  0.3625 -0.5007
  133SAPE   H5R14343   3.132   4.538   9.930  1.9297 -0.0861  0.3553
  133SAPE   C2614344   3.132   4.587   9.729  0.6366  0.1202 -0.4464
  133SAPE   H6R14345   3.044   4.523   9.712  0.6002 -0.6166  2.2111
  133SAPE   C2714346   3.177   4.672   9.621 -0.2374  0.0903 -0.3810
  133SAPE   H7R14347   3.226   4.609   9.544 -0.2248 -4.8332  3.4584
  133SAPE   H7S14348   3.264   4.736   9.646  0.5875 -0.9753 -0.5089
  133SAPE   C2814349   3.075   4.762   9.556  0.2916  0.7406 -0.8247
  133SAPE   H8R14350   3.062   4.862   9.599  0.5434  0.5801 -0.3727
  133SAPE   C2914351   3.004   4.729   9.451 -0.1739 -0.1466 -0.8692
  133SAPE   H9R14352   2.936   4.809   9.418 -1.2383  0.0085  1.6432
  133SAPE  C21014353   3.002   4.602   9.362 -0.7677 -1.0247 -0.4386
  133SAPE  H10R14354   2.918   4.606   9.290 -1.4058 -2.7086  0.1754
  133SAPE  H10S14355   2.970   4.518   9.427 -0.3299 -2.2646 -1.8045
  133SAPE  C21114356   3.124   4.558   9.300  0.2314 -0.3880  0.1013
  133SAPE  H11R14357   3.174   4.478   9.356  0.4981 -0.6763 -0.5346
  133SAPE  C21214358   3.178   4.587   9.183 -0.3371 -0.2588 -0.7149
  133SAPE  H12R14359   3.275   4.541   9.160 -0.0697 -2.6889  4.4341
  133SAPE  C21314360   3.126   4.695   9.085 -0.2681  0.8803 -0.7599
  133SAPE  H13R14361   3.203   4.771   9.059  3.9243 -2.9693 -0.2804
  133SAPE  H13S14362   3.033   4.735   9.129 -1.4640  0.3177 -2.6978
  133SAPE  C21414363   3.080   4.644   8.952 -0.2965  0.0694  0.5007
  133SAPE  H14R14364   2.974   4.613   8.957 -0.3788  0.1564 -0.6046
  133SAPE  C21514365   3.160   4.605   8.847 -0.5626  0.3368  0.2103
  133SAPE  H15R14366   3.114   4.564   8.756 -2.2294  1.3551  0.5736
  133SAPE  C21614367   3.310   4.613   8.848 -0.5896 -0.1335  0.3918
  133SAPE  H16R14368   3.348   4.619   8.953  1.3208 -0.5736 -0.2411
  133SAPE  H16S14369   3.341   4.706   8.797  1.4282 -0.8298  0.2891
  133SAPE  C21714370   3.379   4.496   8.775  0.2506 -0.0970  0.3091
  133SAPE  H17R14371   3.328   4.476   8.679  2.1745 -0.3421 -0.6930
  133SAPE  H17S14372   3.360   4.407   8.838  0.4935 -1.0513 -0.9574
  133SAPE  C21814373   3.526   4.517   8.753  0.5000  0.4816 -0.6481
  133SAPE  H18R14374   3.585   4.548   8.842  3.5620 -1.3924 -1.9756
  133SAPE  H18S14375   3.537   4.586   8.667 -2.4785 -0.2617 -1.6902
  133SAPE  C21914376   3.600   4.383   8.706 -0.1851  0.1673 -0.1126
  133SAPE  H19R14377   3.546   4.360   8.612  0.3927  0.4190 -0.5060
  133SAPE  H19S14378   3.576   4.302   8.778 -1.1449 -2.4763 -3.3019
  133SAPE  C22014379   3.748   4.392   8.672 -0.0710  0.4701  0.2403
  133SAPE  H20R14380   3.767   4.478   8.605 -1.1218  0.7416  0.2831
  133SAPE  H20S14381   3.792   4.307   8.615 -1.5018  0.0906 -0.3256
  133SAPE  H20T14382   3.802   4.393   8.769  0.5856 -1.9375 -0.0535
  133SAPE   C3314383   3.709   4.620   9.896  0.1051  0.0871  0.1658
  133SAPE   H3X14384   3.607   4.645   9.933  1.3911  0.2470  3.7757
  133SAPE   H3Y14385   3.711   4.523   9.843 -1.8291 -1.0028  2.0016
  133SAPE   C3414386   3.755   4.740   9.812 -0.2265 -0.5193  0.4044
  133SAPE   H4X14387   3.848   4.707   9.761 -1.6415 -2.9028 -0.7122
  133SAPE   H4Y14388   3.779   4.822   9.884 -2.4725 -1.8737  2.7967
  133SAPE   C3514389   3.657   4.798   9.709 -0.1557 -0.4386  0.3637
  133SAPE   H5X14390   3.709   4.884   9.661 -1.7567 -0.1943 -0.9702
  133SAPE   H5Y14391   3.571   4.839   9.767 -2.8728 -2.1962 -2.3191
  133SAPE   C3614392   3.614   4.692   9.609  0.4958 -1.0522  0.2269
  133SAPE   H6X14393   3.572   4.607   9.666  0.0926  0.1665  1.7716
  133SAPE   H6Y14394   3.706   4.651   9.564  1.3989 -1.4409  2.3827
  133SAPE   C3714395   3.523   4.749   9.494  0.4112  0.4941 -0.1504
  133SAPE   H7X14396   3.578   4.830   9.441  1.0841 -0.0039 -0.2178
  133SAPE   H7Y14397   3.425   4.784   9.533 -0.3297 -1.4133 -0.2435
  133SAPE   C3814398   3.484   4.640   9.388 -0.1268  0.5201  0.7803
  133SAPE   H8X14399   3.397   4.682   9.333  0.0675 -0.8974 -0.6641
  133SAPE   H8Y14400   3.439   4.551   9.438 -1.7833  0.6245 -0.4939
  133SAPE   C3914401   3.598   4.604   9.296 -0.3937  0.3924 -0.3917
  133SAPE   H9X14402   3.680   4.563   9.359 -0.9199  0.1150  0.1146
  133SAPE   H9Y14403   3.628   4.703   9.255  2.1757 -0.8757 -1.7547
  133SAPE  C31014404   3.567   4.509   9.179 -0.3072 -0.1387 -0.0947
  133SAPE  H10X14405   3.662   4.501   9.122 -0.3870 -1.3926 -0.0639
  133SAPE  H10Y14406   3.491   4.551   9.109 -0.2387 -0.2219 -0.2181
  133SAPE  C31114407   3.526   4.366   9.214 -0.9469 -0.0544  0.3454
  133SAPE  H11X14408   3.416   4.355   9.230 -1.4379  1.7513 -1.5000
  133SAPE  H11Y14409   3.566   4.339   9.314 -1.0765  1.6507  0.8630
  133SAPE  C31214410   3.563   4.256   9.108 -0.5112  0.2822  0.3689
  133SAPE  H12X14411   3.507   4.276   9.015  0.8789 -3.6673 -1.4102
  133SAPE  H12Y14412   3.544   4.154   9.148 -0.2232  0.3879  0.7791
  133SAPE  C31314413   3.717   4.241   9.079  0.3916 -0.0510 -0.5228
  133SAPE  H13X14414   3.748   4.336   9.031 -0.4916  0.0732 -0.8461
  133SAPE  H13Y14415   3.719   4.158   9.006 -0.6785 -1.5392  1.0879
  133SAPE  C31414416   3.799   4.199   9.202  0.2167  0.2857 -0.4314
  133SAPE  H14X14417   3.740   4.141   9.275 -1.1507 -0.8334 -2.3682
  133SAPE  H14Y14418   3.841   4.295   9.240 -0.6499  0.1892  0.7844
  133SAPE  C31514419   3.924   4.118   9.154 -0.1841  0.2266 -0.2412
  133SAPE  H15X14420   3.984   4.192   9.097 -0.2391  1.5509  1.3749
  133SAPE  H15Y14421   3.898   4.040   9.079 -1.2065 -0.0869  0.4208
  133SAPE  C31614422   3.985   4.038   9.273 -0.7112 -0.8147 -0.2588
  133SAPE  H16X14423   4.086   4.004   9.243 -0.9860 -1.4388 -0.4767
  133SAPE  H16Y14424   3.929   3.946   9.299 -0.8095 -0.6088  0.2583
  133SAPE  C31714425   4.018   4.124   9.393 -0.4719  0.1183 -0.4219
  133SAPE  H17X14426   3.932   4.186   9.425  1.7206  1.7852  2.5904
  133SAPE  H17Y14427   4.099   4.190   9.355  0.5752 -0.9303 -0.0379
  133SAPE  C31814428   4.098   4.060   9.505 -0.7174  0.1773 -0.1598
  133SAPE  H18X14429   4.187   4.000   9.475  0.3994  2.3292 -1.3386
  133SAPE  H18Y14430   4.048   3.989   9.574  1.5876 -0.7978  0.5777
  133SAPE  H18Z14431   4.131   4.139   9.575  2.3707  0.0590 -1.3650
  134SAPE     N14432   6.173   5.546  10.688  0.0171 -0.8391 -0.0287
  134SAPE   HN114433   6.196   5.646  10.703  0.5444 -0.7565 -1.3017
  134SAPE   HN214434   6.237   5.478  10.732 -0.5598 -0.9207  0.7019
  134SAPE   HN314435   6.180   5.529  10.586 -2.3135  3.8821 -1.1196
  134SAPE   C1214436   6.028   5.517  10.733  0.5857  0.3987  0.1659
  134SAPE  H12A14437   5.955   5.588  10.688 -2.0203 -2.6186 -0.5589
  134SAPE  H12B14438   6.021   5.518  10.844 -0.3872 -1.6738  0.1583
  134SAPE   C1114439   5.985   5.380  10.678 -0.4273 -0.2069 -0.1559
  134SAPE  H11A14440   5.996   5.381  10.567 -0.2634 -0.4442 -0.1406
  134SAPE  H11B14441   5.878   5.356  10.694 -0.3378 -0.9370 -0.6316
  134SAPE     P14442   6.075   5.123  10.711 -0.3660  0.1345  0.1557
  134SAPE   O1314443   6.189   5.061  10.779 -0.2628  0.6200 -0.0907
  134SAPE   O1414444   5.944   5.068  10.756 -0.5997 -0.5654 -0.6340
  134SAPE   O1214445   6.074   5.282  10.729 -0.2759  0.1601 -0.0640
  134SAPE   O1114446   6.096   5.109  10.557  0.0885  0.2973 -0.5867
  134SAPE    C114447   6.221   5.158  10.510  0.9330  0.2764 -0.4379
  134SAPE    HA14448   6.221   5.269  10.497  1.3655  0.5178  1.4809
  134SAPE    HB14449   6.311   5.120  10.564 -0.2395 -0.4715  1.0182
  134SAPE    C214450   6.243   5.098  10.362 -0.6876  0.1550  0.0192
  134SAPE    HS14451   6.328   5.155  10.319  0.1534 -1.1047  0.0058
  134SAPE   O2114452   6.121   5.121  10.280 -0.4234  0.3562  0.2753
  134SAPE   C2114453   6.118   5.242  10.232  0.1292 -0.4204 -0.4696
  134SAPE   O2214454   6.207   5.327  10.243 -0.0244  0.4034 -0.0261
  134SAPE   C2214455   5.993   5.254  10.138  0.0752 -0.6053 -0.8104
  134SAPE   H2R14456   5.907   5.240  10.207  1.5733  0.4983  1.3488
  134SAPE   H2S14457   5.980   5.363  10.118 -2.7027 -0.6328  0.6777
  134SAPE    C314458   6.271   4.950  10.373 -0.1969 -0.2497  0.9729
  134SAPE    HX14459   6.185   4.904  10.425  0.6578 -1.8288  1.0287
  134SAPE    HY14460   6.362   4.928  10.433  1.5553  2.2790 -0.6434
  134SAPE   O3114461   6.294   4.892  10.240 -0.1803  0.5032 -0.6714
  134SAPE   C3114462   6.186   4.836  10.188 -0.0729  0.4583 -0.4776
  134SAPE   O3214463   6.074   4.836  10.229  0.1644 -0.3911  0.2259
  134SAPE   C3214464   6.225   4.761  10.058 -0.4092 -0.2481  0.2375
  134SAPE   H2X14465   6.169   4.821   9.984 -0.5641  1.4600  1.7041
  134SAPE   H2Y14466   6.189   4.657  10.071  0.7861 -0.7291 -0.2963
  134SAPE   C2314467   6.004   5.163  10.012 -0.2447  0.3422 -0.0785
  134SAPE   H3R14468   5.901   5.172   9.970 -0.6367 -1.4703  0.4546
  134SAPE   H3S14469   6.015   5.056  10.040  1.0605  1.0904  2.3454
  134SAPE   C2414470   6.100   5.208   9.904 -0.4393 -0.2649 -0.1887
  134SAPE   H4R14471   6.203   5.183   9.938 -0.1849 -0.2316 -0.9470
  134SAPE   H4S14472   6.098   5.319   9.892  0.5522 -0.3401 -1.0470
  134SAPE   C2514473   6.073   5.130   9.779  0.3433  0.0144 -1.0416
  134SAPE   H5R14474   6.103   5.024   9.773 -1.8754 -0.7947  1.2228
  134SAPE   C2614475   5.995   5.181   9.677 -0.6147  0.6459  0.4516
  134SAPE   H6R14476   5.984   5.127   9.581 -0.6030  1.7699 -0.2003
  134SAPE   C2714477   5.933   5.318   9.675 -0.0473  0.1913 -0.2878
  134SAPE   H7R14478   6.013   5.393   9.690  0.8640 -0.6642 -0.7719
  134SAPE   H7S14479   5.867   5.335   9.762  0.8775 -0.9384  0.6526
  134SAPE   C2814480   5.855   5.349   9.554 -0.4692  0.5598  0.2330
  134SAPE   H8R14481   5.745   5.349   9.566 -0.5310 -2.3513  0.1134
  134SAPE   C2914482   5.902   5.371   9.429  0.6404 -0.8441 -0.7062
  134SAPE   H9R14483   5.836   5.385   9.342  0.0354 -3.4027 -0.6952
  134SAPE  C21014484   6.042   5.372   9.376 -0.0982 -0.5348 -0.1883
  134SAPE  H10R14485   6.118   5.329   9.446  0.2152 -0.5452 -0.5340
  134SAPE  H10S14486   6.073   5.478   9.365  0.4274 -0.3764  2.4355
  134SAPE  C21114487   6.049   5.284   9.252  0.0342  0.7433 -0.6035
  134SAPE  H11R14488   6.070   5.180   9.282  0.4361  1.7111  2.6549
  134SAPE  C21214489   6.040   5.321   9.121 -0.4311 -0.0412  0.6943
  134SAPE  H12R14490   6.049   5.252   9.036 -0.9657  0.5784  0.1258
  134SAPE  C21314491   6.005   5.461   9.081 -0.2459 -0.1533 -0.7286
  134SAPE  H13R14492   5.993   5.526   9.170 -1.0215 -0.1873 -0.8035
  134SAPE  H13S14493   5.898   5.460   9.052 -0.1222  0.0717 -1.1929
  134SAPE  C21414494   6.092   5.515   8.972 -0.3376  0.1006  0.0179
  134SAPE  H14R14495   6.187   5.552   9.013  0.0590 -1.5074  0.5832
  134SAPE  C21514496   6.074   5.512   8.842  0.1746  0.1720 -0.1067
  134SAPE  H15R14497   6.160   5.533   8.777 -1.0164  0.9009 -1.4829
  134SAPE  C21614498   5.947   5.469   8.780  1.2179 -0.0732  0.2642
  134SAPE  H16R14499   5.864   5.529   8.823  3.2194  2.4125  0.7822
  134SAPE  H16S14500   5.934   5.360   8.800  1.1325 -0.7096 -2.9681
  134SAPE  C21714501   5.945   5.500   8.627 -0.5657 -0.2503 -0.7664
  134SAPE  H17R14502   6.030   5.438   8.589 -1.1406 -0.6366 -1.4223
  134SAPE  H17S14503   5.976   5.607   8.622 -1.3256  0.0036 -0.1545
  134SAPE  C21814504   5.811   5.472   8.557  0.2124  1.0403  0.1482
  134SAPE  H18R14505   5.811   5.508   8.452 -2.2657 -0.0018 -0.2432
  134SAPE  H18S14506   5.726   5.512   8.616  0.0504  0.8447  0.0494
  134SAPE  C21914507   5.769   5.321   8.541 -0.1021  0.7610 -0.2207
  134SAPE  H19R14508   5.770   5.269   8.639 -0.0341  0.8523 -0.1720
  134SAPE  H19S14509   5.852   5.285   8.476  0.8396  3.0358 -0.3341
  134SAPE  C22014510   5.634   5.305   8.470 -0.4082 -0.0294 -0.5028
  134SAPE  H20R14511   5.637   5.339   8.364  2.4986 -0.0808 -0.4798
  134SAPE  H20S14512   5.556   5.353   8.532  0.2353 -1.9691  1.8777
  134SAPE  H20T14513   5.624   5.194   8.466 -0.0352 -0.1631  1.6415
  134SAPE   C3314514   6.376   4.767  10.013 -0.0025  0.8627  0.6634
  134SAPE   H3X14515   6.433   4.693  10.073 -1.7240 -0.4554  0.7249
  134SAPE   H3Y14516   6.422   4.867  10.024  1.1549  0.4653 -0.3803
  134SAPE   C3414517   6.399   4.728   9.865 -0.8430  0.6935  0.3184
  134SAPE   H4X14518   6.360   4.625   9.850  2.0349 -0.2323 -1.1495
  134SAPE   H4Y14519   6.509   4.725   9.850 -0.8963 -1.4369  0.1140
  134SAPE   C3514520   6.325   4.819   9.770  0.1374  0.4781  0.1206
  134SAPE   H5X14521   6.334   4.925   9.804 -0.3003 -0.2275  2.5274
  134SAPE   H5Y14522   6.218   4.789   9.770 -0.2397  1.8026  0.1858
  134SAPE   C3614523   6.373   4.819   9.627  0.2368 -1.1941 -0.9267
  134SAPE   H6X14524   6.461   4.887   9.619 -1.4576  1.5351  2.0902
  134SAPE   H6Y14525   6.291   4.869   9.571 -1.0810 -1.3712  0.7829
  134SAPE   C3714526   6.404   4.682   9.565 -0.4670  0.2577 -0.5110
  134SAPE   H7X14527   6.320   4.612   9.582 -0.4595  0.6927  1.4014
  134SAPE   H7Y14528   6.490   4.643   9.623 -0.4480  1.8175  0.5386
  134SAPE   C3814529   6.457   4.693   9.418  0.2876  0.2767 -0.0095
  134SAPE   H8X14530   6.485   4.593   9.378  1.6255  0.9822 -0.8630
  134SAPE   H8Y14531   6.548   4.756   9.420  0.7022 -0.2497 -1.5907
  134SAPE   C3914532   6.352   4.763   9.326 -0.0501  0.5288 -0.3724
  134SAPE   H9X14533   6.327   4.867   9.356 -0.2660  0.1774  0.6883
  134SAPE   H9Y14534   6.263   4.698   9.339  1.0955 -1.1512 -0.7235
  134SAPE  C31014535   6.403   4.767   9.186  0.1530  0.3902  0.1665
  134SAPE  H10X14536   6.465   4.678   9.163  0.8154  1.2553 -1.4725
  134SAPE  H10Y14537   6.461   4.859   9.164  1.3349 -0.4970 -0.5049
  134SAPE  C31114538   6.283   4.774   9.089 -0.2511 -0.2031 -0.2102
  134SAPE  H11X14539   6.212   4.857   9.110 -0.6198 -1.2031  2.8230
  134SAPE  H11Y14540   6.226   4.680   9.105  1.1659 -1.8404 -4.2504
  134SAPE  C31214541   6.324   4.779   8.941  0.2808 -0.2462 -0.4868
  134SAPE  H12X14542   6.413   4.713   8.931 -0.5294 -1.0462 -2.8068
  134SAPE  H12Y14543   6.341   4.884   8.909 -2.3009 -0.0611 -1.3364
  134SAPE  C31314544   6.218   4.731   8.843 -0.1539  0.3409 -0.0223
  134SAPE  H13X14545   6.123   4.779   8.877 -1.0305  0.5051 -2.6302
  134SAPE  H13Y14546   6.203   4.626   8.875 -3.1345  0.7725  0.1228
  134SAPE  C31414547   6.238   4.760   8.699 -0.6896 -0.4354 -0.0112
  134SAPE  H14X14548   6.261   4.868   8.686  3.8204 -1.3822 -0.5996
  134SAPE  H14Y14549   6.141   4.737   8.649  0.5847 -3.1785 -1.3337
  134SAPE  C31514550   6.349   4.678   8.627  0.4113 -0.2195  0.1364
  134SAPE  H15X14551   6.452   4.705   8.660  0.4445 -0.0788 -0.0881
  134SAPE  H15Y14552   6.349   4.713   8.522 -1.4415  0.5710  0.3831
  134SAPE  C31614553   6.334   4.528   8.647  0.7672 -0.0413 -0.2919
  134SAPE  H16X14554   6.303   4.498   8.749  0.8383  2.1733  0.3850
  134SAPE  H16Y14555   6.437   4.489   8.631  0.0786 -1.8899 -0.4292
  134SAPE  C31714556   6.240   4.444   8.560 -0.1046  0.1967  0.2859
  134SAPE  H17X14557   6.264   4.451   8.451  0.6072 -1.3352  0.3248
  134SAPE  H17Y14558   6.137   4.485   8.561 -0.3630 -0.4139 -0.2601
  134SAPE  C31814559   6.231   4.292   8.597  0.1402  0.9855  0.0293
  134SAPE  H18X14560   6.195   4.288   8.701 -0.7553  1.7226 -0.2482
  134SAPE  H18Y14561   6.324   4.234   8.579 -0.3258  0.3967 -0.5148
  134SAPE  H18Z14562   6.156   4.239   8.535 -0.1726 -0.9695  2.0365
  135SAPE     N14563   4.909   3.522  10.513  0.1924  0.6400  0.7294
  135SAPE   HN114564   4.906   3.491  10.612  0.0871  0.2779  0.6151
  135SAPE   HN214565   4.984   3.594  10.516  0.7943  0.0087  0.9557
  135SAPE   HN314566   4.827   3.579  10.484 -1.3262 -1.8953 -0.1549
  135SAPE   C1214567   4.974   3.423  10.425  0.3813  0.1444 -0.4878
  135SAPE  H12A14568   4.977   3.466  10.323 -2.9775  0.7170 -0.3984
  135SAPE  H12B14569   4.915   3.330  10.437 -1.8617  1.4865 -0.9199
  135SAPE   C1114570   5.121   3.421  10.468  0.5797 -0.3188 -0.0755
  135SAPE  H11A14571   5.177   3.506  10.424 -0.3013  0.4702  0.3235
  135SAPE  H11B14572   5.163   3.335  10.412 -1.3608 -2.0758  1.0773
  135SAPE     P14573   5.177   3.278  10.687  0.2722 -0.3897 -0.0563
  135SAPE   O1314574   5.317   3.271  10.737  0.6691  0.1489  0.1153
  135SAPE   O1414575   5.066   3.253  10.781  0.4937  0.6363  0.1072
  135SAPE   O1214576   5.139   3.412  10.609  0.0403 -0.1743 -0.6043
  135SAPE   O1114577   5.162   3.177  10.564 -0.6650  0.1656 -0.2575
  135SAPE    C114578   5.160   3.030  10.580 -0.2293  0.2368  0.3976
  135SAPE    HA14579   5.259   2.982  10.596  0.1742  1.2104  0.8328
  135SAPE    HB14580   5.105   3.001  10.672 -0.2357  1.4769  0.7948
  135SAPE    C214581   5.102   2.963  10.451  0.9981 -0.4908  0.3390
  135SAPE    HS14582   5.101   2.852  10.458  1.0200 -0.3790  2.5340
  135SAPE   O2114583   5.173   2.999  10.333 -0.1323 -0.1196  0.4061
  135SAPE   C2114584   5.297   2.943  10.321 -0.1070  0.2897  0.3370
  135SAPE   O2214585   5.350   2.877  10.407 -0.0730 -0.4587  0.3526
  135SAPE   C2214586   5.354   2.967  10.176 -0.3854 -0.0607 -0.1236
  135SAPE   H2R14587   5.386   2.865  10.147 -2.9598 -1.0840  0.4534
  135SAPE   H2S14588   5.269   2.991  10.107  0.2648  1.6328 -0.3619
  135SAPE    C314589   4.960   2.998  10.418  0.1711  0.6049 -0.2823
  135SAPE    HX14590   4.929   3.104  10.422 -0.7499  0.3694 -0.9379
  135SAPE    HY14591   4.898   2.962  10.503 -0.3245  1.5527 -0.2428
  135SAPE   O3114592   4.921   2.945  10.293 -0.5419  0.3922 -0.7490
  135SAPE   C3114593   4.865   3.015  10.197  0.8583  0.2411  0.9313
  135SAPE   O3214594   4.841   3.136  10.198  0.9125 -0.2213  0.1676
  135SAPE   C3214595   4.841   2.921  10.069 -0.1734  0.4541  0.4085
  135SAPE   H2X14596   4.735   2.886  10.077 -0.3336  0.8595  0.0338
  135SAPE   H2Y14597   4.910   2.835  10.085 -0.8403 -0.2012 -0.2040
  135SAPE   C2314598   5.456   3.079  10.172  0.8642 -0.5006  0.0029
  135SAPE   H3R14599   5.520   3.099  10.261 -1.4359  2.8071  1.0113
  135SAPE   H3S14600   5.394   3.168  10.150 -0.0460 -1.2165 -0.3526
  135SAPE   C2414601   5.537   3.072  10.045  0.2906  0.1770 -0.1968
  135SAPE   H4R14602   5.585   2.973  10.061 -2.6373 -1.0336  1.4446
  135SAPE   H4S14603   5.609   3.157  10.048  1.5702 -0.8781 -0.5022
  135SAPE   C2514604   5.460   3.072   9.913 -0.2768 -0.7394  0.6929
  135SAPE   H5R14605   5.372   3.137   9.914 -0.2218 -0.6695  1.1045
  135SAPE   C2614606   5.508   3.016   9.795  0.1169  0.4786  0.4151
  135SAPE   H6R14607   5.438   3.015   9.711  0.6975  1.2015 -0.0803
  135SAPE   C2714608   5.644   2.950   9.781  0.3416 -0.1967  0.1372
  135SAPE   H7R14609   5.710   2.986   9.863  0.2112 -0.0374  0.1744
  135SAPE   H7S14610   5.685   2.996   9.689 -0.5250  0.2236 -0.0524
  135SAPE   C2814611   5.655   2.801   9.770 -0.4182  0.4938 -0.4671
  135SAPE   H8R14612   5.688   2.740   9.856 -0.4099  2.0215  0.6213
  135SAPE   C2914613   5.639   2.730   9.655 -0.4226  0.4855 -0.1187
  135SAPE   H9R14614   5.655   2.622   9.644 -0.6841  0.3826  0.5102
  135SAPE  C21014615   5.619   2.786   9.513  0.1845  0.4315  0.1714
  135SAPE  H10R14616   5.601   2.896   9.509  1.0465  0.5123 -2.6880
  135SAPE  H10S14617   5.542   2.740   9.448  0.9095 -0.8305  0.1973
  135SAPE  C21114618   5.755   2.769   9.439  0.4122  0.7682  0.3028
  135SAPE  H11R14619   5.831   2.711   9.493  1.2228  0.1124 -1.4971
  135SAPE  C21214620   5.791   2.814   9.318 -0.5389 -0.3426 -0.0708
  135SAPE  H12R14621   5.895   2.789   9.293 -0.8172 -3.9387  2.0187
  135SAPE  C21314622   5.719   2.898   9.222  0.2267 -0.1059 -1.0597
  135SAPE  H13R14623   5.614   2.863   9.221  0.2886 -0.2913 -2.8666
  135SAPE  H13S14624   5.755   2.869   9.121 -0.0723 -3.9761 -0.1224
  135SAPE  C21414625   5.742   3.048   9.260 -0.3119 -0.3467 -0.0998
  135SAPE  H14R14626   5.741   3.063   9.369 -0.4519  0.6224 -0.2240
  135SAPE  C21514627   5.766   3.156   9.178 -0.3753  0.0632 -0.2372
  135SAPE  H15R14628   5.787   3.253   9.226 -0.5987  0.6901 -1.3936
  135SAPE  C21614629   5.773   3.158   9.030  0.4944 -0.0923 -0.5603
  135SAPE  H16R14630   5.708   3.084   8.980  0.7987 -1.2838  0.7644
  135SAPE  H16S14631   5.871   3.139   8.981 -0.2941 -0.4754 -2.0150
  135SAPE  C21714632   5.721   3.288   8.971 -0.2898  0.2344 -0.0511
  135SAPE  H17R14633   5.786   3.377   8.983  1.1426 -0.6118 -1.2016
  135SAPE  H17S14634   5.620   3.300   9.015 -0.5012  0.8617 -0.6930
  135SAPE  C21814635   5.719   3.280   8.818 -0.0321 -0.1391  0.0642
  135SAPE  H18R14636   5.824   3.282   8.783  0.0742 -0.2605  0.3844
  135SAPE  H18S14637   5.667   3.376   8.795 -0.0159  0.0676  0.8542
  135SAPE  C21914638   5.637   3.170   8.749 -0.7072 -0.1675  0.1436
  135SAPE  H19R14639   5.545   3.170   8.811  0.7341  1.8737  2.3694
  135SAPE  H19S14640   5.693   3.075   8.766 -1.4856 -1.0307 -1.9591
  135SAPE  C22014641   5.624   3.203   8.605  0.0460  0.0655 -0.4885
  135SAPE  H20R14642   5.587   3.307   8.591 -2.4796 -0.2467  3.1826
  135SAPE  H20S14643   5.554   3.137   8.550 -1.8855 -0.4054  2.4006
  135SAPE  H20T14644   5.719   3.197   8.547  0.3356 -3.0449  0.2276
  135SAPE   C3314645   4.887   2.992   9.937  0.2223  0.2211 -0.3149
  135SAPE   H3X14646   4.996   2.979   9.925  0.3564  0.8071  0.2096
  135SAPE   H3Y14647   4.861   3.101   9.935  1.3972  0.5010 -0.5390
  135SAPE   C3414648   4.801   2.937   9.820 -0.0808 -0.1750  0.3258
  135SAPE   H4X14649   4.699   2.980   9.828 -0.0790 -0.1852  0.3992
  135SAPE   H4Y14650   4.818   2.828   9.828  1.3071  0.1741  2.6355
  135SAPE   C3514651   4.862   2.998   9.688 -0.0301  0.5029 -0.0774
  135SAPE   H5X14652   4.971   2.982   9.685 -0.0146  0.7581 -1.3145
  135SAPE   H5Y14653   4.837   3.105   9.671  0.7931  0.6728 -0.2033
  135SAPE   C3614654   4.811   2.932   9.565 -0.8963 -0.3273  0.7900
  135SAPE   H6X14655   4.701   2.941   9.566 -0.9120 -0.4068  0.1135
  135SAPE   H6Y14656   4.819   2.821   9.568 -0.9508 -0.3911 -0.8493
  135SAPE   C3714657   4.884   2.980   9.440  0.8561 -0.3260  0.1619
  135SAPE   H7X14658   4.992   2.955   9.444  1.5146  2.5158  1.1476
  135SAPE   H7Y14659   4.864   3.085   9.410 -0.9658 -0.5840  0.4292
  135SAPE   C3814660   4.842   2.897   9.315  0.5598  0.0605 -0.0262
  135SAPE   H8X14661   4.731   2.904   9.308  0.7393  0.6203 -2.4318
  135SAPE   H8Y14662   4.866   2.789   9.332  0.5703  0.0132 -0.3352
  135SAPE   C3914663   4.908   2.945   9.193  0.8131  0.1333  0.9212
  135SAPE   H9X14664   5.019   2.948   9.203  0.8588  0.8908  0.2017
  135SAPE   H9Y14665   4.879   3.049   9.169  1.1039 -0.4449 -2.1366
  135SAPE  C31014666   4.869   2.869   9.069  0.3136 -0.0522  0.4264
  135SAPE  H10X14667   4.758   2.863   9.064  0.4344 -0.5757 -2.9502
  135SAPE  H10Y14668   4.897   2.762   9.072 -2.3531 -0.8082 -0.2361
  135SAPE  C31114669   4.923   2.930   8.943 -0.8947 -0.3191  0.5089
  135SAPE  H11X14670   5.033   2.947   8.941 -1.0968  0.9304 -1.6691
  135SAPE  H11Y14671   4.879   3.031   8.927 -0.4304  0.0344  1.4016
  135SAPE  C31214672   4.878   2.852   8.825  0.1240  0.7691 -0.3108
  135SAPE  H12X14673   4.768   2.836   8.829  0.3887 -0.8865  0.9991
  135SAPE  H12Y14674   4.926   2.753   8.843 -0.4640  0.5229 -0.0720
  135SAPE  C31314675   4.917   2.915   8.692 -0.4115 -0.1063  0.1465
  135SAPE  H13X14676   5.027   2.901   8.686  0.2382  2.8559  3.2013
  135SAPE  H13Y14677   4.870   3.016   8.681 -0.0108 -0.1088 -1.8601
  135SAPE  C31414678   4.860   2.843   8.563  0.4893  0.1850  0.7867
  135SAPE  H14X14679   4.749   2.837   8.564  0.4716 -0.3585 -1.6272
  135SAPE  H14Y14680   4.901   2.740   8.560 -1.3210 -0.5261 -0.2333
  135SAPE  C31514681   4.909   2.926   8.446 -0.0105  0.2231  0.3957
  135SAPE  H15X14682   5.016   2.951   8.456  0.1254  0.3425 -1.1321
  135SAPE  H15Y14683   4.862   3.026   8.455  1.4080  0.7305  2.3655
  135SAPE  C31614684   4.870   2.870   8.308 -0.2737  0.2245 -0.1388
  135SAPE  H16X14685   4.761   2.846   8.305 -0.1414 -0.1712 -2.0145
  135SAPE  H16Y14686   4.933   2.781   8.285 -0.0220  0.6997 -1.2863
  135SAPE  C31714687   4.896   2.975   8.196 -0.6708 -0.8593  0.3993
  135SAPE  H17X14688   5.004   2.996   8.188 -0.5967 -1.3484  0.0717
  135SAPE  H17Y14689   4.834   3.065   8.219 -1.0462 -0.5558 -1.6634
  135SAPE  C31814690   4.849   2.934   8.052  0.0263  1.1466  0.1109
  135SAPE  H18X14691   4.743   2.903   8.039  0.4836 -1.2125  1.6998
  135SAPE  H18Y14692   4.911   2.847   8.021  0.7521  0.8574  2.3389
  135SAPE  H18Z14693   4.872   3.013   7.977  2.8256 -1.0480 -1.4800
  136SAPE     N14694   0.976   2.927  11.241 -0.0129  0.1951  0.0249
  136SAPE   HN114695   1.014   2.845  11.293 -1.7549  0.2491  1.4516
  136SAPE   HN214696   0.904   2.894  11.174 -1.3268  1.7311  0.6344
  136SAPE   HN314697   1.060   2.974  11.203 -1.0134  0.6848 -1.6370
  136SAPE   C1214698   0.899   3.015  11.332  0.0542  0.0836 -0.7772
  136SAPE  H12A14699   0.974   3.080  11.383  1.2668 -0.8282 -1.3851
  136SAPE  H12B14700   0.838   2.955  11.403 -1.0923  1.0596 -0.9224
  136SAPE   C1114701   0.800   3.101  11.254 -0.1884  0.1458 -0.0881
  136SAPE  H11A14702   0.739   3.162  11.323 -0.3239 -1.5853  1.3490
  136SAPE  H11B14703   0.732   3.030  11.202 -1.3825 -0.3107  2.0164
  136SAPE     P14704   0.799   3.227  11.023  0.0595 -0.3556 -0.1855
  136SAPE   O1314705   0.741   3.105  10.959  0.2745 -0.4852 -0.0786
  136SAPE   O1414706   0.708   3.340  11.050 -0.2246 -0.0326 -1.1835
  136SAPE   O1214707   0.861   3.190  11.165 -0.3540 -0.4308 -0.1356
  136SAPE   O1114708   0.926   3.279  10.940  0.1416 -0.1031  0.1097
  136SAPE    C114709   1.024   3.175  10.909  0.1569 -0.0221  1.0035
  136SAPE    HA14710   1.060   3.125  11.002  2.0081  0.2120  0.4367
  136SAPE    HB14711   0.975   3.103  10.840  1.4988 -0.7561  0.7836
  136SAPE    C214712   1.140   3.223  10.828 -0.1795  0.6426  0.6980
  136SAPE    HS14713   1.198   3.290  10.895  0.9492  1.4978 -1.0790
  136SAPE   O2114714   1.107   3.291  10.704 -0.9794  0.8365 -0.2016
  136SAPE   C2114715   1.204   3.374  10.666 -0.0380 -0.7844  0.3683
  136SAPE   O2214716   1.301   3.398  10.730 -0.3898  0.0414  1.3373
  136SAPE   C2214717   1.164   3.439  10.533  0.0526  0.2704 -0.3614
  136SAPE   H2R14718   1.198   3.380  10.446  0.0119  0.7175 -0.6831
  136SAPE   H2S14719   1.053   3.450  10.534 -0.0261 -0.5424 -0.3354
  136SAPE    C314720   1.233   3.103  10.802 -0.2810 -0.0294 -0.0555
  136SAPE    HX14721   1.274   3.053  10.892  2.1745  1.3310 -0.3727
  136SAPE    HY14722   1.322   3.131  10.741 -1.3170  0.7801 -1.2160
  136SAPE   O3114723   1.153   3.008  10.726 -0.4152 -0.7114 -0.3833
  136SAPE   C3114724   1.167   3.020  10.591 -0.1188 -0.4410 -0.5900
  136SAPE   O3214725   1.266   3.060  10.538 -0.5117  0.3188  0.2696
  136SAPE   C3214726   1.048   2.975  10.516  0.4896  0.2925  0.3049
  136SAPE   H2X14727   0.969   2.951  10.591  1.5694  1.3526  1.8176
  136SAPE   H2Y14728   1.075   2.881  10.463  1.3404  0.6822  0.0496
  136SAPE   C2314729   1.235   3.576  10.528 -0.1741 -0.1032  0.7232
  136SAPE   H3R14730   1.340   3.557  10.496 -0.6900  0.4960 -1.4039
  136SAPE   H3S14731   1.234   3.636  10.622  1.6476  0.9578  0.0907
  136SAPE   C2414732   1.189   3.654  10.396 -0.1829  0.2060  0.4489
  136SAPE   H4R14733   1.080   3.676  10.399  0.4307  3.2761  1.6261
  136SAPE   H4S14734   1.190   3.578  10.315  0.2171  0.0310  0.6153
  136SAPE   C2514735   1.282   3.772  10.361  0.3669  0.1895  0.0545
  136SAPE   H5R14736   1.345   3.829  10.432 -0.4363 -0.3558  1.2254
  136SAPE   C2614737   1.301   3.815  10.232  0.2872  0.1807  0.7856
  136SAPE   H6R14738   1.368   3.901  10.220 -0.3621  0.7265  1.0561
  136SAPE   C2714739   1.255   3.752  10.102 -0.3469  0.3555  0.1806
  136SAPE   H7R14740   1.271   3.822  10.017  1.4928 -1.0224 -0.6553
  136SAPE   H7S14741   1.149   3.723  10.113 -0.6497  0.8830 -1.2137
  136SAPE   C2814742   1.331   3.626  10.090 -0.6580 -0.0867  0.6722
  136SAPE   H8R14743   1.351   3.562  10.177 -1.4579 -0.2718  0.7190
  136SAPE   C2914744   1.396   3.579   9.982 -0.8822  0.0916 -0.4854
  136SAPE   H9R14745   1.457   3.490  10.006 -1.3954  0.5386  2.7785
  136SAPE  C21014746   1.406   3.636   9.844 -0.4357  0.3333  0.7220
  136SAPE  H10R14747   1.511   3.625   9.809 -0.4211  2.0060  0.2133
  136SAPE  H10S14748   1.393   3.746   9.843  1.8101  0.6275 -0.1406
  136SAPE  C21114749   1.305   3.569   9.752  0.2671 -0.1231  0.5711
  136SAPE  H11R14750   1.206   3.563   9.797  0.2325  1.2789  0.7055
  136SAPE  C21214751   1.324   3.508   9.632  0.2251 -0.0440  0.1334
  136SAPE  H12R14752   1.238   3.473   9.573 -1.2162  0.4653  1.9237
  136SAPE  C21314753   1.457   3.495   9.566  0.5851  0.0125  0.3254
  136SAPE  H13R14754   1.443   3.433   9.475 -2.3043  3.0515 -1.4474
  136SAPE  H13S14755   1.535   3.450   9.631 -0.2969 -1.5897  0.3067
  136SAPE  C21414756   1.505   3.620   9.503  0.3651 -0.1729  0.5635
  136SAPE  H14R14757   1.557   3.687   9.573  0.2074  0.4578  0.0838
  136SAPE  C21514758   1.512   3.645   9.366  0.0003 -0.1691 -0.0661
  136SAPE  H15R14759   1.559   3.738   9.331  0.9509 -0.0718  1.4451
  136SAPE  C21614760   1.470   3.553   9.250 -0.5908  0.7000 -0.6095
  136SAPE  H16R14761   1.533   3.462   9.255  1.1209  1.9573  1.8191
  136SAPE  H16S14762   1.501   3.610   9.160  0.4146 -0.0353 -0.7388
  136SAPE  C21714763   1.318   3.518   9.233 -0.2672  0.3109  0.3492
  136SAPE  H17R14764   1.265   3.614   9.249 -1.9842 -0.9115  2.2228
  136SAPE  H17S14765   1.284   3.457   9.319 -2.8605  1.7720  0.3845
  136SAPE  C21814766   1.287   3.456   9.105  1.2328  0.1288  0.9829
  136SAPE  H18R14767   1.194   3.395   9.101  1.1899  0.3037 -1.1967
  136SAPE  H18S14768   1.371   3.386   9.084  1.3548  0.4639  0.3329
  136SAPE  C21914769   1.276   3.550   8.983  0.0988 -0.6043 -0.1765
  136SAPE  H19R14770   1.369   3.608   8.965 -0.4232 -0.4324 -2.5467
  136SAPE  H19S14771   1.206   3.634   9.006  0.9668  0.5648 -1.6935
  136SAPE  C22014772   1.226   3.496   8.843  0.4839  0.1295 -0.2142
  136SAPE  H20R14773   1.125   3.450   8.855 -0.3641  1.8717 -0.4834
  136SAPE  H20S14774   1.293   3.415   8.809 -1.9753 -2.4029  0.7538
  136SAPE  H20T14775   1.226   3.570   8.760 -0.8745 -0.0293 -0.3745
  136SAPE   C3314776   0.988   3.085  10.428 -0.1109  0.2534  0.5301
  136SAPE   H3X14777   0.989   3.187  10.472 -1.6852 -0.3049  1.8759
  136SAPE   H3Y14778   0.879   3.083  10.411 -0.3005  2.0118  1.4397
  136SAPE   C3414779   1.060   3.097  10.290 -0.0134 -0.1009  0.3547
  136SAPE   H4X14780   1.058   2.995  10.247  0.9808 -0.0919  0.2817
  136SAPE   H4Y14781   1.166   3.129  10.301 -0.1117  0.5454 -0.4872
  136SAPE   C3514782   0.993   3.195  10.196 -0.1981 -0.0868 -0.0344
  136SAPE   H5X14783   0.952   3.280  10.254 -0.3142  0.6504 -1.1904
  136SAPE   H5Y14784   0.910   3.137  10.150 -0.7138 -0.7580  1.7087
  136SAPE   C3614785   1.086   3.237  10.088  0.1735  0.2944 -0.6306
  136SAPE   H6X14786   1.194   3.229  10.112 -0.6109 -0.3043  3.0170
  136SAPE   H6Y14787   1.072   3.344  10.062  2.9652  1.3952  2.0526
  136SAPE   C3714788   1.074   3.157   9.970 -0.1597 -0.3555 -0.3637
  136SAPE   H7X14789   0.966   3.151   9.941 -0.0330 -1.2389 -0.6596
  136SAPE   H7Y14790   1.085   3.051  10.000 -2.0135  0.2546  2.7522
  136SAPE   C3814791   1.159   3.194   9.846  0.2291 -0.5341 -0.0233
  136SAPE   H8X14792   1.267   3.173   9.863  1.0673  1.5375 -2.5450
  136SAPE   H8Y14793   1.141   3.303   9.832 -3.3494 -0.4963  3.8366
  136SAPE   C3914794   1.118   3.122   9.716 -0.2283 -0.3973 -0.8734
  136SAPE   H9X14795   1.007   3.114   9.707 -0.0269 -2.8392 -1.6769
  136SAPE   H9Y14796   1.154   3.017   9.726  1.6051  0.1656 -1.3927
  136SAPE  C31014797   1.177   3.170   9.581  0.2935  0.1942 -0.3671
  136SAPE  H10X14798   1.282   3.200   9.602  0.5801 -0.4587 -0.8298
  136SAPE  H10Y14799   1.124   3.263   9.552 -0.2212  0.6068  1.7527
  136SAPE  C31114800   1.164   3.067   9.466  0.9248  0.4402  0.5136
  136SAPE  H11X14801   1.064   3.019   9.453  1.5452 -0.8038  0.2280
  136SAPE  H11Y14802   1.223   2.976   9.491  0.7937  0.4665  0.9099
  136SAPE  C31214803   1.218   3.127   9.330  0.2662  0.2768  0.2169
  136SAPE  H12X14804   1.327   3.137   9.351  0.2738  1.3044 -0.2513
  136SAPE  H12Y14805   1.185   3.231   9.308  1.2853  0.6028  0.1997
  136SAPE  C31314806   1.229   3.040   9.204  0.3129 -0.3113 -0.4043
  136SAPE  H13X14807   1.307   3.086   9.139  0.8886  0.0919  0.5681
  136SAPE  H13Y14808   1.128   3.045   9.157  0.3082 -1.6597 -0.5508
  136SAPE  C31414809   1.266   2.892   9.228  0.0488 -0.4314  0.2147
  136SAPE  H14X14810   1.208   2.853   9.314 -0.2968 -2.4500 -0.8906
  136SAPE  H14Y14811   1.373   2.879   9.256  0.0757  0.8821  0.7253
  136SAPE  C31514812   1.253   2.799   9.105  0.2005 -0.0037 -0.1589
  136SAPE  H15X14813   1.325   2.816   9.022  1.0141 -1.9609  0.1331
  136SAPE  H15Y14814   1.147   2.795   9.072  0.6647  0.8245 -1.8203
  136SAPE  C31614815   1.288   2.649   9.137 -0.0999  0.1740 -0.4258
  136SAPE  H16X14816   1.250   2.630   9.240 -0.1112  0.7623 -0.3171
  136SAPE  H16Y14817   1.399   2.650   9.148 -0.2038 -0.4905  0.8746
  136SAPE  C31714818   1.230   2.545   9.042  0.4755  0.1934  0.2982
  136SAPE  H17X14819   1.303   2.463   9.062  0.2743  0.1556  0.8926
  136SAPE  H17Y14820   1.248   2.589   8.942  0.2818  1.7009  0.9254
  136SAPE  C31814821   1.088   2.504   9.068 -0.0097  0.4560  0.1789
  136SAPE  H18X14822   1.053   2.443   8.982  3.3924  0.5194 -1.3318
  136SAPE  H18Y14823   1.032   2.600   9.076 -1.3670 -0.4320  1.5849
  136SAPE  H18Z14824   1.081   2.454   9.167 -1.7957 -0.3154 -0.3265
  137SAPE     N14825   0.112   6.471  11.028 -0.1762 -0.4394 -0.2484
  137SAPE   HN114826   0.168   6.422  10.956 -1.2046 -0.3516 -1.1231
  137SAPE   HN214827   0.036   6.532  10.990  1.9030  2.9266  0.8312
  137SAPE   HN314828   0.179   6.533  11.078 -0.9033  0.3862 -0.2764
  137SAPE   C1214829   0.040   6.367  11.116  0.2680  0.8800  0.2139
  137SAPE  H12A14830  -0.003   6.415  11.206 -1.8283  1.9874 -1.3234
  137SAPE  H12B14831   0.113   6.293  11.157  0.0352  0.3195 -0.3748
  137SAPE   C1114832  -0.059   6.279  11.041 -0.2716  0.0939  0.0899
  137SAPE  H11A14833  -0.088   6.196  11.109 -1.2975  1.3279  1.1889
  137SAPE  H11B14834   0.004   6.241  10.958 -0.4173 -0.6652  0.3224
  137SAPE     P14835  -0.268   6.297  10.880  0.2829 -0.0845  0.1727
  137SAPE   O1314836  -0.288   6.149  10.890 -0.0372 -0.1886  0.0222
  137SAPE   O1414837  -0.384   6.384  10.863 -0.4461  0.2281 -0.1664
  137SAPE   O1214838  -0.179   6.353  10.996 -0.0669 -0.4881  0.0716
  137SAPE   O1114839  -0.174   6.303  10.760  0.2747 -0.3029 -0.3932
  137SAPE    C114840  -0.150   6.412  10.673 -0.3289 -0.6098  0.4845
  137SAPE    HA14841  -0.172   6.512  10.715 -0.9928  0.7501 -2.9681
  137SAPE    HB14842  -0.040   6.417  10.659 -0.4473  0.0333 -0.2647
  137SAPE    C214843  -0.213   6.401  10.537  0.0983  0.1546  0.4744
  137SAPE    HS14844  -0.173   6.481  10.471 -0.7819  1.2807  1.2660
  137SAPE   O2114845  -0.359   6.419  10.544 -0.8995  0.3292  0.0354
  137SAPE   C2114846  -0.389   6.539  10.565  0.3820 -0.3026 -0.0244
  137SAPE   O2214847  -0.312   6.634  10.554 -0.3234 -0.5666 -0.2362
  137SAPE   C2214848  -0.537   6.565  10.599 -0.3479  0.1292  0.3830
  137SAPE   H2R14849  -0.588   6.468  10.580 -1.2378  0.9845 -1.7619
  137SAPE   H2S14850  -0.541   6.592  10.707  0.0621 -1.1354  0.7207
  137SAPE    C314851  -0.182   6.268  10.455  0.1265 -0.3111  0.2903
  137SAPE    HX14852  -0.236   6.187  10.506 -0.6597 -0.1991 -0.3496
  137SAPE    HY14853  -0.074   6.241  10.458  1.0311  2.9285 -0.4185
  137SAPE   O3114854  -0.233   6.276  10.316 -0.0558  0.4392 -0.0562
  137SAPE   C3114855  -0.156   6.334  10.223  0.1434  0.4259 -0.0807
  137SAPE   O3214856  -0.052   6.393  10.234  0.5236  0.0982 -0.2281
  137SAPE   C3214857  -0.205   6.291  10.086 -0.3604 -0.1478 -0.4339
  137SAPE   H2X14858  -0.260   6.195  10.093  0.7641 -0.7054  1.4035
  137SAPE   H2Y14859  -0.111   6.262  10.034 -0.5752  1.4413 -1.7532
  137SAPE   C2314860  -0.610   6.663  10.505  0.3670  0.4690  0.2123
  137SAPE   H3R14861  -0.552   6.757  10.499 -1.3481  1.4495 -1.2532
  137SAPE   H3S14862  -0.711   6.685  10.546  0.8271 -1.0325  2.2631
  137SAPE   C2414863  -0.618   6.607  10.355  0.4641 -0.2109 -0.1727
  137SAPE   H4R14864  -0.639   6.498  10.351 -2.1392  0.1104  2.7017
  137SAPE   H4S14865  -0.516   6.613  10.312 -0.8057 -0.8184 -3.4171
  137SAPE   C2514866  -0.712   6.691  10.273 -0.6024 -0.0270  0.2367
  137SAPE   H5R14867  -0.717   6.798  10.296 -2.3300  0.1257 -0.7096
  137SAPE   C2614868  -0.795   6.646  10.180  0.1395  0.0290  0.0908
  137SAPE   H6R14869  -0.856   6.720  10.125  2.7070  1.3043 -1.1241
  137SAPE   C2714870  -0.825   6.502  10.137 -0.0750  0.1583 -0.1652
  137SAPE   H7R14871  -0.746   6.429  10.166  1.7656  2.0853 -0.1779
  137SAPE   H7S14872  -0.832   6.498  10.026  2.1005 -0.1381 -0.3199
  137SAPE   C2814873  -0.950   6.437  10.203  0.2552  0.1068 -0.3530
  137SAPE   H8R14874  -0.945   6.442  10.313 -0.6606  2.2413 -0.3735
  137SAPE   C2914875  -1.054   6.374  10.155 -0.0696 -0.1088  0.0155
  137SAPE   H9R14876  -1.126   6.321  10.219  0.3302  1.6929  2.0404
  137SAPE  C21014877  -1.071   6.352  10.005 -0.0795  0.5182 -0.2000
  137SAPE  H10R14878  -0.985   6.389   9.945  1.9455 -2.5724  0.6342
  137SAPE  H10S14879  -1.156   6.421   9.990 -0.4747 -0.0727 -0.6869
  137SAPE  C21114880  -1.105   6.211   9.957 -1.0564 -0.4257  0.2402
  137SAPE  H11R14881  -1.091   6.132  10.031 -0.1445  1.4407  2.1017
  137SAPE  C21214882  -1.154   6.177   9.839 -0.1988  0.0405 -0.6057
  137SAPE  H12R14883  -1.165   6.069   9.820  2.4691 -0.0992 -1.5771
  137SAPE  C21314884  -1.177   6.269   9.717 -0.5536 -0.0048  0.4358
  137SAPE  H13R14885  -1.175   6.375   9.749 -0.4515  0.6084 -1.5204
  137SAPE  H13S14886  -1.284   6.261   9.689 -0.0064  1.4415 -2.2278
  137SAPE  C21414887  -1.082   6.238   9.607  0.1353 -0.2452 -0.1024
  137SAPE  H14R14888  -0.983   6.199   9.635  0.7283  0.5303 -1.1237
  137SAPE  C21514889  -1.119   6.239   9.479 -0.0127  0.1424 -0.1353
  137SAPE  H15R14890  -1.043   6.220   9.401 -0.3563  0.4121 -0.5357
  137SAPE  C21614891  -1.257   6.268   9.425  0.1539  0.5293 -0.6021
  137SAPE  H16R14892  -1.323   6.315   9.501  0.2281  0.3224 -0.4113
  137SAPE  H16S14893  -1.305   6.172   9.397 -0.3001  0.0468  1.7477
  137SAPE  C21714894  -1.260   6.359   9.300 -0.6430  0.6049 -0.0225
  137SAPE  H17R14895  -1.211   6.302   9.219 -0.2837  1.0849 -0.1461
  137SAPE  H17S14896  -1.207   6.454   9.322  1.1454 -0.6484  1.2152
  137SAPE  C21814897  -1.400   6.374   9.244 -0.2132 -0.0150  0.0585
  137SAPE  H18R14898  -1.462   6.414   9.327 -0.8995 -0.5881 -0.1699
  137SAPE  H18S14899  -1.432   6.272   9.214 -1.4991  0.7266 -1.1643
  137SAPE  C21914900  -1.403   6.455   9.114 -0.0673 -0.2306  0.3825
  137SAPE  H19R14901  -1.353   6.403   9.029 -0.4560 -2.2461  1.3400
  137SAPE  H19S14902  -1.345   6.548   9.130 -0.8722  0.3993 -0.3183
  137SAPE  C22014903  -1.546   6.497   9.083 -0.6109 -0.5398 -0.0284
  137SAPE  H20R14904  -1.617   6.413   9.100 -0.9727 -0.2125  0.0702
  137SAPE  H20S14905  -1.571   6.538   8.983  2.2137 -1.1490 -1.0301
  137SAPE  H20T14906  -1.574   6.570   9.161 -0.3242 -0.7970  0.3167
  137SAPE   C3314907  -0.274   6.404  10.005 -0.0124 -0.1996  0.2618
  137SAPE   H3X14908  -0.278   6.361   9.903 -0.0017  0.5368 -0.0558
  137SAPE   H3Y14909  -0.211   6.496  10.003  2.4889 -1.8551  0.1260
  137SAPE   C3414910  -0.426   6.420  10.040 -0.7497  0.1287  0.3417
  137SAPE   H4X14911  -0.437   6.514  10.099  0.1222  0.0421  0.6424
  137SAPE   H4Y14912  -0.455   6.324  10.088  0.0779 -0.7375 -0.8587
  137SAPE   C3514913  -0.499   6.419   9.904  0.6886 -0.3027  0.8272
  137SAPE   H5X14914  -0.602   6.419   9.946 -0.0521 -0.3536 -0.9542
  137SAPE   H5Y14915  -0.484   6.318   9.860  0.2229 -0.1495  0.3104
  137SAPE   C3614916  -0.491   6.534   9.807 -0.1456  0.9017 -0.3833
  137SAPE   H6X14917  -0.386   6.540   9.769  0.2767  1.2315  0.8268
  137SAPE   H6Y14918  -0.507   6.636   9.847  0.1634  0.9110 -0.2807
  137SAPE   C3714919  -0.580   6.508   9.684 -0.4389 -0.2470  0.0099
  137SAPE   H7X14920  -0.565   6.409   9.635 -3.5886 -0.0286 -1.5341
  137SAPE   H7Y14921  -0.560   6.593   9.615 -1.7435  1.1394  1.3168
  137SAPE   C3814922  -0.730   6.508   9.719 -0.6043 -0.0118  0.2276
  137SAPE   H8X14923  -0.755   6.614   9.739 -0.5933 -0.6429  3.8642
  137SAPE   H8Y14924  -0.732   6.447   9.812 -0.0315 -0.9604 -0.3648
  137SAPE   C3914925  -0.818   6.453   9.600 -0.0721  0.1910 -0.0788
  137SAPE   H9X14926  -0.923   6.471   9.630 -0.1666  2.9357 -1.8646
  137SAPE   H9Y14927  -0.796   6.344   9.598 -2.6505 -0.4351  2.1358
  137SAPE  C31014928  -0.792   6.535   9.475 -0.2067 -0.4462 -0.3829
  137SAPE  H10X14929  -0.687   6.520   9.442  0.6630 -2.6267  3.0642
  137SAPE  H10Y14930  -0.802   6.645   9.492  0.9840 -0.7615  2.8537
  137SAPE  C31114931  -0.889   6.484   9.365 -0.1259  0.3663 -0.3846
  137SAPE  H11X14932  -0.992   6.519   9.385 -0.8985 -0.2851 -2.9561
  137SAPE  H11Y14933  -0.883   6.373   9.372  2.3042  0.6686  3.5969
  137SAPE  C31214934  -0.852   6.531   9.224  0.4931  0.1741  0.8178
  137SAPE  H12X14935  -0.746   6.503   9.207  0.0663 -0.1878 -1.5206
  137SAPE  H12Y14936  -0.863   6.641   9.214  1.2439  0.2861  1.2356
  137SAPE  C31314937  -0.955   6.467   9.126  0.1731 -0.5242 -0.7701
  137SAPE  H13X14938  -1.054   6.513   9.147  0.4767  0.2800 -1.0588
  137SAPE  H13Y14939  -0.956   6.357   9.138  0.6143 -0.3684  0.8581
  137SAPE  C31414940  -0.918   6.522   8.988  0.2803  0.8250  0.4365
  137SAPE  H14X14941  -0.807   6.537   8.986  0.7808 -2.4828  1.1999
  137SAPE  H14Y14942  -0.961   6.624   8.985 -2.2887 -0.2645 -0.5852
  137SAPE  C31514943  -0.959   6.430   8.870  0.3242 -0.1201 -0.1367
  137SAPE  H15X14944  -1.069   6.419   8.884 -0.0034  1.8309 -1.0218
  137SAPE  H15Y14945  -0.913   6.328   8.870 -1.9638 -1.2025 -1.6269
  137SAPE  C31614946  -0.929   6.489   8.733 -0.4610 -1.3593 -0.3846
  137SAPE  H16X14947  -0.941   6.417   8.649 -0.9164  0.5124 -1.9489
  137SAPE  H16Y14948  -0.818   6.497   8.734 -0.5048 -0.7256  0.1555
  137SAPE  C31714949  -1.006   6.615   8.696 -1.0927  0.4756  0.1848
  137SAPE  H17X14950  -0.997   6.692   8.776  0.2221 -0.7305  1.2176
  137SAPE  H17Y14951  -1.113   6.591   8.712 -1.2991  0.5930 -0.9490
  137SAPE  C31814952  -0.979   6.680   8.555 -0.0480  0.1140 -0.1105
  137SAPE  H18X14953  -1.018   6.606   8.482 -0.5889 -1.1903  1.4476
  137SAPE  H18Y14954  -0.871   6.699   8.537 -0.3960  0.5548 -1.7454
  137SAPE  H18Z14955  -1.049   6.766   8.563 -0.6220 -0.5487  2.4760
  138SAPE     N14956   3.131   0.811  10.919  0.0614 -0.8351  0.3331
  138SAPE   HN114957   3.154   0.731  10.982 -0.9597 -0.3377  1.3696
  138SAPE   HN214958   3.205   0.810  10.846  1.7239  2.1162  1.8889
  138SAPE   HN314959   3.120   0.896  10.978 -2.0884 -1.2922  0.6309
  138SAPE   C1214960   2.997   0.779  10.868  0.1966 -0.6423  0.6414
  138SAPE  H12A14961   2.980   0.845  10.780 -0.8325 -0.9319  0.6140
  138SAPE  H12B14962   2.927   0.787  10.954 -1.9077 -1.8947 -0.9193
  138SAPE   C1114963   2.998   0.633  10.812 -0.0049 -0.4042 -0.6131
  138SAPE  H11A14964   3.055   0.636  10.717  0.8356 -1.1564 -0.1358
  138SAPE  H11B14965   2.894   0.601  10.787  0.2681 -1.4138 -0.4745
  138SAPE     P14966   3.013   0.404  10.921  0.1400 -0.0168  0.1868
  138SAPE   O1314967   3.084   0.318  11.019 -0.6418 -0.5887  0.3120
  138SAPE   O1414968   2.869   0.414  10.938 -0.1874  0.2308  0.3911
  138SAPE   O1214969   3.067   0.554  10.910 -0.3978  0.4120 -0.0371
  138SAPE   O1114970   3.027   0.357  10.773  0.2435 -0.5042 -0.3371
  138SAPE    C114971   3.153   0.376  10.713 -0.5361  0.8562  1.3239
  138SAPE    HA14972   3.208   0.467  10.746  0.9592 -0.0910  1.4689
  138SAPE    HB14973   3.209   0.284  10.738 -2.3729 -0.3236  1.1944
  138SAPE    C214974   3.135   0.372  10.552  0.3127 -0.0005  0.0809
  138SAPE    HS14975   3.083   0.467  10.527  0.5493  0.3862  1.0036
  138SAPE   O2114976   3.072   0.255  10.501  0.0897 -0.2200 -0.3521
  138SAPE   C2114977   2.968   0.276  10.425  0.0706 -0.4250 -0.6835
  138SAPE   O2214978   2.918   0.385  10.409 -0.0871 -0.0686  0.4581
  138SAPE   C2214979   2.929   0.142  10.361  0.2463 -0.8736 -0.3208
  138SAPE   H2R14980   3.025   0.104  10.319 -0.7345 -1.6215 -1.9937
  138SAPE   H2S14981   2.886   0.076  10.440  0.7953 -1.4314 -0.4791
  138SAPE    C314982   3.267   0.395  10.487 -0.1325 -0.5514  0.5682
  138SAPE    HX14983   3.327   0.301  10.495  1.3967  0.4502  1.1627
  138SAPE    HY14984   3.311   0.487  10.532  3.1125 -2.2783  1.1055
  138SAPE   O3114985   3.256   0.417  10.342 -0.3966 -0.2215  0.0403
  138SAPE   C3114986   3.367   0.473  10.294 -0.0343  0.2420 -0.4813
  138SAPE   O3214987   3.472   0.498  10.348 -0.3251 -1.3075 -0.1648
  138SAPE   C3214988   3.334   0.509  10.142 -0.6095  0.5607  0.2936
  138SAPE   H2X14989   3.431   0.545  10.100  0.5899 -2.2970  0.5284
  138SAPE   H2Y14990   3.258   0.590  10.141  1.5914  2.7077  1.1712
  138SAPE   C2314991   2.825   0.170  10.248  0.1294 -0.4011  0.4004
  138SAPE   H3R14992   2.739   0.228  10.287  0.3024 -0.5903  1.0717
  138SAPE   H3S14993   2.780   0.071  10.226 -0.5198 -0.1516  0.6020
  138SAPE   C2414994   2.882   0.240  10.124  0.5745  0.3736 -0.2291
  138SAPE   H4R14995   2.952   0.322  10.151  1.4820 -0.7046  0.7627
  138SAPE   H4S14996   2.794   0.273  10.065  0.1564 -2.5913 -1.3646
  138SAPE   C2514997   2.966   0.140  10.040 -0.5746  0.0168 -0.0704
  138SAPE   H5R14998   3.071   0.126  10.069 -0.6399  1.2022  0.7479
  138SAPE   C2614999   2.924   0.082   9.925 -0.1664  0.1459  0.2079
  138SAPE   H6R15000   3.000   0.042   9.856 -1.1066  0.7582 -1.2207
  138SAPE   C2715001   2.794   0.106   9.853  0.2418  0.2299 -0.1138
  138SAPE   H7R15002   2.809   0.199   9.795  2.1881  0.9036  1.4254
  138SAPE   H7S15003   2.707   0.128   9.918 -0.4190  0.0383 -0.9209
  138SAPE   C2815004   2.753  -0.006   9.756 -0.1144 -0.2147  0.2510
  138SAPE   H8R15005   2.737  -0.102   9.806  2.1234  0.3550  2.1926
  138SAPE   C2915006   2.746   0.004   9.620 -0.3447 -0.5782 -0.1811
  138SAPE   H9R15007   2.704  -0.073   9.554  0.7665  0.0912 -1.6872
  138SAPE  C21015008   2.772   0.131   9.535 -0.4217  0.2881 -0.4258
  138SAPE  H10R15009   2.818   0.203   9.606  0.4274 -0.4907 -0.1911
  138SAPE  H10S15010   2.681   0.170   9.483 -1.1184  0.2123  0.7069
  138SAPE  C21115011   2.868   0.094   9.428  0.0314 -0.3921  0.0739
  138SAPE  H11R15012   2.961   0.064   9.479  0.9558  0.8772 -0.8326
  138SAPE  C21215013   2.842   0.095   9.297  0.0960 -0.2108  0.1133
  138SAPE  H12R15014   2.914   0.057   9.223 -0.9105  0.2374 -1.1027
  138SAPE  C21315015   2.708   0.131   9.236 -0.4516 -0.0600 -0.3489
  138SAPE  H13R15016   2.676   0.235   9.258 -0.3453 -0.0345 -0.3123
  138SAPE  H13S15017   2.638   0.068   9.295  1.8426  0.9376  3.5898
  138SAPE  C21415018   2.703   0.103   9.089  0.5711 -0.5463  0.6863
  138SAPE  H14R15019   2.691   0.192   9.026  2.1161 -0.2415  0.8024
  138SAPE  C21515020   2.687  -0.016   9.036 -0.7053 -0.0393 -0.5330
  138SAPE  H15R15021   2.681  -0.025   8.926 -1.9138  1.6223 -0.6215
  138SAPE  C21615022   2.678  -0.157   9.103  0.1572  0.4714  0.0084
  138SAPE  H16R15023   2.576  -0.186   9.137 -0.1345  0.3119 -0.9685
  138SAPE  H16S15024   2.748  -0.167   9.188 -1.1580 -0.6442  0.9749
  138SAPE  C21715025   2.722  -0.278   9.015 -0.2186  0.0181 -0.0718
  138SAPE  H17R15026   2.739  -0.365   9.082 -0.6703  0.1621  0.2285
  138SAPE  H17S15027   2.826  -0.254   8.985 -1.2528  1.1908 -2.9076
  138SAPE  C21815028   2.622  -0.298   8.901  0.2117 -0.3826  0.4459
  138SAPE  H18R15029   2.612  -0.203   8.844 -0.7597 -0.2317  0.8628
  138SAPE  H18S15030   2.524  -0.317   8.949  0.0290  2.6635  1.3964
  138SAPE  C21915031   2.657  -0.423   8.819 -0.2475 -0.4390  0.0409
  138SAPE  H19R15032   2.674  -0.507   8.889 -2.1045 -0.0018  1.0452
  138SAPE  H19S15033   2.751  -0.406   8.763  0.6612  0.7205  1.8668
  138SAPE  C22015034   2.546  -0.462   8.721  0.0827 -0.2467  0.1242
  138SAPE  H20R15035   2.562  -0.563   8.680 -0.8804 -0.7806  1.0399
  138SAPE  H20S15036   2.533  -0.383   8.644  0.0621  2.0909  2.4067
  138SAPE  H20T15037   2.446  -0.471   8.767 -0.7502 -2.5573 -2.0631
  138SAPE   C3315038   3.281   0.389  10.063  0.8314 -0.4549  0.1819
  138SAPE   H3X15039   3.188   0.351  10.111 -0.7870  0.0845 -2.4074
  138SAPE   H3Y15040   3.351   0.303  10.068  0.3834 -0.9403 -1.6404
  138SAPE   C3415041   3.232   0.434   9.919 -0.2681  0.4367  0.5725
  138SAPE   H4X15042   3.276   0.533   9.895 -1.0497  0.4116 -1.0701
  138SAPE   H4Y15043   3.125   0.463   9.910 -0.3207  0.0791  0.0453
  138SAPE   C3515044   3.269   0.340   9.804  0.2712 -1.0524  0.4671
  138SAPE   H5X15045   3.256   0.233   9.831  0.2103 -1.2194 -0.2196
  138SAPE   H5Y15046   3.379   0.350   9.797  0.3308 -0.6700  1.7561
  138SAPE   C3615047   3.199   0.374   9.674  0.5284  0.6206 -0.4503
  138SAPE   H6X15048   3.206   0.483   9.654  1.7397  1.3335  3.3700
  138SAPE   H6Y15049   3.091   0.365   9.701  0.8693  3.0422  1.9745
  138SAPE   C3715050   3.237   0.286   9.554 -0.1356 -0.0172 -0.3869
  138SAPE   H7X15051   3.199   0.185   9.581 -0.7428  0.2630 -0.2002
  138SAPE   H7Y15052   3.347   0.280   9.543 -0.1508  1.3417 -1.4830
  138SAPE   C3815053   3.175   0.341   9.426  0.6850 -0.3193 -0.0301
  138SAPE   H8X15054   3.189   0.451   9.418  2.5969 -0.4170  1.6512
  138SAPE   H8Y15055   3.066   0.330   9.444  0.8094 -2.8895 -0.5803
  138SAPE   C3915056   3.214   0.271   9.294  0.7001  0.4995 -0.0284
  138SAPE   H9X15057   3.150   0.181   9.287  2.8546 -1.0531 -0.3109
  138SAPE   H9Y15058   3.322   0.244   9.300  0.7775  1.2783  2.9486
  138SAPE  C31015059   3.176   0.354   9.179 -0.2905  0.2115  0.6758
  138SAPE  H10X15060   3.225   0.453   9.189  1.2093 -0.5646  1.0957
  138SAPE  H10Y15061   3.067   0.374   9.188 -0.3359 -0.7012  2.2835
  138SAPE  C31115062   3.198   0.281   9.041  0.0204 -0.2974  0.1086
  138SAPE  H11X15063   3.305   0.274   9.011  0.2876  0.1494  0.9270
  138SAPE  H11Y15064   3.156   0.334   8.953 -1.2391 -0.7173  0.4532
  138SAPE  C31215065   3.126   0.146   9.011 -1.2262 -0.7956 -0.1331
  138SAPE  H12X15066   3.019   0.165   9.036 -0.6196 -0.8847  2.6664
  138SAPE  H12Y15067   3.170   0.072   9.081  0.9682  0.1659 -0.4560
  138SAPE  C31315068   3.135   0.091   8.867 -0.2514 -0.1587  0.4305
  138SAPE  H13X15069   3.235   0.044   8.860 -1.0688 -1.5874 -2.2573
  138SAPE  H13Y15070   3.124   0.168   8.788  0.2388 -0.6723 -0.1401
  138SAPE  C31415071   3.029  -0.011   8.832  0.0491 -0.1948  0.7033
  138SAPE  H14X15072   2.936   0.049   8.834  0.0911 -0.1573  1.5419
  138SAPE  H14Y15073   3.021  -0.076   8.922 -1.6218 -0.2305  0.5308
  138SAPE  C31515074   3.046  -0.096   8.702  0.0486  0.3832  0.0113
  138SAPE  H15X15075   2.971  -0.178   8.697  0.4537 -0.2997  3.4113
  138SAPE  H15Y15076   3.148  -0.139   8.712  0.8992  2.3329 -0.1325
  138SAPE  C31615077   3.040  -0.000   8.582 -0.1052 -0.1559  0.2658
  138SAPE  H16X15078   3.100   0.090   8.603  0.6404 -0.6320  0.1910
  138SAPE  H16Y15079   2.939   0.044   8.571 -0.2234 -0.0865  1.5447
  138SAPE  C31715080   3.078  -0.068   8.454  0.1564 -0.0834  0.8687
  138SAPE  H17X15081   3.013  -0.156   8.466  2.3600 -1.6480  1.7484
  138SAPE  H17Y15082   3.180  -0.113   8.455 -0.1984 -0.8869  0.7822
  138SAPE  C31815083   3.051   0.012   8.330 -0.4086  0.5790 -0.6128
  138SAPE  H18X15084   3.056  -0.048   8.236  2.4981 -2.2405  1.2571
  138SAPE  H18Y15085   3.125   0.094   8.324  1.3882 -0.9021  0.8480
  138SAPE  H18Z15086   2.952   0.061   8.341 -0.6469  0.0124 -0.2133
  139SAPE     N15087   2.919   6.310  10.749 -0.2440  0.8335 -0.7290
  139SAPE   HN115088   2.948   6.227  10.804  1.1048  0.7289 -1.5830
  139SAPE   HN215089   2.995   6.381  10.755  0.6877  0.0446 -2.6910
  139SAPE   HN315090   2.830   6.350  10.787 -1.3253 -1.7185 -0.4154
  139SAPE   C1215091   2.893   6.268  10.607  0.0618 -0.7147 -0.7920
  139SAPE  H12A15092   2.989   6.229  10.567 -0.9557 -2.9567 -1.1135
  139SAPE  H12B15093   2.875   6.361  10.550  0.9482  2.3062  3.6151
  139SAPE   C1115094   2.781   6.158  10.601  0.1007  0.6456  0.2145
  139SAPE  H11A15095   2.749   6.143  10.496 -0.4711 -0.2651  0.5162
  139SAPE  H11B15096   2.692   6.198  10.656 -0.6355 -0.4205 -0.1792
  139SAPE     P15097   2.704   5.921  10.659  0.1761 -0.3773  0.4637
  139SAPE   O1315098   2.742   5.826  10.760 -0.8530 -0.7428 -0.3238
  139SAPE   O1415099   2.564   5.966  10.654  0.2208 -0.8326 -0.5695
  139SAPE   O1215100   2.817   6.033  10.659 -0.2653  0.1880  0.0834
  139SAPE   O1115101   2.735   5.864  10.512 -0.2804 -0.5317 -0.8160
  139SAPE    C115102   2.861   5.794  10.504  0.5873  0.1353 -0.2144
  139SAPE    HA15103   2.945   5.866  10.506 -0.2534  1.0841  1.6271
  139SAPE    HB15104   2.874   5.710  10.576 -0.2186 -0.8803 -1.2299
  139SAPE    C215105   2.850   5.718  10.369  0.2525  0.7689 -1.2662
  139SAPE    HS15106   2.950   5.681  10.339  0.1036 -2.5638  2.0026
  139SAPE   O2115107   2.798   5.803  10.262  0.3238  0.8472  0.2498
  139SAPE   C2115108   2.861   5.902  10.219 -0.8553  0.4718 -0.2702
  139SAPE   O2215109   2.980   5.934  10.230 -0.0391  0.3865 -0.3468
  139SAPE   C2215110   2.767   5.989  10.135 -0.3738 -0.1977  0.0405
  139SAPE   H2R15111   2.716   5.919  10.065  0.9840 -0.5394 -0.6345
  139SAPE   H2S15112   2.694   6.040  10.201 -1.0869 -1.6266  0.3817
  139SAPE    C315113   2.752   5.595  10.377 -0.2691 -0.2116 -0.3981
  139SAPE    HX15114   2.653   5.645  10.386  1.1828  2.3970  1.8324
  139SAPE    HY15115   2.768   5.547  10.476 -0.8113 -0.0139 -0.2130
  139SAPE   O3115116   2.754   5.518  10.262 -0.4597  0.0213 -0.8716
  139SAPE   C3115117   2.728   5.396  10.283  0.1399 -0.2690  0.0724
  139SAPE   O3215118   2.708   5.350  10.390  0.5854 -0.1044 -0.0687
  139SAPE   C3215119   2.717   5.315  10.153 -0.9323  0.9781  0.1943
  139SAPE   H2X15120   2.776   5.355  10.068 -0.4462 -0.8450 -0.3275
  139SAPE   H2Y15121   2.613   5.313  10.114 -1.0731 -0.7888  0.6256
  139SAPE   C2315122   2.833   6.085  10.038  0.5711  0.5973 -0.6460
  139SAPE   H3R15123   2.926   6.121  10.087 -0.2227  1.0186  0.5815
  139SAPE   H3S15124   2.764   6.165  10.006  2.0945  1.9470 -0.6204
  139SAPE   C2415125   2.884   6.034   9.900  0.7593  0.2599  0.2822
  139SAPE   H4R15126   2.962   5.956   9.916  0.5028 -0.7393 -2.9643
  139SAPE   H4S15127   2.944   6.119   9.860  0.3896  0.4153  0.0633
  139SAPE   C2515128   2.775   5.984   9.806  0.0088  0.0286 -0.0846
  139SAPE   H5R15129   2.717   5.902   9.851 -3.8104  1.6906 -1.7346
  139SAPE   C2615130   2.750   6.041   9.686  0.2932 -0.4785  0.1120
  139SAPE   H6R15131   2.654   6.010   9.642 -0.3810  0.5954  0.8066
  139SAPE   C2715132   2.819   6.158   9.626 -0.0390 -0.0932 -0.8276
  139SAPE   H7R15133   2.914   6.174   9.682 -0.0195 -2.8600  0.0267
  139SAPE   H7S15134   2.748   6.241   9.645  0.0749 -0.0207 -0.7160
  139SAPE   C2815135   2.854   6.144   9.482  0.4503  0.6152  0.0122
  139SAPE   H8R15136   2.959   6.112   9.478  1.0459  1.8313  3.9942
  139SAPE   C2915137   2.782   6.181   9.374  0.4619  0.1090  0.3172
  139SAPE   H9R15138   2.832   6.171   9.277  0.9017  1.2987  0.4105
  139SAPE  C21015139   2.645   6.242   9.376  0.0997  0.3976  0.3571
  139SAPE  H10R15140   2.663   6.349   9.401  0.0709  0.2182  1.1660
  139SAPE  H10S15141   2.575   6.223   9.460 -1.8627  1.0864 -1.1094
  139SAPE  C21115142   2.566   6.238   9.248 -1.0671  0.1838  0.5102
  139SAPE  H11R15143   2.537   6.338   9.213 -1.6228  0.2174  1.0680
  139SAPE  C21215144   2.528   6.133   9.173 -0.0029  0.7146 -0.4791
  139SAPE  H12R15145   2.462   6.151   9.087  1.9027 -0.9395 -2.3291
  139SAPE  C21315146   2.563   5.986   9.205 -0.2190  0.2508  0.1136
  139SAPE  H13R15147   2.558   5.963   9.314 -2.3208  1.0710  0.2183
  139SAPE  H13S15148   2.663   5.974   9.158 -1.3451 -0.0599 -2.2876
  139SAPE  C21415149   2.476   5.893   9.128 -0.2510  0.1976  0.1153
  139SAPE  H14R15150   2.425   5.820   9.192 -1.8358  0.1655 -1.1492
  139SAPE  C21515151   2.461   5.893   8.993 -0.5230 -0.0858  0.8274
  139SAPE  H15R15152   2.397   5.813   8.952 -1.2042 -0.7549  3.1338
  139SAPE  C21615153   2.527   5.977   8.885  0.1108 -0.1961 -0.8334
  139SAPE  H16R15154   2.620   6.020   8.928 -0.2096 -0.4442  0.1213
  139SAPE  H16S15155   2.479   6.072   8.852 -0.1593  0.1251  0.4730
  139SAPE  C21715156   2.569   5.889   8.758 -0.1953 -0.0726  0.6915
  139SAPE  H17R15157   2.472   5.870   8.707  1.4784 -0.6869 -2.3913
  139SAPE  H17S15158   2.614   5.791   8.787 -0.6899 -0.7693 -0.8426
  139SAPE  C21815159   2.662   5.972   8.662  0.3164 -0.9913  0.6145
  139SAPE  H18R15160   2.758   5.985   8.715  0.7081 -0.9809 -0.1020
  139SAPE  H18S15161   2.617   6.071   8.641 -0.7102 -1.9485 -1.8889
  139SAPE  C21915162   2.695   5.914   8.528 -0.1479  0.0969  0.7032
  139SAPE  H19R15163   2.600   5.874   8.486 -0.1617  0.8412  0.0154
  139SAPE  H19S15164   2.761   5.826   8.544 -1.3017 -1.0506 -0.7966
  139SAPE  C22015165   2.772   6.014   8.439 -0.1575 -0.8721  0.9468
  139SAPE  H20R15166   2.879   6.028   8.465  0.3761 -1.5109 -0.8715
  139SAPE  H20S15167   2.718   6.112   8.434 -0.8010 -1.3042 -1.2041
  139SAPE  H20T15168   2.766   5.980   8.334  2.0631 -1.8613  1.1166
  139SAPE   C3315169   2.758   5.171  10.191 -0.0319  0.5422  0.1115
  139SAPE   H3X15170   2.682   5.121  10.255  0.8271 -0.1700  0.5981
  139SAPE   H3Y15171   2.852   5.168  10.250  0.5612 -1.8568 -0.8822
  139SAPE   C3415172   2.791   5.085  10.070  0.2340 -0.2209  0.6076
  139SAPE   H4X15173   2.880   5.129  10.020 -0.2635 -3.0638 -3.0109
  139SAPE   H4Y15174   2.712   5.081   9.993 -0.3677 -0.5047  1.2269
  139SAPE   C3515175   2.822   4.945  10.112  0.0597  0.5771 -0.3227
  139SAPE   H5X15176   2.746   4.892  10.174  0.4255 -1.2333 -1.4140
  139SAPE   H5Y15177   2.915   4.949  10.173  0.3794  1.0387 -0.8374
  139SAPE   C3615178   2.842   4.857   9.984  0.5122  0.6845  0.4033
  139SAPE   H6X15179   2.886   4.763  10.023  3.0119  0.3257 -2.9688
  139SAPE   H6Y15180   2.914   4.895   9.908 -0.8397  1.2063 -0.6280
  139SAPE   C3715181   2.707   4.831   9.916 -0.4924  0.5173 -0.3956
  139SAPE   H7X15182   2.695   4.909   9.838  0.8680 -1.9844 -3.1792
  139SAPE   H7Y15183   2.617   4.827   9.981  1.3345 -0.7238  2.1737
  139SAPE   C3815184   2.711   4.695   9.847 -0.3627  0.1915 -0.4931
  139SAPE   H8X15185   2.749   4.613   9.912 -1.1491 -0.3401 -0.7127
  139SAPE   H8Y15186   2.769   4.701   9.753  0.4357  0.8017  0.0228
  139SAPE   C3915187   2.564   4.657   9.800  0.3723 -0.3602 -0.3067
  139SAPE   H9X15188   2.537   4.752   9.750 -0.1841  0.2240  1.0632
  139SAPE   H9Y15189   2.491   4.656   9.884  0.8845 -1.8598  0.1445
  139SAPE  C31015190   2.553   4.538   9.704 -0.5019  0.4153 -0.6539
  139SAPE  H10X15191   2.582   4.446   9.759  1.5786  0.4582 -1.5888
  139SAPE  H10Y15192   2.618   4.554   9.615  1.1921 -0.6045  0.3637
  139SAPE  C31115193   2.403   4.525   9.658  0.5661 -0.5293 -0.1579
  139SAPE  H11X15194   2.374   4.615   9.599 -0.9000  0.8330  2.5450
  139SAPE  H11Y15195   2.334   4.540   9.744  0.4006  1.7741 -0.6488
  139SAPE  C31215196   2.374   4.395   9.585  0.1102  0.3253 -0.4792
  139SAPE  H12X15197   2.274   4.392   9.537  0.2114  2.2001 -0.8561
  139SAPE  H12Y15198   2.379   4.319   9.666 -0.5436  1.4367  0.6345
  139SAPE  C31315199   2.469   4.356   9.472  0.1677  0.2265  0.4016
  139SAPE  H13X15200   2.432   4.262   9.427 -2.2502  0.5769  1.6052
  139SAPE  H13Y15201   2.570   4.332   9.514  0.7210  0.7135 -0.6379
  139SAPE  C31415202   2.456   4.468   9.367  0.1998 -0.2873 -0.3097
  139SAPE  H14X15203   2.504   4.554   9.418  0.4775  0.5389 -1.9458
  139SAPE  H14Y15204   2.350   4.490   9.345  0.0957  0.3184  0.7382
  139SAPE  C31515205   2.527   4.450   9.230 -0.1792 -1.0192 -0.0981
  139SAPE  H15X15206   2.526   4.549   9.179  1.0989 -1.0217 -0.1476
  139SAPE  H15Y15207   2.463   4.373   9.182 -0.9476 -1.1210  1.0769
  139SAPE  C31615208   2.669   4.387   9.231 -0.3738 -0.5529  0.5211
  139SAPE  H16X15209   2.742   4.465   9.263 -0.1868  0.3851 -2.0551
  139SAPE  H16Y15210   2.668   4.301   9.302  0.7701 -0.4878  0.6224
  139SAPE  C31715211   2.712   4.335   9.091  0.1623  0.2623  0.5438
  139SAPE  H17X15212   2.696   4.415   9.016  1.2562 -1.2809 -1.3731
  139SAPE  H17Y15213   2.662   4.239   9.066  1.1270  0.4720 -2.3640
  139SAPE  C31815214   2.864   4.320   9.086  0.2024  0.0736  0.1286
  139SAPE  H18X15215   2.889   4.314   8.977 -0.0727 -0.1926  0.0786
  139SAPE  H18Y15216   2.898   4.233   9.146  2.2493  0.0575 -0.9957
  139SAPE  H18Z15217   2.900   4.414   9.132  0.6627  0.4126 -0.8964
  140SAPE     N15218   4.844   2.393  10.973  0.1294  0.6107  0.3515
  140SAPE   HN115219   4.898   2.482  10.977  2.3295 -0.6945  0.5666
  140SAPE   HN215220   4.876   2.338  10.891  1.9737 -1.4905  2.4127
  140SAPE   HN315221   4.745   2.425  10.969  0.0832  0.2908 -2.0034
  140SAPE   C1215222   4.879   2.307  11.096  0.5848 -0.0757  0.2502
  140SAPE  H12A15223   4.835   2.205  11.089 -0.3657  0.3833 -0.5747
  140SAPE  H12B15224   4.838   2.361  11.184  1.3976  1.6232 -0.3826
  140SAPE   C1115225   5.033   2.300  11.106 -0.8539 -0.0204  0.1010
  140SAPE  H11A15226   5.074   2.237  11.024  0.8819  1.9181 -0.5777
  140SAPE  H11B15227   5.067   2.248  11.198  0.3918 -0.6308 -0.6872
  140SAPE     P15228   5.249   2.442  11.096 -0.1197 -0.6365 -0.2336
  140SAPE   O1315229   5.282   2.557  11.182  0.1478  0.1311 -0.4026
  140SAPE   O1415230   5.312   2.313  11.135 -0.1784 -0.3709 -0.0080
  140SAPE   O1215231   5.088   2.430  11.089 -0.6872  0.5870  0.1954
  140SAPE   O1115232   5.301   2.474  10.950  0.0810  0.0440 -0.0604
  140SAPE    C115233   5.251   2.418  10.827 -0.3753  0.5805 -0.1329
  140SAPE    HA15234   5.146   2.387  10.846 -0.1210 -0.1473  0.0800
  140SAPE    HB15235   5.258   2.498  10.749 -1.7505 -1.0156 -1.9293
  140SAPE    C215236   5.328   2.292  10.784  0.1091 -0.3513  0.1381
  140SAPE    HS15237   5.312   2.233  10.877  0.4170  0.4626  0.7118
  140SAPE   O2115238   5.466   2.330  10.764 -0.0303 -0.0794 -0.6249
  140SAPE   C2115239   5.555   2.242  10.783  0.8699  0.1767  0.2421
  140SAPE   O2215240   5.534   2.131  10.831  0.7873  0.2671 -0.1985
  140SAPE   C2215241   5.689   2.287  10.736 -0.6730  0.4521 -1.1098
  140SAPE   H2R15242   5.725   2.208  10.667  1.0327 -1.1683  1.4960
  140SAPE   H2S15243   5.681   2.378  10.674 -0.1042 -0.8283 -3.1160
  140SAPE    C315244   5.263   2.224  10.657  0.0774 -0.1977 -0.4757
  140SAPE    HX15245   5.161   2.193  10.691  0.4344  0.3386  1.1269
  140SAPE    HY15246   5.312   2.130  10.624  0.3914 -0.3082  0.2893
  140SAPE   O3115247   5.259   2.325  10.548  0.4604  0.0303 -0.3029
  140SAPE   C3115248   5.367   2.318  10.472 -0.2557  0.0449 -0.0733
  140SAPE   O3215249   5.470   2.252  10.477 -0.2068  0.2503  0.0119
  140SAPE   C3215250   5.340   2.418  10.358  0.4554 -0.7582  0.1723
  140SAPE   H2X15251   5.284   2.509  10.389  0.9003 -0.5375  0.3280
  140SAPE   H2Y15252   5.282   2.363  10.281  0.4212 -2.5557  1.4520
  140SAPE   C2315253   5.788   2.280  10.854 -0.6684 -0.7351  0.9378
  140SAPE   H3R15254   5.802   2.184  10.908  3.4254 -2.3245 -2.6008
  140SAPE   H3S15255   5.751   2.348  10.933  5.0817  1.4299  2.0246
  140SAPE   C2415256   5.932   2.310  10.804 -0.1339  0.3982  0.3092
  140SAPE   H4R15257   5.945   2.230  10.728  0.7242  1.3609 -0.5815
  140SAPE   H4S15258   6.004   2.288  10.886  1.7812  1.6560 -0.9861
  140SAPE   C2515259   5.948   2.453  10.748  0.2137  1.0521  0.3014
  140SAPE   H5R15260   5.964   2.531  10.824  0.8710  0.1861  1.0660
  140SAPE   C2615261   5.958   2.500  10.618 -0.4808 -0.2904  1.0567
  140SAPE   H6R15262   5.988   2.605  10.606 -0.6077 -0.2513  1.0828
  140SAPE   C2715263   5.962   2.426  10.486  0.8630 -0.1054 -0.9744
  140SAPE   H7R15264   5.947   2.484  10.393 -0.9595  1.4064  0.2449
  140SAPE   H7S15265   5.881   2.350  10.491  0.8641 -0.0350  0.1354
  140SAPE   C2815266   6.093   2.352  10.467 -0.0301  0.1136 -0.2043
  140SAPE   H8R15267   6.101   2.260  10.526  0.0294 -0.8736 -1.7420
  140SAPE   C2915268   6.202   2.384  10.392  0.2092 -0.3934  0.3188
  140SAPE   H9R15269   6.287   2.316  10.402 -0.3881 -1.0124  1.2418
  140SAPE  C21015270   6.225   2.507  10.309  0.0459  0.4328  0.0965
  140SAPE  H10R15271   6.334   2.521  10.292 -0.4272  2.4689 -1.4730
  140SAPE  H10S15272   6.197   2.595  10.371  2.6543  1.2409  0.1713
  140SAPE  C21115273   6.154   2.504  10.175  0.1356 -0.2973  0.3619
  140SAPE  H11R15274   6.060   2.561  10.173  1.0715  1.2738 -2.0266
  140SAPE  C21215275   6.209   2.444  10.063  0.3803  0.6836 -0.2156
  140SAPE  H12R15276   6.155   2.434   9.967 -0.9617 -0.5447  0.6499
  140SAPE  C21315277   6.344   2.378  10.061  0.0497  0.5188  0.1485
  140SAPE  H13R15278   6.388   2.339  10.155  1.5118 -0.7191 -1.0213
  140SAPE  H13S15279   6.414   2.458  10.028 -0.3441  1.0311  0.5581
  140SAPE  C21415280   6.344   2.262   9.965  0.1137 -0.3019  0.9324
  140SAPE  H14R15281   6.277   2.180   9.995 -0.0357 -0.3655  0.4345
  140SAPE  C21515282   6.420   2.251   9.858 -0.5346  0.0244 -0.3706
  140SAPE  H15R15283   6.402   2.158   9.801  0.3324  0.0599 -0.7060
  140SAPE  C21615284   6.531   2.340   9.800 -0.6111  0.3737 -0.9394
  140SAPE  H16R15285   6.623   2.325   9.860 -2.4451 -1.0614  1.6625
  140SAPE  H16S15286   6.507   2.448   9.809  1.4201  0.9669 -2.6254
  140SAPE  C21715287   6.538   2.318   9.649 -0.0338  0.4264  0.3306
  140SAPE  H17R15288   6.439   2.331   9.601 -0.0048  4.0219  1.0715
  140SAPE  H17S15289   6.578   2.217   9.626  0.7506  0.2861  2.2350
  140SAPE  C21815290   6.627   2.413   9.578  0.1862 -0.1719  0.5596
  140SAPE  H18R15291   6.716   2.411   9.644  0.6776  1.7193 -0.0056
  140SAPE  H18S15292   6.604   2.521   9.566 -0.7742 -0.5709 -1.3843
  140SAPE  C21915293   6.650   2.371   9.429  0.0107  0.7323  0.8088
  140SAPE  H19R15294   6.666   2.261   9.418 -0.4725  0.8409 -1.1819
  140SAPE  H19S15295   6.740   2.423   9.392  0.5339  0.1033  1.1958
  140SAPE  C22015296   6.529   2.395   9.339 -0.1820  0.2683 -0.6916
  140SAPE  H20R15297   6.505   2.501   9.364 -0.9240  0.0661 -0.5313
  140SAPE  H20S15298   6.447   2.327   9.374 -0.2653  1.0196  0.6079
  140SAPE  H20T15299   6.550   2.379   9.232  0.9229 -0.5883 -0.3546
  140SAPE   C3315300   5.475   2.462  10.293  0.2866  0.0468  0.3611
  140SAPE   H3X15301   5.525   2.377  10.243  2.1750  0.0779  2.1164
  140SAPE   H3Y15302   5.543   2.502  10.372 -0.1088 -1.4952  1.5036
  140SAPE   C3415303   5.447   2.566  10.184 -0.6473  0.4827  0.3887
  140SAPE   H4X15304   5.544   2.615  10.159 -0.8835  1.2459  0.9366
  140SAPE   H4Y15305   5.373   2.644  10.212  1.8183  2.9673  0.3222
  140SAPE   C3515306   5.380   2.495  10.058 -0.5853  0.0040  0.4033
  140SAPE   H5X15307   5.292   2.433  10.087 -0.0410 -0.1547  1.7794
  140SAPE   H5Y15308   5.455   2.418  10.030 -0.4176  0.3265 -0.0314
  140SAPE   C3615309   5.347   2.591   9.942 -0.3781 -0.0218  0.2292
  140SAPE   H6X15310   5.365   2.532   9.850  0.4897 -1.5327  1.3259
  140SAPE   H6Y15311   5.418   2.677   9.947 -0.8445  0.3728  0.1046
  140SAPE   C3715312   5.202   2.646   9.943  0.2556  0.1602 -0.4425
  140SAPE   H7X15313   5.175   2.683  10.044 -3.3787 -3.3640  0.0430
  140SAPE   H7Y15314   5.128   2.563   9.936 -0.4644  0.7787 -0.1874
  140SAPE   C3815315   5.187   2.751   9.836  0.4390  0.0322  0.3405
  140SAPE   H8X15316   5.235   2.847   9.865  2.4225 -0.8504  0.1087
  140SAPE   H8Y15317   5.077   2.763   9.829  0.2851 -2.1563 -1.8767
  140SAPE   C3915318   5.244   2.727   9.697 -0.6596 -0.1284 -0.1168
  140SAPE   H9X15319   5.350   2.693   9.697 -0.0148  1.7592 -2.8168
  140SAPE   H9Y15320   5.218   2.809   9.626  0.5948  0.4269  0.0391
  140SAPE  C31015321   5.166   2.607   9.629  0.0453  0.8137  0.1446
  140SAPE  H10X15322   5.060   2.642   9.632  0.5524  2.3692  0.6817
  140SAPE  H10Y15323   5.174   2.518   9.695 -1.8686 -1.2480 -2.3414
  140SAPE  C31115324   5.213   2.550   9.495 -0.2046  0.1820 -0.1334
  140SAPE  H11X15325   5.158   2.454   9.484 -1.0064  0.5192  0.8261
  140SAPE  H11Y15326   5.322   2.534   9.511  0.2796  1.8990 -1.5703
  140SAPE  C31215327   5.197   2.644   9.375 -0.4371  0.0197 -0.1921
  140SAPE  H12X15328   5.229   2.744   9.411  2.9763 -1.9729  2.6450
  140SAPE  H12Y15329   5.092   2.645   9.339 -0.1092  2.1735 -1.1885
  140SAPE  C31315330   5.293   2.603   9.262  0.0193  0.7435  0.0994
  140SAPE  H13X15331   5.248   2.513   9.216  1.7904  0.1840 -0.6110
  140SAPE  H13Y15332   5.389   2.569   9.307  1.5871  0.9810 -2.8989
  140SAPE  C31415333   5.324   2.711   9.153 -0.2211  0.2102 -0.2963
  140SAPE  H14X15334   5.408   2.773   9.190 -0.4697 -0.0236  0.6735
  140SAPE  H14Y15335   5.234   2.774   9.139  0.4482  1.2830  0.2321
  140SAPE  C31515336   5.358   2.633   9.026  0.0194  0.0242  0.1080
  140SAPE  H15X15337   5.268   2.579   8.990  0.5102 -1.3722  0.9336
  140SAPE  H15Y15338   5.424   2.550   9.060 -1.2116 -1.6274 -1.4511
  140SAPE  C31615339   5.411   2.735   8.919 -0.3476 -0.6138 -0.0499
  140SAPE  H16X15340   5.466   2.678   8.841  0.6029 -0.3015  0.3904
  140SAPE  H16Y15341   5.481   2.802   8.973 -1.5887  1.1418 -0.5909
  140SAPE  C31715342   5.306   2.798   8.840  0.0881 -0.7260  0.7444
  140SAPE  H17X15343   5.212   2.819   8.895  0.0424 -0.8071  0.6966
  140SAPE  H17Y15344   5.269   2.723   8.767 -1.5929 -1.0749  1.9338
  140SAPE  C31815345   5.348   2.927   8.769  0.8767 -0.5157 -0.2301
  140SAPE  H18X15346   5.270   2.962   8.698 -0.4237 -2.0033  0.4281
  140SAPE  H18Y15347   5.444   2.913   8.714 -0.3661  0.6216 -2.7780
  140SAPE  H18Z15348   5.362   3.006   8.846 -1.1461  0.5462 -0.9008
  141SAPE     N15349   5.473   2.664  10.872 -0.2059  0.3829 -0.0251
  141SAPE   HN115350   5.449   2.679  10.772  0.0229  0.6012 -0.0459
  141SAPE   HN215351   5.429   2.571  10.890 -2.0611  1.2846  0.1790
  141SAPE   HN315352   5.411   2.733  10.920  2.0384  0.9947  2.0893
  141SAPE   C1215353   5.619   2.664  10.912 -0.8351 -0.0190 -1.2400
  141SAPE  H12A15354   5.673   2.579  10.867 -1.1942 -1.7169  1.4399
  141SAPE  H12B15355   5.621   2.659  11.023  2.1948 -2.1766 -1.3466
  141SAPE   C1115356   5.685   2.795  10.882 -0.2150 -0.0713 -0.5137
  141SAPE  H11A15357   5.625   2.875  10.930  0.7079  0.7066 -0.6523
  141SAPE  H11B15358   5.694   2.820  10.775  1.3532 -1.0356 -0.6356
  141SAPE     P15359   5.880   2.932  10.993 -0.2148 -0.0707 -0.2393
  141SAPE   O1315360   5.798   2.976  11.109 -0.3142  0.2395  1.0206
  141SAPE   O1415361   6.018   2.899  11.033  0.1511  0.6485 -0.0123
  141SAPE   O1215362   5.815   2.800  10.937 -0.0670 -0.1821 -0.0400
  141SAPE   O1115363   5.875   3.038  10.879  0.2350  0.3924 -0.6897
  141SAPE    C115364   5.971   3.036  10.771  0.3025 -0.1934  0.1730
  141SAPE    HA15365   6.014   3.139  10.776 -1.4467  0.6121 -0.9596
  141SAPE    HB15366   6.062   2.974  10.786 -0.8030 -1.9799 -0.4245
  141SAPE    C215367   5.916   3.013  10.625 -0.2690 -0.2128  0.2178
  141SAPE    HS15368   5.997   3.061  10.566 -1.4921  1.7817  0.1133
  141SAPE   O2115369   5.791   3.067  10.600  0.1362  0.0152 -0.1037
  141SAPE   C2115370   5.787   3.198  10.573 -0.1027  0.1709  0.1387
  141SAPE   O2215371   5.880   3.274  10.609  0.1837 -0.6788  0.3070
  141SAPE   C2215372   5.659   3.236  10.512 -0.3793  0.3736 -0.3597
  141SAPE   H2R15373   5.650   3.181  10.416  0.4759 -1.7500  0.7551
  141SAPE   H2S15374   5.573   3.206  10.577 -1.9093 -2.0383 -3.3656
  141SAPE    C315375   5.924   2.872  10.574  0.5351  0.4911  0.2217
  141SAPE    HX15376   5.874   2.801  10.644 -0.0846 -0.6939 -1.3821
  141SAPE    HY15377   6.033   2.850  10.582  0.2527 -1.0277  0.1726
  141SAPE   O3115378   5.857   2.857  10.449  0.4152  0.7169  0.2689
  141SAPE   C3115379   5.904   2.912  10.343 -0.5041  0.2485 -0.9356
  141SAPE   O3215380   6.004   2.983  10.329  0.2847  0.0190  0.0651
  141SAPE   C3215381   5.814   2.876  10.218 -0.3039  0.0019  0.3620
  141SAPE   H2X15382   5.745   2.960  10.195 -0.9804 -0.8428 -0.7303
  141SAPE   H2Y15383   5.767   2.780  10.247  1.1917 -0.7405  0.3503
  141SAPE   C2315384   5.656   3.386  10.500  0.2228  0.6855  0.0033
  141SAPE   H3R15385   5.741   3.415  10.436 -1.2946  0.9543 -1.9458
  141SAPE   H3S15386   5.681   3.430  10.599 -1.0485 -1.5589  1.3596
  141SAPE   C2415387   5.521   3.433  10.443 -0.7291  0.1513 -0.6720
  141SAPE   H4R15388   5.449   3.439  10.527  0.4139 -0.6760  0.3806
  141SAPE   H4S15389   5.483   3.351  10.378 -1.7430  1.7637 -2.1473
  141SAPE   C2515390   5.541   3.568  10.387  0.6008  0.0689 -0.0964
  141SAPE   H5R15391   5.614   3.622  10.449 -0.3530  1.7865 -0.4550
  141SAPE   C2615392   5.473   3.618  10.284  0.6229 -0.2772 -0.6902
  141SAPE   H6R15393   5.490   3.723  10.255  0.4636 -0.4096 -1.2815
  141SAPE   C2715394   5.362   3.549  10.212  0.6522 -0.1118 -0.0576
  141SAPE   H7R15395   5.270   3.611  10.200 -0.0349 -1.3433 -1.2528
  141SAPE   H7S15396   5.315   3.465  10.268  1.5596  1.1161  2.6618
  141SAPE   C2815397   5.380   3.473  10.091 -0.0663 -0.1141 -0.4911
  141SAPE   H8R15398   5.474   3.416  10.096  0.0216  0.2118  4.1925
  141SAPE   C2915399   5.289   3.453   9.995  0.6544 -0.1149 -0.0946
  141SAPE   H9R15400   5.320   3.395   9.906  2.0436 -0.5553  0.6594
  141SAPE  C21015401   5.150   3.511   9.984  0.0962  0.7241  0.5054
  141SAPE  H10R15402   5.149   3.585   9.901  1.2903 -2.6850 -2.7293
  141SAPE  H10S15403   5.119   3.569  10.074 -1.1502 -3.7256  3.0861
  141SAPE  C21115404   5.058   3.401   9.937  0.2980 -0.0377  0.4043
  141SAPE  H11R15405   5.017   3.338  10.018  0.5244  0.0445  0.5851
  141SAPE  C21215406   5.022   3.379   9.811  0.5063 -0.1207 -0.4380
  141SAPE  H12R15407   4.939   3.309   9.794 -1.2864  1.5921  0.8824
  141SAPE  C21315408   5.065   3.455   9.683 -0.6534 -0.2117  1.7164
  141SAPE  H13R15409   5.176   3.444   9.678 -0.6743  0.0032  0.4743
  141SAPE  H13S15410   5.058   3.566   9.684 -0.1375 -0.1483  0.0700
  141SAPE  C21415411   5.012   3.420   9.552  0.4259 -0.7472 -0.9708
  141SAPE  H14R15412   4.951   3.497   9.503 -0.2128  0.6076  1.8521
  141SAPE  C21515413   5.051   3.313   9.480  0.0006  0.1964 -0.4111
  141SAPE  H15R15414   5.023   3.291   9.376  0.5026 -0.3618 -0.4285
  141SAPE  C21615415   5.142   3.204   9.529  0.6884  0.3915  0.1136
  141SAPE  H16R15416   5.089   3.108   9.512  3.0007 -1.3703  2.5363
  141SAPE  H16S15417   5.162   3.196   9.638 -2.6298 -2.2365  0.6383
  141SAPE  C21715418   5.276   3.187   9.463 -0.6849 -1.1984 -0.9709
  141SAPE  H17R15419   5.332   3.103   9.509 -0.6984 -1.7793 -1.9849
  141SAPE  H17S15420   5.340   3.277   9.475 -0.0891 -1.6208 -0.9830
  141SAPE  C21815421   5.262   3.157   9.311 -0.3017  0.0275  0.3450
  141SAPE  H18R15422   5.205   3.241   9.264  1.1168  2.3122  2.5998
  141SAPE  H18S15423   5.197   3.067   9.302 -1.2732  0.6955  0.6540
  141SAPE  C21915424   5.391   3.138   9.243  0.9907  0.3613 -0.5551
  141SAPE  H19R15425   5.471   3.097   9.308 -1.2618 -0.6564  1.6481
  141SAPE  H19S15426   5.434   3.240   9.235  1.7572  0.4611  3.8265
  141SAPE  C22015427   5.385   3.071   9.100  0.1591 -0.3279  0.0020
  141SAPE  H20R15428   5.489   3.053   9.065  0.0086  1.2214 -1.2917
  141SAPE  H20S15429   5.338   3.146   9.033 -0.2929 -0.1069  0.5623
  141SAPE  H20T15430   5.325   2.979   9.107 -0.4929  0.1941  1.5548
  141SAPE   C3315431   5.908   2.853  10.095 -0.5785 -0.0673 -0.6590
  141SAPE   H3X15432   5.851   2.799  10.016 -1.4227 -1.7147  1.0338
  141SAPE   H3Y15433   5.993   2.798  10.139 -1.1608 -0.1203  0.4167
  141SAPE   C3415434   5.935   2.983  10.027  0.4144 -0.0425  0.3207
  141SAPE   H4X15435   6.005   3.042  10.090 -0.6173  0.4190  1.0615
  141SAPE   H4Y15436   5.847   3.051  10.015  1.4361  1.5128  1.4653
  141SAPE   C3515437   5.997   2.950   9.896 -0.4379 -0.7093  0.6837
  141SAPE   H5X15438   5.931   2.890   9.831 -0.3770  0.0588 -0.0926
  141SAPE   H5Y15439   6.075   2.871   9.907 -1.0908 -1.3898  0.4539
  141SAPE   C3615440   6.029   3.068   9.811  0.8514  0.1585  0.3814
  141SAPE   H6X15441   6.096   3.144   9.856 -0.4908  1.3347  0.4299
  141SAPE   H6Y15442   5.932   3.106   9.770  1.4468  0.4818 -0.7505
  141SAPE   C3715443   6.104   3.018   9.680  0.0342 -0.2950 -0.2305
  141SAPE   H7X15444   6.042   2.944   9.626 -0.2101 -0.3495  0.1202
  141SAPE   H7Y15445   6.202   2.980   9.714  0.6337  1.9971  0.7073
  141SAPE   C3815446   6.110   3.140   9.581 -0.1278 -0.0654  0.0588
  141SAPE   H8X15447   6.185   3.207   9.629  1.9810 -2.3442  0.0108
  141SAPE   H8Y15448   6.012   3.188   9.559  0.6320  1.8611  0.7757
  141SAPE   C3915449   6.163   3.074   9.451  0.0153 -0.5232 -0.3414
  141SAPE   H9X15450   6.096   2.991   9.421 -0.6452 -0.5725  1.2180
  141SAPE   H9Y15451   6.268   3.045   9.475 -0.5321  0.6043  3.9057
  141SAPE  C31015452   6.162   3.177   9.336 -0.0620 -0.2284 -0.0144
  141SAPE  H10X15453   6.193   3.277   9.372 -0.5933  0.1718 -0.6528
  141SAPE  H10Y15454   6.054   3.189   9.312 -0.4946  3.8768  3.3687
  141SAPE  C31115455   6.238   3.118   9.216 -0.3939 -0.4889  0.2971
  141SAPE  H11X15456   6.313   3.038   9.236 -1.9013 -2.0421 -0.1805
  141SAPE  H11Y15457   6.280   3.206   9.162 -0.4140  0.4389  1.7739
  141SAPE  C31215458   6.139   3.054   9.115 -0.2703 -0.3667  0.5472
  141SAPE  H12X15459   6.072   3.140   9.092  2.3348  2.4626  3.1102
  141SAPE  H12Y15460   6.075   2.975   9.160 -2.3081  0.3381 -0.9984
  141SAPE  C31315461   6.210   3.003   8.988 -0.1542  0.1143 -0.7007
  141SAPE  H13X15462   6.297   2.946   9.027 -0.0729 -0.1260 -1.2269
  141SAPE  H13Y15463   6.249   3.081   8.920  1.3075 -0.0919 -0.1026
  141SAPE  C31415464   6.128   2.911   8.896 -0.4057 -0.6444 -0.0526
  141SAPE  H14X15465   6.058   2.981   8.845  0.5947 -1.1272 -2.1624
  141SAPE  H14Y15466   6.070   2.841   8.960 -1.9951  0.0749 -0.7066
  141SAPE  C31515467   6.209   2.834   8.792 -0.5615  0.0284 -0.0005
  141SAPE  H15X15468   6.283   2.775   8.850  0.4105  0.6687 -0.5778
  141SAPE  H15Y15469   6.273   2.898   8.728  0.7046 -1.7955 -0.6183
  141SAPE  C31615470   6.127   2.733   8.709 -0.2229  0.1238  0.9017
  141SAPE  H16X15471   6.065   2.672   8.779 -1.6736  1.1874  0.5609
  141SAPE  H16Y15472   6.198   2.662   8.662 -2.7572 -1.3481 -0.8489
  141SAPE  C31715473   6.029   2.781   8.600 -0.0042 -0.0682 -0.1700
  141SAPE  H17X15474   5.992   2.685   8.557  0.8865 -0.4674 -0.0697
  141SAPE  H17Y15475   6.088   2.835   8.522 -0.5465 -0.5901 -0.9526
  141SAPE  C31815476   5.905   2.859   8.635  0.5434 -0.4756  0.0160
  141SAPE  H18X15477   5.925   2.965   8.609  0.6901 -1.0738 -2.3871
  141SAPE  H18Y15478   5.873   2.838   8.739 -0.2179  0.0606 -0.1016
  141SAPE  H18Z15479   5.826   2.822   8.566  1.2867 -0.7389 -0.6959
  142SAPE     N15480   6.682   2.434  11.421  0.0112  0.1707  0.0594
  142SAPE   HN115481   6.743   2.363  11.377 -2.2360 -1.7911  0.0007
  142SAPE   HN215482   6.740   2.509  11.464  1.6123 -0.4647 -0.9697
  142SAPE   HN315483   6.634   2.382  11.498  1.1071 -0.4943  0.3017
  142SAPE   C1215484   6.576   2.494  11.337 -0.3189 -0.2479  0.0196
  142SAPE  H12A15485   6.627   2.559  11.263  0.8178 -0.8315  0.2718
  142SAPE  H12B15486   6.511   2.561  11.398 -2.2867 -1.0933 -1.1041
  142SAPE   C1115487   6.498   2.374  11.273  0.2224 -0.0635  0.4438
  142SAPE  H11A15488   6.412   2.413  11.216  0.9830  0.9717 -0.0061
  142SAPE  H11B15489   6.447   2.315  11.353  0.8099 -0.2704  0.6739
  142SAPE     P15490   6.540   2.145  11.147  0.1122 -0.0603 -0.0646
  142SAPE   O1315491   6.604   2.044  11.229  0.6210  0.4181  0.6712
  142SAPE   O1415492   6.391   2.131  11.144  0.4068 -0.5792  0.4058
  142SAPE   O1215493   6.579   2.294  11.181  0.2777  0.6638 -0.2261
  142SAPE   O1115494   6.594   2.116  11.001  0.0468 -0.0141 -0.2756
  142SAPE    C115495   6.693   2.197  10.941  0.5052 -0.4136 -0.0012
  142SAPE    HA15496   6.708   2.294  10.993  0.2472  0.0029 -0.6959
  142SAPE    HB15497   6.790   2.144  10.933  0.5909 -0.2116 -0.3341
  142SAPE    C215498   6.653   2.245  10.799 -0.2244  0.1752 -0.4635
  142SAPE    HS15499   6.543   2.257  10.806  0.0502  2.8797 -0.0745
  142SAPE   O2115500   6.683   2.130  10.715  0.5497 -0.1153 -0.2812
  142SAPE   C2115501   6.617   2.121  10.607 -0.5494  0.2898 -0.6015
  142SAPE   O2215502   6.526   2.198  10.565 -0.1675 -0.5459 -0.2556
  142SAPE   C2215503   6.676   2.006  10.530  0.3600  0.1122 -0.6008
  142SAPE   H2R15504   6.692   1.919  10.597  2.3292 -0.7487 -2.0969
  142SAPE   H2S15505   6.593   1.971  10.465  0.2540  0.1657 -0.4936
  142SAPE    C315506   6.728   2.374  10.754 -0.3873  0.4932 -0.0697
  142SAPE    HX15507   6.833   2.339  10.756 -0.2631  0.8814  0.1167
  142SAPE    HY15508   6.715   2.450  10.834  0.9593  0.1593  0.4887
  142SAPE   O3115509   6.698   2.420  10.623 -0.5799 -0.9765  0.5379
  142SAPE   C3115510   6.613   2.520  10.616  0.2063 -0.3386 -0.2325
  142SAPE   O3215511   6.566   2.576  10.714  0.4261  0.2738  0.0511
  142SAPE   C3215512   6.578   2.544  10.468  0.6586 -0.8228  0.6602
  142SAPE   H2X15513   6.509   2.631  10.463  0.4362 -1.1359 -2.3019
  142SAPE   H2Y15514   6.525   2.452  10.434 -1.4336  0.6678 -0.2165
  142SAPE   C2315515   6.797   2.042  10.437  0.7047 -0.9323  0.4025
  142SAPE   H3R15516   6.802   1.966  10.356 -0.6086  0.3191 -0.8979
  142SAPE   H3S15517   6.888   2.034  10.499  1.7990 -2.6135 -1.3494
  142SAPE   C2415518   6.773   2.177  10.361  0.2048  0.5007 -0.5387
  142SAPE   H4R15519   6.865   2.199  10.303  1.8620 -3.1505  0.5375
  142SAPE   H4S15520   6.757   2.265  10.426  0.7812  0.3677 -0.2101
  142SAPE   C2515521   6.659   2.176  10.266  0.4539  0.2419 -0.1887
  142SAPE   H5R15522   6.561   2.194  10.313  1.1019 -1.9776  2.1519
  142SAPE   C2615523   6.667   2.145  10.130  0.5589 -0.6970  0.3281
  142SAPE   H6R15524   6.571   2.155  10.077 -0.8095 -3.1990  2.2134
  142SAPE   C2715525   6.782   2.109  10.048 -0.0453  0.3673  0.1357
  142SAPE   H7R15526   6.875   2.130  10.105 -0.5371 -0.8372  1.4098
  142SAPE   H7S15527   6.798   2.181   9.965 -2.7898  1.7324  0.7365
  142SAPE   C2815528   6.784   1.962  10.001  0.4932 -0.4616 -0.5345
  142SAPE   H8R15529   6.792   1.882  10.076 -0.1695  0.4974  0.5650
  142SAPE   C2915530   6.797   1.927   9.876 -0.1941 -0.1337 -0.5207
  142SAPE   H9R15531   6.784   1.819   9.858  0.4829 -0.4861  1.0777
  142SAPE  C21015532   6.807   2.018   9.759  0.7418 -0.2221 -0.0457
  142SAPE  H10R15533   6.880   2.098   9.786 -1.0411  1.1268  0.8677
  142SAPE  H10S15534   6.710   2.071   9.747  0.9090 -0.2790 -1.7551
  142SAPE  C21115535   6.848   1.948   9.627 -0.2862  0.5263 -0.0793
  142SAPE  H11R15536   6.956   1.927   9.623 -0.7568 -1.7376 -1.2745
  142SAPE  C21215537   6.771   1.934   9.520  0.4776  1.1740 -0.2427
  142SAPE  H12R15538   6.819   1.887   9.434 -1.5650  2.3432 -2.0760
  142SAPE  C21315539   6.631   1.979   9.501 -0.7221 -0.0567  0.3626
  142SAPE  H13R15540   6.642   2.070   9.439  2.1564 -1.2369 -0.9462
  142SAPE  H13S15541   6.575   2.008   9.592 -2.4591 -2.6140  0.1493
  142SAPE  C21415542   6.561   1.869   9.425 -0.8235  0.2543 -0.4051
  142SAPE  H14R15543   6.512   1.784   9.476 -1.1648  0.8232  0.2261
  142SAPE  C21515544   6.558   1.844   9.294 -0.5106 -0.5821 -0.3774
  142SAPE  H15R15545   6.514   1.748   9.264 -0.5492 -0.5327 -0.4782
  142SAPE  C21615546   6.622   1.920   9.175 -0.3308  0.5373 -1.1106
  142SAPE  H16R15547   6.690   1.849   9.123 -0.5858  0.0051 -0.7252
  142SAPE  H16S15548   6.681   2.011   9.199  1.5915 -0.7219 -0.9570
  142SAPE  C21715549   6.520   1.950   9.059 -0.2880 -0.3849  0.5414
  142SAPE  H17R15550   6.455   2.036   9.085  1.8936  1.4175  0.2293
  142SAPE  H17S15551   6.465   1.857   9.034 -0.7689 -0.1912  0.8786
  142SAPE  C21815552   6.598   1.976   8.932  0.3734 -0.5113 -0.2857
  142SAPE  H18R15553   6.517   1.982   8.856  1.0121 -1.1625 -1.0214
  142SAPE  H18S15554   6.649   1.877   8.922 -0.0191 -0.8221  0.7589
  142SAPE  C21915555   6.683   2.100   8.927  0.3234 -0.5410 -0.2550
  142SAPE  H19R15556   6.700   2.119   8.819  1.3027 -1.4583 -0.2634
  142SAPE  H19S15557   6.786   2.083   8.965  0.6172 -2.2575 -1.7844
  142SAPE  C22015558   6.636   2.239   8.973 -0.2771 -0.4105 -0.4404
  142SAPE  H20R15559   6.538   2.271   8.930  0.1368  2.0235  0.3106
  142SAPE  H20S15560   6.714   2.311   8.940 -0.3965  0.1209  0.4230
  142SAPE  H20T15561   6.647   2.257   9.082 -0.4028  1.4410 -0.7009
  142SAPE   C3315562   6.706   2.583  10.380 -0.7053  0.1383  0.3921
  142SAPE   H3X15563   6.780   2.500  10.376 -0.1209  0.6770  0.0556
  142SAPE   H3Y15564   6.756   2.668  10.431  3.0596 -1.6327 -0.1807
  142SAPE   C3415565   6.662   2.636  10.239 -0.4844 -0.1932  1.1611
  142SAPE   H4X15566   6.589   2.718  10.257 -0.2333  0.6011 -1.3012
  142SAPE   H4Y15567   6.611   2.553  10.185 -0.1116  0.6879 -0.5747
  142SAPE   C3515568   6.785   2.698  10.159  0.1433 -0.4488 -0.1057
  142SAPE   H5X15569   6.843   2.762  10.229  0.4683  1.5533 -2.1373
  142SAPE   H5Y15570   6.746   2.761  10.077 -1.0367 -1.0099  0.0132
  142SAPE   C3615571   6.884   2.591  10.105 -0.1847 -0.3481 -0.1722
  142SAPE   H6X15572   6.892   2.507  10.177 -2.2622 -0.3155  0.1223
  142SAPE   H6Y15573   6.987   2.634  10.113 -0.0284 -0.9145  0.9044
  142SAPE   C3715574   6.864   2.540   9.967  0.2785  0.2058 -0.9145
  142SAPE   H7X15575   6.874   2.615   9.886 -0.8432  1.4631  0.0837
  142SAPE   H7Y15576   6.764   2.493   9.958  1.1020 -2.3479  2.1917
  142SAPE   C3815577   6.970   2.429   9.944 -0.0997  0.1812  0.2141
  142SAPE   H8X15578   6.961   2.347  10.018  2.9606  0.7422  1.2578
  142SAPE   H8Y15579   7.068   2.481   9.952 -0.8366  1.6445  0.0125
  142SAPE   C3915580   6.953   2.366   9.802  0.2136  0.6106  0.9594
  142SAPE   H9X15581   6.854   2.321   9.783  0.2919  1.0274 -0.4743
  142SAPE   H9Y15582   7.019   2.277   9.809 -0.8801 -0.1571  1.7984
  142SAPE  C31015583   7.007   2.460   9.690  1.0949 -0.1535 -0.0712
  142SAPE  H10X15584   7.105   2.505   9.719  1.1812 -2.4441  3.4190
  142SAPE  H10Y15585   6.928   2.536   9.673 -0.7129 -1.7903  0.9232
  142SAPE  C31115586   7.024   2.392   9.553  0.7843  0.3785 -0.0034
  142SAPE  H11X15587   6.945   2.314   9.545 -0.5342  1.3199  3.1794
  142SAPE  H11Y15588   7.122   2.340   9.548  0.9021  0.6803 -0.9270
  142SAPE  C31215589   7.003   2.485   9.428  0.0642  0.1620 -0.8340
  142SAPE  H12X15590   7.086   2.559   9.430  0.1988 -0.0022  0.0762
  142SAPE  H12Y15591   6.911   2.548   9.427  0.5569  0.8922 -0.8974
  142SAPE  C31315592   7.006   2.406   9.301 -0.1248  0.0780  0.6578
  142SAPE  H13X15593   6.918   2.341   9.279 -0.0887 -0.4841  2.0971
  142SAPE  H13Y15594   7.089   2.332   9.299 -2.1286 -2.2324  0.8108
  142SAPE  C31415595   7.018   2.494   9.177  0.6451  0.6317  0.8839
  142SAPE  H14X15596   7.118   2.539   9.193  0.5735  0.6250  1.3401
  142SAPE  H14Y15597   6.935   2.566   9.193 -0.2928 -0.9570  3.4058
  142SAPE  C31515598   7.006   2.419   9.051 -0.5784 -0.8088 -0.1560
  142SAPE  H15X15599   6.914   2.358   9.054 -0.8355 -0.4316 -0.2909
  142SAPE  H15Y15600   7.097   2.355   9.039 -0.1932 -0.4370  0.7614
  142SAPE  C31615601   7.018   2.510   8.930 -0.2582  0.3922 -0.9288
  142SAPE  H16X15602   7.042   2.443   8.846  0.9577 -1.3252  0.7510
  142SAPE  H16Y15603   7.099   2.586   8.936  2.2502 -2.3303  1.0900
  142SAPE  C31715604   6.888   2.584   8.907 -0.0684 -0.3976  0.1440
  142SAPE  H17X15605   6.878   2.669   8.977  0.2584 -1.0759  1.0205
  142SAPE  H17Y15606   6.803   2.516   8.930 -1.5795  1.1807 -0.6575
  142SAPE  C31815607   6.893   2.633   8.762 -0.3040  0.4962  0.3651
  142SAPE  H18X15608   6.976   2.706   8.750 -0.2218  0.3233 -0.1224
  142SAPE  H18Y15609   6.801   2.683   8.723  0.6273  1.8671 -0.1349
  142SAPE  H18Z15610   6.924   2.553   8.692 -0.7500 -0.7569  1.5855
  143SAPE     N15611   1.471   2.131  11.383 -0.2139  0.5320 -0.5700
  143SAPE   HN115612   1.511   2.157  11.476 -0.2242 -1.7064  0.0915
  143SAPE   HN215613   1.401   2.058  11.403  1.1327 -0.1759  1.7822
  143SAPE   HN315614   1.539   2.091  11.315 -0.3618 -1.1655  0.2480
  143SAPE   C1215615   1.430   2.268  11.333  0.7536  0.8211  0.2706
  143SAPE  H12A15616   1.512   2.333  11.369  0.4877  0.8606  0.8136
  143SAPE  H12B15617   1.335   2.305  11.379 -0.0843  3.0712 -3.0556
  143SAPE   C1115618   1.428   2.271  11.183  0.5301 -0.4593  0.5770
  143SAPE  H11A15619   1.522   2.235  11.135  0.0092  0.5875 -1.3009
  143SAPE  H11B15620   1.419   2.379  11.162 -1.4572 -0.3132  2.0920
  143SAPE     P15621   1.198   2.248  11.053  0.3568 -0.5227  0.4590
  143SAPE   O1315622   1.082   2.178  11.100  0.8110 -0.2879  0.2812
  143SAPE   O1415623   1.195   2.393  11.058 -0.3049 -0.1320 -0.4912
  143SAPE   O1215624   1.324   2.191  11.135 -0.2964  0.5461  0.3225
  143SAPE   O1115625   1.231   2.207  10.906  0.0514 -0.0221 -0.0533
  143SAPE    C115626   1.264   2.071  10.871 -1.0765 -0.4988  0.2050
  143SAPE    HA15627   1.340   2.023  10.937 -0.2358 -1.4808 -1.4375
  143SAPE    HB15628   1.180   2.001  10.888 -0.1224 -1.6378  0.2828
  143SAPE    C215629   1.341   2.049  10.729  0.2068 -0.7457 -0.2334
  143SAPE    HS15630   1.437   1.997  10.752  0.0043 -2.0555 -2.2446
  143SAPE   O2115631   1.370   2.166  10.660  0.4685 -0.0242  0.1482
  143SAPE   C2115632   1.463   2.244  10.719 -0.5120  0.7640 -0.0850
  143SAPE   O2215633   1.530   2.214  10.815 -0.5590 -0.0736 -0.2061
  143SAPE   C2215634   1.481   2.378  10.645  0.1980 -0.1532  0.2241
  143SAPE   H2R15635   1.379   2.412  10.617 -0.0943  0.7218  2.2559
  143SAPE   H2S15636   1.521   2.453  10.717  2.4229  0.2706 -1.3796
  143SAPE    C315637   1.257   1.959  10.644  0.5321  0.3974  0.3545
  143SAPE    HX15638   1.155   2.001  10.628  0.0571  0.0464  2.2111
  143SAPE    HY15639   1.254   1.860  10.695 -0.6443  0.4014  0.3177
  143SAPE   O3115640   1.319   1.938  10.518  0.3412  0.5207 -0.1233
  143SAPE   C3115641   1.257   1.976  10.410  0.5111 -0.4113 -0.4660
  143SAPE   O3215642   1.155   2.042  10.405 -0.0439 -0.0804  0.2766
  143SAPE   C3215643   1.336   1.927  10.289 -0.0695  0.1256  0.5002
  143SAPE   H2X15644   1.336   1.817  10.303 -0.0505 -0.0681 -0.9080
  143SAPE   H2Y15645   1.439   1.965  10.303  0.2846 -1.0793  1.2620
  143SAPE   C2315646   1.575   2.360  10.530  0.1701 -0.1197  0.3515
  143SAPE   H3R15647   1.663   2.303  10.567  0.2979  0.3019  0.7034
  143SAPE   H3S15648   1.612   2.458  10.492  0.8799  0.1394  1.6855
  143SAPE   C2415649   1.529   2.281  10.408  0.2102 -0.6082  0.4657
  143SAPE   H4R15650   1.435   2.333  10.379  1.7909  0.9314 -2.1863
  143SAPE   H4S15651   1.504   2.179  10.442 -1.1427  0.0482  1.4796
  143SAPE   C2515652   1.643   2.275  10.313 -0.2089 -0.3829 -0.0288
  143SAPE   H5R15653   1.744   2.268  10.356 -0.4522 -0.3536  0.5401
  143SAPE   C2615654   1.649   2.266  10.176  0.3191  0.0929 -0.4311
  143SAPE   H6R15655   1.749   2.244  10.136 -1.2924 -4.0256 -2.4808
  143SAPE   C2715656   1.535   2.263  10.073 -1.0868  0.3665  0.5702
  143SAPE   H7R15657   1.530   2.366  10.031 -3.5681 -1.0921 -2.9620
  143SAPE   H7S15658   1.441   2.227  10.121 -0.3881 -1.6780  0.4143
  143SAPE   C2815659   1.547   2.145   9.984  0.5966 -0.2492 -0.6612
  143SAPE   H8R15660   1.559   2.056  10.048 -0.2268 -0.3470 -0.6394
  143SAPE   C2915661   1.530   2.139   9.849  0.0966 -0.0300 -0.1337
  143SAPE   H9R15662   1.534   2.036   9.810 -2.4155 -0.8134  1.6022
  143SAPE  C21015663   1.497   2.250   9.751  0.4044  0.4316 -0.0451
  143SAPE  H10R15664   1.525   2.349   9.792  1.5384  1.0524 -2.2559
  143SAPE  H10S15665   1.386   2.253   9.744  0.2763  2.9555  2.4085
  143SAPE  C21115666   1.568   2.231   9.617 -0.1427  0.6006 -0.6139
  143SAPE  H11R15667   1.672   2.265   9.606 -0.8066  1.9679 -3.1319
  143SAPE  C21215668   1.516   2.170   9.509 -0.1567  0.5362 -0.8223
  143SAPE  H12R15669   1.578   2.175   9.419  1.9988  0.8055  0.6562
  143SAPE  C21315670   1.378   2.113   9.485  0.1677  0.4584  0.0584
  143SAPE  H13R15671   1.317   2.119   9.578 -0.2426 -1.5892 -0.0517
  143SAPE  H13S15672   1.394   2.003   9.475 -2.0876  0.1574 -0.3749
  143SAPE  C21415673   1.310   2.184   9.373 -0.7969 -0.2019 -0.3668
  143SAPE  H14R15674   1.310   2.292   9.395  0.7086  0.0221 -1.3135
  143SAPE  C21515675   1.266   2.136   9.257  0.1454  0.0621 -0.1179
  143SAPE  H15R15676   1.202   2.192   9.188  1.7330  1.7621 -0.2440
  143SAPE  C21615677   1.280   1.990   9.207  0.1893 -0.4348  0.3780
  143SAPE  H16R15678   1.187   1.929   9.200 -0.5163  0.4521  1.8931
  143SAPE  H16S15679   1.359   1.934   9.261  2.0654 -1.0417 -2.8332
  143SAPE  C21715680   1.327   2.004   9.061 -0.2946 -0.0445 -0.3061
  143SAPE  H17R15681   1.349   1.903   9.021  4.5394  0.5652  0.4526
  143SAPE  H17S15682   1.420   2.064   9.046  0.3186 -0.4400  1.7294
  143SAPE  C21815683   1.220   2.062   8.963 -0.4219  0.1443 -0.3508
  143SAPE  H18R15684   1.238   2.170   8.944  0.8732 -0.2864 -1.6640
  143SAPE  H18S15685   1.119   2.050   9.007 -0.0964 -0.7820  0.1544
  143SAPE  C21915686   1.192   1.987   8.830  0.7050 -0.3019 -0.8630
  143SAPE  H19R15687   1.167   1.882   8.856  0.5873 -0.0132  0.2241
  143SAPE  H19S15688   1.284   1.978   8.769  1.0768 -1.0121 -0.1981
  143SAPE  C22015689   1.078   2.036   8.746 -0.3515 -0.0426 -0.0464
  143SAPE  H20R15690   1.076   1.969   8.657 -0.9873  0.2731 -0.2731
  143SAPE  H20S15691   1.102   2.140   8.715 -0.7113 -0.3939 -1.5619
  143SAPE  H20T15692   0.978   2.037   8.793  0.3255 -1.0425  1.4510
  143SAPE   C3315693   1.273   1.954  10.149  0.0771 -0.2204  0.2683
  143SAPE   H3X15694   1.315   2.039  10.091 -2.2341  0.4314 -0.4803
  143SAPE   H3Y15695   1.166   1.982  10.154 -0.5873 -2.2716 -1.3559
  143SAPE   C3415696   1.290   1.826  10.063  0.0293  0.5020 -0.2357
  143SAPE   H4X15697   1.204   1.764  10.099 -0.7426  2.1798  0.8863
  143SAPE   H4Y15698   1.386   1.778  10.093 -0.1733  2.3274  3.7140
  143SAPE   C3515699   1.289   1.840   9.908  0.1016 -0.0917 -0.1447
  143SAPE   H5X15700   1.325   1.749   9.856  1.3046 -0.2460  0.9540
  143SAPE   H5Y15701   1.344   1.930   9.875 -0.0299 -0.2526 -0.8191
  143SAPE   C3615702   1.146   1.866   9.855  0.3723 -0.4405  0.4730
  143SAPE   H6X15703   1.094   1.925   9.934  0.5683  1.4514 -0.7637
  143SAPE   H6Y15704   1.113   1.760   9.850  3.5335 -1.4026 -0.9230
  143SAPE   C3715705   1.136   1.927   9.716 -0.1466  0.1144  0.0325
  143SAPE   H7X15706   1.217   1.880   9.657 -2.1806  0.2967 -3.0394
  143SAPE   H7Y15707   1.155   2.036   9.708 -0.1731  0.0671 -0.7391
  143SAPE   C3815708   0.995   1.898   9.662  0.3496 -0.1223  0.2568
  143SAPE   H8X15709   0.931   1.980   9.700 -0.5461 -0.5203 -0.3691
  143SAPE   H8Y15710   0.967   1.794   9.692 -2.5769  0.0636 -1.5765
  143SAPE   C3915711   1.002   1.900   9.508  1.0252  0.3168  0.1023
  143SAPE   H9X15712   1.082   1.839   9.460  1.1814  0.3616  0.3069
  143SAPE   H9Y15713   1.043   1.996   9.471  2.5881 -0.3176  0.1695
  143SAPE  C31015714   0.873   1.875   9.430  0.8519  0.0456  0.1340
  143SAPE  H10X15715   0.893   1.900   9.323  0.6476 -0.6755 -0.0740
  143SAPE  H10Y15716   0.799   1.945   9.473  1.5752  2.4404 -2.3445
  143SAPE  C31115717   0.814   1.734   9.433  0.0796  0.0485 -0.0811
  143SAPE  H11X15718   0.722   1.728   9.371  1.3098 -0.6473 -1.9148
  143SAPE  H11Y15719   0.778   1.711   9.535  0.1385 -0.2653 -0.1311
  143SAPE  C31215720   0.907   1.618   9.391  0.2560 -0.0579  0.2215
  143SAPE  H12X15721   0.988   1.605   9.465 -0.0113  1.2627  0.7585
  143SAPE  H12Y15722   0.945   1.623   9.287  1.6550 -0.9153  0.6762
  143SAPE  C31315723   0.837   1.479   9.382  0.3696  0.8008  0.2951
  143SAPE  H13X15724   0.782   1.464   9.287 -0.4331 -1.6382  1.0960
  143SAPE  H13Y15725   0.769   1.464   9.469  0.3473  1.0335  0.3181
  143SAPE  C31415726   0.938   1.356   9.395 -0.1349 -0.1746 -0.4256
  143SAPE  H14X15727   0.879   1.262   9.409  1.9967 -1.2979  1.2189
  143SAPE  H14Y15728   0.989   1.364   9.493  0.1452  0.4444 -0.6241
  143SAPE  C31515729   1.049   1.347   9.284  0.0040 -0.1303  0.6768
  143SAPE  H15X15730   1.116   1.436   9.283  0.0253 -0.1429 -0.4252
  143SAPE  H15Y15731   1.004   1.340   9.182  0.5646 -1.0485  0.4865
  143SAPE  C31615732   1.156   1.238   9.297 -0.4794  0.3521 -0.2210
  143SAPE  H16X15733   1.232   1.249   9.378  0.3939  2.2114 -1.2635
  143SAPE  H16Y15734   1.213   1.245   9.202 -1.9061  3.1004 -0.8973
  143SAPE  C31715735   1.095   1.100   9.332  0.9961  0.4187  0.3649
  143SAPE  H17X15736   1.014   1.086   9.258  1.3799  0.1196 -0.0003
  143SAPE  H17Y15737   1.055   1.105   9.435  1.9228 -0.1820  0.7611
  143SAPE  C31815738   1.195   0.983   9.311 -0.1934  0.4129 -0.6417
  143SAPE  H18X15739   1.253   1.002   9.218  0.9482  3.5574  0.6360
  143SAPE  H18Y15740   1.149   0.882   9.311  2.0720 -0.6422 -0.5823
  143SAPE  H18Z15741   1.275   0.975   9.387 -1.4758 -1.1525  0.5677
  144SAPE     N15742   4.274   6.548  10.900 -0.5713  0.3647  0.4255
  144SAPE   HN115743   4.313   6.511  10.811 -1.3487  2.0899 -0.6630
  144SAPE   HN215744   4.349   6.581  10.965 -0.4558 -2.4644  1.7765
  144SAPE   HN315745   4.223   6.471  10.947  2.8220 -2.1909  0.1002
  144SAPE   C1215746   4.180   6.657  10.858 -0.0160  0.5455  0.4015
  144SAPE  H12A15747   4.115   6.674  10.946 -0.1965 -1.1313  0.6170
  144SAPE  H12B15748   4.104   6.617  10.787 -0.1750  1.6393 -0.0603
  144SAPE   C1115749   4.242   6.788  10.801 -0.1145 -0.1737  1.1265
  144SAPE  H11A15750   4.163   6.866  10.790 -0.2023 -0.0687  2.4244
  144SAPE  H11B15751   4.282   6.758  10.702 -0.6229 -1.6458  1.3573
  144SAPE     P15752   4.299   6.913  11.017  0.4520 -0.3857 -0.0281
  144SAPE   O1315753   4.228   6.813  11.101 -0.0071 -0.3658  0.1628
  144SAPE   O1415754   4.418   6.983  11.083  0.4690  0.1925  0.0353
  144SAPE   O1215755   4.343   6.836  10.886  0.6135 -0.4248  0.1820
  144SAPE   O1115756   4.196   7.029  10.970 -0.3776 -0.6699  0.3631
  144SAPE    C115757   4.238   7.157  10.920 -0.3962  0.6809 -1.0012
  144SAPE    HA15758   4.229   7.234  11.000  2.2360 -0.2250  0.2455
  144SAPE    HB15759   4.344   7.155  10.887  0.1264 -1.5601  0.6600
  144SAPE    C215760   4.152   7.203  10.798 -0.1788 -0.4585  0.0242
  144SAPE    HS15761   4.045   7.203  10.828 -1.2308 -2.8650 -3.4251
  144SAPE   O2115762   4.155   7.108  10.691 -0.1739  0.0276  0.3954
  144SAPE   C2115763   4.271   7.098  10.620  0.1734 -0.2458  0.0839
  144SAPE   O2215764   4.379   7.135  10.653  0.4759 -0.6928  0.5519
  144SAPE   C2215765   4.245   7.024  10.493 -0.1180 -0.4876 -0.2211
  144SAPE   H2R15766   4.341   7.011  10.439 -0.6446 -1.2039 -0.9898
  144SAPE   H2S15767   4.220   6.920  10.523  1.7012  0.1646  3.8982
  144SAPE    C315768   4.180   7.349  10.757  0.5171  0.6445 -0.4154
  144SAPE    HX15769   4.286   7.359  10.724  1.1085 -1.2017  0.8289
  144SAPE    HY15770   4.173   7.413  10.848  1.6364  0.3530 -0.1123
  144SAPE   O3115771   4.098   7.387  10.645  0.9451 -0.4733  0.0341
  144SAPE   C3115772   3.977   7.426  10.673  0.9744 -0.3000 -0.4776
  144SAPE   O3215773   3.926   7.447  10.781  0.3405  0.8069 -0.4059
  144SAPE   C3215774   3.884   7.413  10.548  1.5967  0.3091  0.5957
  144SAPE   H2X15775   3.783   7.441  10.586  0.0457 -1.5063 -2.0483
  144SAPE   H2Y15776   3.882   7.309  10.509 -1.0315 -0.2146  1.9681
  144SAPE   C2315777   4.140   7.092  10.394 -0.2229 -0.5333  0.3595
  144SAPE   H3R15778   4.059   7.132  10.460 -0.3406 -0.7248  0.3287
  144SAPE   H3S15779   4.097   7.016  10.326  1.4660 -1.3914  0.2338
  144SAPE   C2415780   4.182   7.225  10.323  0.5987  0.1222  0.1902
  144SAPE   H4R15781   4.189   7.308  10.397 -0.6673 -0.4684  0.9954
  144SAPE   H4S15782   4.108   7.248  10.243 -1.1441 -0.9149  1.4704
  144SAPE   C2515783   4.318   7.203  10.263  0.1090 -0.3032  0.2420
  144SAPE   H5R15784   4.395   7.203  10.342 -0.3154 -0.2274  0.6578
  144SAPE   C2615785   4.351   7.193  10.133 -0.5605 -0.4204 -0.6507
  144SAPE   H6R15786   4.455   7.169  10.105 -0.3777 -1.1992  0.6430
  144SAPE   C2715787   4.250   7.199  10.017 -0.0835 -0.1017  0.0081
  144SAPE   H7R15788   4.227   7.307  10.002  1.7275  0.4502  1.0553
  144SAPE   H7S15789   4.156   7.146  10.042 -0.1288 -0.0414 -0.0363
  144SAPE   C2815790   4.307   7.130   9.892 -0.1269 -0.2447 -0.4820
  144SAPE   H8R15791   4.402   7.078   9.908 -1.2044 -1.5312  2.0027
  144SAPE   C2915792   4.243   7.107   9.783  0.6716 -0.4419  0.2347
  144SAPE   H9R15793   4.285   7.041   9.705  1.3181  1.1524 -0.7935
  144SAPE  C21015794   4.096   7.140   9.763  0.7222 -0.3009 -0.5531
  144SAPE  H10R15795   4.089   7.214   9.680  1.5159  1.4604  0.9172
  144SAPE  H10S15796   4.053   7.198   9.848 -3.1198  0.0559 -2.5877
  144SAPE  C21115797   3.998   7.024   9.741 -0.6572 -0.7589 -0.3858
  144SAPE  H11R15798   4.015   6.953   9.824 -1.2767 -1.9565 -1.2735
  144SAPE  C21215799   3.918   7.001   9.636  0.0247 -0.7135 -0.4899
  144SAPE  H12R15800   3.867   6.904   9.625 -0.0043 -0.9219  1.3560
  144SAPE  C21315801   3.912   7.099   9.526  0.1624 -0.4542 -0.7342
  144SAPE  H13R15802   4.015   7.133   9.504  0.1381 -1.1264 -1.9389
  144SAPE  H13S15803   3.863   7.191   9.565 -0.0275 -0.5549 -0.7340
  144SAPE  C21415804   3.842   7.065   9.400 -0.2804  0.3244  0.2048
  144SAPE  H14R15805   3.738   7.040   9.428  0.0904 -0.1578  1.1690
  144SAPE  C21515806   3.877   7.072   9.268 -0.6298 -0.5389 -0.4606
  144SAPE  H15R15807   3.815   7.025   9.190 -1.2080  1.8229 -1.4833
  144SAPE  C21615808   4.013   7.132   9.223  0.2313 -0.3369 -0.4933
  144SAPE  H16R15809   4.079   7.051   9.185 -1.6574 -0.4006 -3.8386
  144SAPE  H16S15810   4.056   7.185   9.311 -0.2738  1.6865 -1.4434
  144SAPE  C21715811   3.993   7.230   9.106 -0.7565  0.1845  0.0995
  144SAPE  H17R15812   4.085   7.291   9.109 -0.0943 -0.7199 -1.3870
  144SAPE  H17S15813   3.912   7.304   9.128 -1.3808 -0.1950 -0.9078
  144SAPE  C21815814   3.953   7.152   8.979 -0.6924  0.3556 -0.0132
  144SAPE  H18R15815   3.845   7.131   8.994 -0.8909  1.2502 -0.1748
  144SAPE  H18S15816   4.011   7.058   8.968  0.5856  1.0842  0.3517
  144SAPE  C21915817   3.978   7.231   8.849  0.4196  0.6568 -0.6918
  144SAPE  H19R15818   4.085   7.212   8.822  0.2258 -1.0073 -0.3131
  144SAPE  H19S15819   3.948   7.335   8.873 -1.4531 -0.0049 -0.0614
  144SAPE  C22015820   3.895   7.179   8.730  0.1137  0.4936  0.3562
  144SAPE  H20R15821   3.787   7.180   8.757  0.1529 -1.5722  0.6767
  144SAPE  H20S15822   3.911   7.070   8.712  1.1825  0.5540  0.9102
  144SAPE  H20T15823   3.914   7.230   8.633  1.0312  1.3469  0.9825
  144SAPE   C3315824   3.926   7.502  10.431  0.3678  0.0946  0.4770
  144SAPE   H3X15825   4.032   7.478  10.408  1.3877  3.7010  1.2029
  144SAPE   H3Y15826   3.916   7.612  10.442  0.4292  0.1598 -0.1242
  144SAPE   C3415827   3.828   7.479  10.309 -0.0786 -0.5273 -0.2749
  144SAPE   H4X15828   3.732   7.519  10.348  0.2337 -0.1737  0.1460
  144SAPE   H4Y15829   3.815   7.371  10.290 -1.1095 -0.3513 -0.5771
  144SAPE   C3515830   3.874   7.561  10.190  0.2682 -0.0203  0.3171
  144SAPE   H5X15831   3.887   7.668  10.218  1.6117  0.1110 -0.7110
  144SAPE   H5Y15832   3.803   7.561  10.105  0.2284 -1.5990  0.3267
  144SAPE   C3615833   4.017   7.515  10.141 -0.4403 -0.3924 -0.2152
  144SAPE   H6X15834   4.021   7.405  10.124 -0.7413 -0.4246 -0.0970
  144SAPE   H6Y15835   4.082   7.554  10.222 -0.1907 -0.7322 -0.2518
  144SAPE   C3715836   4.062   7.591  10.010 -0.3431 -0.0225 -0.2971
  144SAPE   H7X15837   4.170   7.566  10.005 -0.1936 -0.2914  2.8723
  144SAPE   H7Y15838   4.038   7.699  10.014 -0.6045 -0.0717 -0.5905
  144SAPE   C3815839   3.996   7.541   9.884  0.8625  0.0952  0.1016
  144SAPE   H8X15840   3.887   7.561   9.883  0.5309 -1.5031  1.4919
  144SAPE   H8Y15841   4.019   7.432   9.884  2.9288  0.5025  1.6528
  144SAPE   C3915842   4.046   7.604   9.750 -0.0254  0.8696  0.5238
  144SAPE   H9X15843   4.156   7.588   9.745 -0.4819 -2.5180  0.2271
  144SAPE   H9Y15844   4.026   7.713   9.763  1.2046  0.9406  1.9377
  144SAPE  C31015845   3.985   7.562   9.612 -0.5052 -0.7149 -0.7581
  144SAPE  H10X15846   3.880   7.595   9.593 -0.3439 -1.6471 -3.4935
  144SAPE  H10Y15847   3.970   7.452   9.617  0.4914 -0.8117  0.0584
  144SAPE  C31115848   4.065   7.604   9.487  1.1526 -0.8746  0.2155
  144SAPE  H11X15849   4.169   7.569   9.505  0.7227 -1.2161  2.2235
  144SAPE  H11Y15850   4.058   7.715   9.493  1.9025 -0.9304  2.7122
  144SAPE  C31215851   4.004   7.561   9.351  0.6933 -0.0554  0.1065
  144SAPE  H12X15852   3.895   7.563   9.372  0.8393  0.4613  0.8271
  144SAPE  H12Y15853   4.021   7.454   9.330 -1.4778 -0.4145  0.0216
  144SAPE  C31315854   4.036   7.651   9.230 -0.3764  0.7584 -0.4675
  144SAPE  H13X15855   4.142   7.682   9.221 -0.4444  1.4846  1.0342
  144SAPE  H13Y15856   3.978   7.745   9.249  1.0218  1.3014  1.3178
  144SAPE  C31415857   3.997   7.592   9.097 -0.6020 -0.0214 -0.5134
  144SAPE  H14X15858   3.896   7.548   9.106 -0.8765  0.9941  1.8719
  144SAPE  H14Y15859   4.071   7.516   9.064 -0.3662 -0.6340  1.3278
  144SAPE  C31515860   3.998   7.697   8.993  0.1119  0.7416  0.4230
  144SAPE  H15X15861   4.104   7.723   8.974 -0.2319  1.0434 -1.1088
  144SAPE  H15Y15862   3.939   7.785   9.026 -3.2344 -0.3784 -2.2551
  144SAPE  C31615863   3.943   7.647   8.861  0.7556 -0.0312 -0.2553
  144SAPE  H16X15864   3.843   7.600   8.867  1.7760 -2.3121 -0.4819
  144SAPE  H16Y15865   4.002   7.559   8.828  2.3098  0.7079  0.5132
  144SAPE  C31715866   3.973   7.749   8.746  0.1680  0.6479  0.8738
  144SAPE  H17X15867   4.082   7.773   8.741  0.9396 -2.8620 -1.7081
  144SAPE  H17Y15868   3.910   7.838   8.766 -0.3893  0.4453  0.0589
  144SAPE  C31815869   3.919   7.706   8.612  0.1122  0.2965 -0.2123
  144SAPE  H18X15870   3.820   7.657   8.619  0.1552  0.3969  1.2584
  144SAPE  H18Y15871   3.964   7.623   8.555 -2.0661 -1.8862  1.1542
  144SAPE  H18Z15872   3.914   7.795   8.546  1.6148  2.2907  2.2588
  145SAPE     N15873   2.091   1.596  11.009  0.2775  0.4942  0.4379
  145SAPE   HN115874   2.157   1.587  10.929 -1.3262 -1.4063 -0.7139
  145SAPE   HN215875   1.993   1.570  10.986  0.3926 -0.4438  1.0138
  145SAPE   HN315876   2.077   1.694  11.042 -0.0635  0.1389  1.3431
  145SAPE   C1215877   2.135   1.501  11.115  0.0203 -0.0454 -0.1862
  145SAPE  H12A15878   2.228   1.543  11.160 -0.9453  0.1809  1.6444
  145SAPE  H12B15879   2.171   1.404  11.076  0.6594 -0.1285  0.5903
  145SAPE   C1115880   2.024   1.491  11.220  0.4597 -0.1356  0.0293
  145SAPE  H11A15881   2.007   1.596  11.252 -1.5385 -0.6967  0.9253
  145SAPE  H11B15882   2.062   1.426  11.302 -0.7148 -1.3996 -0.4061
  145SAPE     P15883   1.781   1.398  11.239 -0.7422  0.1160  0.1703
  145SAPE   O1315884   1.814   1.274  11.307  0.5159  0.6930 -0.3596
  145SAPE   O1415885   1.746   1.517  11.317 -0.5289 -0.2093  0.2415
  145SAPE   O1215886   1.908   1.436  11.154 -0.3332  0.1174  0.0738
  145SAPE   O1115887   1.685   1.374  11.118  0.5602  0.5620  0.1424
  145SAPE    C115888   1.713   1.266  11.023  0.3133  0.8932 -0.3368
  145SAPE    HA15889   1.797   1.202  11.058  1.3158  4.2954  3.9988
  145SAPE    HB15890   1.620   1.206  11.008  0.1079  0.8881  0.8700
  145SAPE    C215891   1.760   1.314  10.887 -0.1922 -0.0760 -0.0578
  145SAPE    HS15892   1.868   1.337  10.889 -0.4662  1.3033 -0.4633
  145SAPE   O2115893   1.675   1.424  10.841 -0.0135  0.5023  0.1182
  145SAPE   C2115894   1.740   1.538  10.839  1.1063 -0.2474 -0.3067
  145SAPE   O2215895   1.860   1.556  10.856  0.5563 -0.3180  0.5001
  145SAPE   C2215896   1.637   1.656  10.827 -0.1200 -0.7884  0.0868
  145SAPE   H2R15897   1.531   1.631  10.846 -0.0846 -0.1005  1.2517
  145SAPE   H2S15898   1.663   1.727  10.909  1.4386 -1.0000 -0.2011
  145SAPE    C315899   1.745   1.207  10.781 -0.2004 -0.4638  0.5028
  145SAPE    HX15900   1.643   1.169  10.756 -0.5279  0.9545 -0.3754
  145SAPE    HY15901   1.800   1.117  10.815  2.8836  0.9673 -0.5552
  145SAPE   O3115902   1.790   1.258  10.650 -0.5658 -0.0036 -0.9011
  145SAPE   C3115903   1.909   1.217  10.609  0.1367  0.3929  0.2711
  145SAPE   O3215904   1.972   1.131  10.668  0.2219  0.2149  0.1551
  145SAPE   C3215905   1.950   1.293  10.485  0.5193  0.3688 -0.0396
  145SAPE   H2X15906   2.061   1.306  10.490  0.3602  2.4246 -1.2785
  145SAPE   H2Y15907   1.893   1.388  10.478  2.5725  1.6495  0.0919
  145SAPE   C2315908   1.646   1.726  10.684 -0.0879 -0.3957 -0.5928
  145SAPE   H3R15909   1.746   1.737  10.638  0.1177 -2.1743 -0.6050
  145SAPE   H3S15910   1.617   1.832  10.701 -2.7644 -1.1649 -0.0889
  145SAPE   C2415911   1.543   1.672  10.593  0.5034  0.6956  0.1894
  145SAPE   H4R15912   1.512   1.744  10.514 -1.6787  1.2341  1.4928
  145SAPE   H4S15913   1.453   1.673  10.658 -0.1090 -2.6989 -0.5298
  145SAPE   C2515914   1.568   1.524  10.553 -0.0659  0.4489  0.3108
  145SAPE   H5R15915   1.615   1.459  10.628 -0.2059 -0.0010  0.0102
  145SAPE   C2615916   1.540   1.462  10.437  0.4859 -0.8183 -0.2099
  145SAPE   H6R15917   1.562   1.355  10.420  0.9024 -0.8048  0.2406
  145SAPE   C2715918   1.470   1.532  10.321 -0.0316 -0.0720  0.5314
  145SAPE   H7R15919   1.533   1.602  10.261  0.1984 -1.0911 -0.4400
  145SAPE   H7S15920   1.389   1.596  10.361 -0.3488 -0.0700 -0.1065
  145SAPE   C2815921   1.409   1.437  10.217 -0.1218 -0.6955 -0.2859
  145SAPE   H8R15922   1.318   1.390  10.257  0.9195 -1.2749  1.4464
  145SAPE   C2915923   1.454   1.410  10.096  0.3990  0.0256  0.5872
  145SAPE   H9R15924   1.397   1.338  10.035  0.0382 -0.5177  1.5564
  145SAPE  C21015925   1.581   1.462  10.040  0.6961  0.2685 -0.3597
  145SAPE  H10R15926   1.651   1.499  10.118  1.5434 -1.9195 -0.0620
  145SAPE  H10S15927   1.547   1.559   9.997  0.8315  0.5471  0.1588
  145SAPE  C21115928   1.660   1.387   9.931 -0.0189 -0.8052  0.1058
  145SAPE  H11R15929   1.739   1.318   9.965  1.1593 -0.9712 -2.7937
  145SAPE  C21215930   1.627   1.396   9.802 -0.6878  0.4452  0.4236
  145SAPE  H12R15931   1.680   1.328   9.734 -1.5231 -1.2165  1.4052
  145SAPE  C21315932   1.507   1.469   9.739 -0.5180  1.0170  0.6971
  145SAPE  H13R15933   1.529   1.577   9.725 -2.6254  1.1837 -1.7465
  145SAPE  H13S15934   1.423   1.460   9.811 -1.1713 -1.2909 -0.2961
  145SAPE  C21415935   1.459   1.396   9.614 -0.0785  0.2895  0.8290
  145SAPE  H14R15936   1.481   1.288   9.613 -0.7190  0.1469  1.6351
  145SAPE  C21515937   1.405   1.459   9.513  0.5405  0.1014 -0.3322
  145SAPE  H15R15938   1.382   1.394   9.427  0.4299 -0.4286  0.0969
  145SAPE  C21615939   1.364   1.599   9.486  0.0820  0.4045 -0.0732
  145SAPE  H16R15940   1.403   1.665   9.567 -1.8001 -0.4645  1.6078
  145SAPE  H16S15941   1.253   1.610   9.489 -0.2163 -2.3662  0.4994
  145SAPE  C21715942   1.433   1.653   9.356 -0.5028  0.4962 -0.8264
  145SAPE  H17R15943   1.536   1.612   9.347 -0.6189  0.3528 -1.5473
  145SAPE  H17S15944   1.429   1.763   9.366 -0.2971  0.6199 -2.0087
  145SAPE  C21815945   1.366   1.609   9.225 -0.4183 -0.2070  0.5981
  145SAPE  H18R15946   1.271   1.667   9.217 -0.3020 -0.1804 -0.6468
  145SAPE  H18S15947   1.334   1.505   9.244  1.4243 -0.5885  1.7200
  145SAPE  C21915948   1.456   1.612   9.105  0.9710 -0.1036  0.2612
  145SAPE  H19R15949   1.544   1.548   9.125  0.2394 -1.8022 -1.7581
  145SAPE  H19S15950   1.504   1.712   9.097 -1.0640  1.1441  2.8111
  145SAPE  C22015951   1.387   1.569   8.974  0.0433 -0.6235 -0.1169
  145SAPE  H20R15952   1.456   1.550   8.890 -0.3036  0.6580 -0.7102
  145SAPE  H20S15953   1.315   1.647   8.942  1.3624 -0.2743 -2.3823
  145SAPE  H20T15954   1.330   1.474   8.987  2.4004 -1.8978  1.2395
  145SAPE   C3315955   1.933   1.212  10.349 -0.0546  0.0413 -0.3306
  145SAPE   H3X15956   1.830   1.225  10.311  0.1767  2.3150 -0.2240
  145SAPE   H3Y15957   1.968   1.107  10.363  0.7642  0.1262 -1.6583
  145SAPE   C3415958   2.023   1.273  10.241  0.7072 -0.2521  0.0049
  145SAPE   H4X15959   2.131   1.255  10.257  1.0761  0.4048 -1.6248
  145SAPE   H4Y15960   2.013   1.383  10.253 -0.8476 -0.4247  0.4072
  145SAPE   C3515961   1.987   1.228  10.097  0.4066 -0.7585  1.0627
  145SAPE   H5X15962   1.878   1.206  10.102  0.7919 -2.4528  2.2336
  145SAPE   H5Y15963   2.022   1.126  10.075  1.2683 -0.4947  1.2017
  145SAPE   C3615964   2.010   1.329   9.985  0.1078  0.2583  0.4725
  145SAPE   H6X15965   2.115   1.365   9.995  1.0411 -1.4652 -2.6059
  145SAPE   H6Y15966   1.941   1.413  10.008  0.3652  0.9157 -1.0441
  145SAPE   C3715967   1.997   1.295   9.843 -0.2901  0.2312  0.2858
  145SAPE   H7X15968   1.895   1.253   9.829 -0.9819  0.9088  2.9436
  145SAPE   H7Y15969   2.059   1.212   9.803 -0.8511 -1.3196  2.5448
  145SAPE   C3815970   1.996   1.412   9.749 -0.4743  0.4491  0.5066
  145SAPE   H8X15971   2.088   1.470   9.770  1.3695 -2.9444  2.0781
  145SAPE   H8Y15972   1.910   1.477   9.777 -1.2834 -0.7000  0.7242
  145SAPE   C3915973   1.989   1.371   9.603  0.3326 -0.4094 -0.0215
  145SAPE   H9X15974   1.898   1.311   9.582  1.3099 -1.5891 -1.0456
  145SAPE   H9Y15975   2.072   1.297   9.591  1.2943  0.8261 -1.0535
  145SAPE  C31015976   2.000   1.491   9.511  0.9534  0.3355  0.0079
  145SAPE  H10X15977   2.053   1.576   9.558  0.4551  0.7832 -0.2343
  145SAPE  H10Y15978   1.894   1.520   9.495  0.6760 -0.5730  0.1247
  145SAPE  C31115979   2.044   1.446   9.369 -0.0187  0.7751 -0.5161
  145SAPE  H11X15980   2.003   1.344   9.352 -0.1752  0.4739  1.5086
  145SAPE  H11Y15981   2.155   1.447   9.361  0.1655  0.1852  1.5769
  145SAPE  C31215982   1.989   1.534   9.257  0.0518 -0.2263  0.4206
  145SAPE  H12X15983   2.033   1.635   9.271  0.1949 -0.2437  0.1049
  145SAPE  H12Y15984   1.879   1.546   9.270  0.4060  2.8849  1.0174
  145SAPE  C31315985   2.025   1.478   9.118 -0.5239  0.1025  0.2157
  145SAPE  H13X15986   1.982   1.547   9.042 -1.0646 -0.8909 -0.4033
  145SAPE  H13Y15987   1.982   1.376   9.107 -0.2003 -0.0550  0.4002
  145SAPE  C31415988   2.174   1.476   9.096 -0.0846 -0.8451  0.4223
  145SAPE  H14X15989   2.230   1.410   9.166  2.7600 -1.2181 -2.1345
  145SAPE  H14Y15990   2.213   1.575   9.129  1.7300 -1.2795 -0.3553
  145SAPE  C31515991   2.203   1.444   8.946 -0.8444 -0.5124  0.0812
  145SAPE  H15X15992   2.146   1.511   8.878  1.4991  1.2995 -0.1526
  145SAPE  H15Y15993   2.161   1.342   8.930 -1.1857 -0.0392 -2.2035
  145SAPE  C31615994   2.349   1.435   8.913  0.2379  0.1841  0.2219
  145SAPE  H16X15995   2.364   1.412   8.806  0.7723  2.4793 -0.2354
  145SAPE  H16Y15996   2.391   1.352   8.974 -0.6396 -0.9069 -0.6439
  145SAPE  C31715997   2.438   1.560   8.939  0.4517  0.6127 -0.1296
  145SAPE  H17X15998   2.448   1.587   9.046  1.9064 -1.5623  0.3141
  145SAPE  H17Y15999   2.404   1.658   8.899  1.1282  0.2713 -1.5625
  145SAPE  C31816000   2.587   1.550   8.893  0.4962 -0.5632 -0.2879
  145SAPE  H18X16001   2.639   1.642   8.927 -0.3246 -0.0522 -0.3949
  145SAPE  H18Y16002   2.592   1.549   8.782  0.9964 -0.5054 -0.2647
  145SAPE  H18Z16003   2.637   1.460   8.933  2.0876  0.5562  0.2590
  146SAPE     N16004   6.475   0.202  10.764  0.0568  0.0665  0.1285
  146SAPE   HN116005   6.467   0.301  10.796 -1.9801 -0.2251  0.5723
  146SAPE   HN216006   6.507   0.152  10.849  0.6378  0.5675  0.2087
  146SAPE   HN316007   6.548   0.199  10.690  1.6403  1.2747  1.5857
  146SAPE   C1216008   6.347   0.147  10.720 -0.4931 -0.0015 -0.2372
  146SAPE  H12A16009   6.294   0.122  10.815 -0.4597  0.2127 -0.1607
  146SAPE  H12B16010   6.368   0.054  10.664  0.0226  0.3015 -0.5533
  146SAPE   C1116011   6.272   0.247  10.636 -0.1473  0.0631  0.0634
  146SAPE  H11A16012   6.171   0.203  10.622  0.2414 -0.8663  0.1464
  146SAPE  H11B16013   6.331   0.269  10.544  0.3144 -2.2103 -0.2070
  146SAPE     P16014   6.123   0.410  10.790 -0.1166  0.4336  0.2957
  146SAPE   O1316015   6.040   0.290  10.809 -0.8050  0.3674 -0.4322
  146SAPE   O1416016   6.157   0.488  10.914  0.1614  0.0496 -0.5361
  146SAPE   O1216017   6.253   0.375  10.700  0.6020  0.0487  0.2347
  146SAPE   O1116018   6.051   0.511  10.690 -0.6109 -0.1787 -0.0581
  146SAPE    C116019   6.012   0.467  10.562  0.5507  0.0028  0.5129
  146SAPE    HA16020   6.106   0.432  10.515  1.4314 -0.5623  2.6364
  146SAPE    HB16021   5.945   0.379  10.569 -2.5335  2.1801 -0.7069
  146SAPE    C216022   5.943   0.576  10.477 -0.4455 -0.2000  0.4398
  146SAPE    HS16023   5.905   0.527  10.385 -1.5599  0.4565  0.5330
  146SAPE   O2116024   6.029   0.694  10.458  0.2941  0.1279 -0.1658
  146SAPE   C2116025   6.118   0.674  10.358  0.3963  0.2235 -0.2545
  146SAPE   O2216026   6.141   0.569  10.305  0.5396 -0.3241  0.1042
  146SAPE   C2216027   6.207   0.798  10.336 -0.5626 -0.0425 -0.7294
  146SAPE   H2R16028   6.143   0.889  10.343 -0.8561 -0.2072 -1.2405
  146SAPE   H2S16029   6.271   0.796  10.427  1.0002  0.4734 -1.8005
  146SAPE    C316030   5.812   0.630  10.549  0.3112  0.1054  0.5210
  146SAPE    HX16031   5.844   0.673  10.647 -2.6128  1.0591  1.0989
  146SAPE    HY16032   5.734   0.553  10.567  0.4069 -0.0173  0.4083
  146SAPE   O3116033   5.760   0.735  10.473  0.2850 -0.1191 -0.4557
  146SAPE   C3116034   5.741   0.850  10.531  0.3329 -0.6059 -0.3751
  146SAPE   O3216035   5.775   0.882  10.645 -0.7875 -0.4019 -0.3177
  146SAPE   C3216036   5.641   0.928  10.445 -0.3786  0.6753 -0.0265
  146SAPE   H2X16037   5.555   0.960  10.507 -2.1916 -2.0339 -1.0855
  146SAPE   H2Y16038   5.610   0.866  10.359 -0.8135  0.5878  0.1926
  146SAPE   C2316039   6.286   0.789  10.203 -0.7112 -0.0322 -0.6753
  146SAPE   H3R16040   6.224   0.785  10.110 -1.5112  0.7367 -0.1880
  146SAPE   H3S16041   6.362   0.709  10.195  0.9046  1.3169  0.9196
  146SAPE   C2416042   6.357   0.926  10.180 -0.2647 -0.0825  0.2556
  146SAPE   H4R16043   6.428   0.927  10.264 -1.0690  1.7741  0.9317
  146SAPE   H4S16044   6.285   1.009  10.194  0.6453  0.6846  0.4003
  146SAPE   C2516045   6.441   0.941  10.056 -0.5232 -0.9807  0.0404
  146SAPE   H5R16046   6.530   0.876  10.060  2.2197  2.7091  1.7186
  146SAPE   C2616047   6.422   1.032   9.953  0.3657  0.2347  0.0226
  146SAPE   H6R16048   6.498   1.037   9.874 -0.6722  0.6004 -0.9743
  146SAPE   C2716049   6.310   1.134   9.940  0.2261  0.5644  0.8335
  146SAPE   H7R16050   6.246   1.145  10.030 -1.6678 -1.2896 -0.2651
  146SAPE   H7S16051   6.241   1.098   9.861  0.4209 -0.7567  1.2649
  146SAPE   C2816052   6.363   1.267   9.913  0.3338  0.1430  0.3980
  146SAPE   H8R16053   6.398   1.328   9.997 -2.0753  0.0501  1.5093
  146SAPE   C2916054   6.398   1.324   9.794 -0.1143  0.2556  0.1783
  146SAPE   H9R16055   6.452   1.420   9.790 -0.3325  0.3568 -0.4068
  146SAPE  C21016056   6.412   1.252   9.661  0.0594  0.4096  0.0786
  146SAPE  H10R16057   6.359   1.155   9.661  0.6319 -0.0002  4.0310
  146SAPE  H10S16058   6.522   1.245   9.643 -0.0311 -0.7102 -0.0836
  146SAPE  C21116059   6.354   1.334   9.541 -0.5607  0.0090  0.3474
  146SAPE  H11R16060   6.287   1.419   9.560 -2.2332 -0.7519 -1.8237
  146SAPE  C21216061   6.383   1.302   9.412 -0.6199  0.2273  0.9021
  146SAPE  H12R16062   6.342   1.361   9.329 -0.1452 -1.3622 -0.4727
  146SAPE  C21316063   6.462   1.175   9.377  0.3109 -0.1138 -0.4632
  146SAPE  H13R16064   6.425   1.102   9.453 -0.2770  0.3576 -0.2894
  146SAPE  H13S16065   6.569   1.192   9.399  0.0785  3.3158 -1.6886
  146SAPE  C21416066   6.440   1.113   9.239  0.1223  0.0115 -0.1298
  146SAPE  H14R16067   6.335   1.124   9.207  0.7585 -1.4956 -2.8841
  146SAPE  C21516068   6.527   1.028   9.174  0.0614 -0.2867  0.1327
  146SAPE  H15R16069   6.507   0.993   9.072 -0.2297  2.3769 -0.7862
  146SAPE  C21616070   6.653   0.979   9.227  0.2840 -0.4478  0.7228
  146SAPE  H16R16071   6.653   0.927   9.325 -1.5100  0.3529  1.1700
  146SAPE  H16S16072   6.727   1.062   9.233  1.5118 -1.3707 -1.2050
  146SAPE  C21716073   6.715   0.886   9.111  0.2752  0.3876 -0.1600
  146SAPE  H17R16074   6.714   0.939   9.013  1.2059 -2.0332 -1.5562
  146SAPE  H17S16075   6.648   0.801   9.084 -0.3739  1.1072 -0.8533
  146SAPE  C21816076   6.850   0.828   9.146  0.0495 -0.4012  0.8641
  146SAPE  H18R16077   6.829   0.746   9.218  0.6122 -0.6825  0.7098
  146SAPE  H18S16078   6.909   0.910   9.191 -2.4475  1.8880  0.0808
  146SAPE  C21916079   6.934   0.782   9.026 -0.9302  0.4798 -0.3012
  146SAPE  H19R16080   6.920   0.856   8.945  0.6476  0.6012 -0.4755
  146SAPE  H19S16081   6.893   0.685   8.992  0.1254  0.1217 -0.5482
  146SAPE  C22016082   7.082   0.764   9.051 -0.1536  0.5279  0.0912
  146SAPE  H20R16083   7.096   0.710   9.147  0.1702  0.1502 -0.1681
  146SAPE  H20S16084   7.124   0.867   9.060 -2.2174  1.3737  0.5805
  146SAPE  H20T16085   7.127   0.706   8.969 -0.3239  0.8710 -0.2483
  146SAPE   C3316086   5.721   1.052  10.392 -0.1073 -0.2090 -0.3102
  146SAPE   H3X16087   5.767   1.100  10.481  1.4803 -1.8183 -0.2353
  146SAPE   H3Y16088   5.649   1.128  10.354  1.3843  1.5490  0.3185
  146SAPE   C3416089   5.838   1.020  10.304  0.3848 -0.5849 -0.9133
  146SAPE   H4X16090   5.919   0.971  10.362  2.2907  1.0054 -2.1683
  146SAPE   H4Y16091   5.879   1.111  10.256  0.0034  0.8434  1.3845
  146SAPE   C3516092   5.811   0.923  10.194 -0.7530 -0.2908 -0.1884
  146SAPE   H5X16093   5.705   0.931  10.161 -0.8517 -1.8027 -0.2453
  146SAPE   H5Y16094   5.835   0.820  10.228 -1.2858 -0.0269  1.0077
  146SAPE   C3616095   5.903   0.954  10.074  0.2324  0.0048 -0.6817
  146SAPE   H6X16096   6.005   0.972  10.114  0.2652 -2.7016  0.5875
  146SAPE   H6Y16097   5.861   1.041  10.018 -0.1373  0.0632 -0.3160
  146SAPE   C3716098   5.910   0.835   9.978 -0.4125  0.2416 -0.9419
  146SAPE   H7X16099   5.818   0.819   9.918  0.2138  0.7921 -2.0701
  146SAPE   H7Y16100   5.932   0.747  10.042 -0.8572  0.6948 -0.1476
  146SAPE   C3816101   6.021   0.829   9.886  0.4310 -0.9240 -0.2695
  146SAPE   H8X16102   6.051   0.723   9.870 -0.0650 -1.0324 -0.4929
  146SAPE   H8Y16103   6.111   0.883   9.923  0.4773  0.0207 -1.7565
  146SAPE   C3916104   5.992   0.895   9.741 -0.1806 -1.1821 -0.5870
  146SAPE   H9X16105   5.912   0.834   9.694 -0.7321 -0.2702 -0.8445
  146SAPE   H9Y16106   6.087   0.887   9.685  0.6193 -0.5731  0.6607
  146SAPE  C31016107   5.949   1.041   9.740  0.1510  0.6966  0.1494
  146SAPE  H10X16108   6.006   1.100   9.815 -1.3089  1.3812  0.7462
  146SAPE  H10Y16109   5.843   1.036   9.774  0.1706 -0.3782  0.0826
  146SAPE  C31116110   5.970   1.113   9.605  0.1256 -0.0051 -0.0464
  146SAPE  H11X16111   5.932   1.057   9.517 -0.5980  2.9982 -1.7313
  146SAPE  H11Y16112   6.079   1.130   9.587  0.3568 -0.2837  1.0516
  146SAPE  C31216113   5.900   1.250   9.605  0.2623 -0.5772 -0.2555
  146SAPE  H12X16114   5.965   1.306   9.676  1.0592 -0.0133 -1.4215
  146SAPE  H12Y16115   5.796   1.247   9.643  1.0386  1.3946  2.1458
  146SAPE  C31316116   5.894   1.300   9.460 -0.4431 -0.1696  0.6122
  146SAPE  H13X16117   5.834   1.241   9.388  0.5405  0.3769 -0.6868
  146SAPE  H13Y16118   5.994   1.302   9.412  0.8468 -0.5710  3.2053
  146SAPE  C31416119   5.849   1.442   9.453  0.3834 -0.1604 -0.4955
  146SAPE  H14X16120   5.911   1.508   9.518 -1.3110 -1.1396  2.1976
  146SAPE  H14Y16121   5.740   1.443   9.476  0.7323  0.1762  1.1892
  146SAPE  C31516122   5.864   1.501   9.308 -0.5936 -0.2317  0.4477
  146SAPE  H15X16123   5.850   1.418   9.236  1.4436  0.7927 -1.1653
  146SAPE  H15Y16124   5.966   1.545   9.306 -0.8218  0.2865  0.1039
  146SAPE  C31616125   5.763   1.615   9.277  0.2385  0.1671  0.2517
  146SAPE  H16X16126   5.798   1.702   9.337  0.5093  1.8658 -2.3057
  146SAPE  H16Y16127   5.663   1.576   9.305  0.5037  0.1435  1.1793
  146SAPE  C31716128   5.772   1.653   9.125 -0.1210  0.6292  0.7004
  146SAPE  H17X16129   5.747   1.568   9.058  1.0196 -0.1095  1.1897
  146SAPE  H17Y16130   5.882   1.665   9.114 -0.1842  0.3910 -0.2185
  146SAPE  C31816131   5.705   1.780   9.077 -0.4493  0.5734 -0.1140
  146SAPE  H18X16132   5.711   1.850   9.163 -4.1402  1.4963 -0.4945
  146SAPE  H18Y16133   5.597   1.770   9.054 -0.4583 -1.3726  0.6894
  146SAPE  H18Z16134   5.760   1.825   8.991  0.7413 -1.5904 -0.5072
  147SAPE     N16135   2.617   6.128   6.141  0.6284 -0.3458  0.1828
  147SAPE   HN116136   2.665   6.056   6.198  2.3316  0.9719  0.4534
  147SAPE   HN216137   2.680   6.160   6.065 -0.2224  0.0675 -0.3615
  147SAPE   HN316138   2.608   6.203   6.213  0.5709  0.0892 -0.2696
  147SAPE   C1216139   2.483   6.084   6.095  0.1126  0.3498 -0.1563
  147SAPE  H12A16140   2.494   5.999   6.025 -2.1155  0.4117 -0.5986
  147SAPE  H12B16141   2.443   6.166   6.032 -0.0461 -0.1783 -0.7544
  147SAPE   C1116142   2.399   6.036   6.211 -0.3266  0.2899  0.0900
  147SAPE  H11A16143   2.292   6.026   6.183 -0.0943 -1.3612 -0.2557
  147SAPE  H11B16144   2.410   6.121   6.283 -0.1388  0.8643 -0.6099
  147SAPE     P16145   2.411   5.850   6.386  0.4266 -0.3202 -0.3322
  147SAPE   O1316146   2.273   5.793   6.364 -0.2708 -0.6509 -0.5029
  147SAPE   O1416147   2.517   5.756   6.431  0.3571 -0.2740  0.1280
  147SAPE   O1216148   2.460   5.920   6.259 -0.7344  0.1550 -0.6310
  147SAPE   O1116149   2.403   5.968   6.486  0.2366 -0.5154  0.0804
  147SAPE    C116150   2.494   6.008   6.585  0.6809 -0.1008  0.0486
  147SAPE    HA16151   2.597   5.968   6.575 -0.0902 -2.6146  1.6733
  147SAPE    HB16152   2.493   6.119   6.593  1.7742 -0.1107  0.4142
  147SAPE    C216153   2.454   5.962   6.731 -0.3404  0.0752 -0.1505
  147SAPE    HS16154   2.545   5.983   6.791  0.7806  1.6936 -2.3688
  147SAPE   O2116155   2.418   5.824   6.737 -0.1656  0.1331  0.4469
  147SAPE   C2116156   2.524   5.742   6.739 -0.0433 -1.3140 -0.2762
  147SAPE   O2216157   2.639   5.774   6.761  0.3025  0.0100  0.2864
  147SAPE   C2216158   2.476   5.598   6.719  0.0848 -0.0389  0.4469
  147SAPE   H2R16159   2.377   5.585   6.768 -0.5489  0.4692 -0.6927
  147SAPE   H2S16160   2.445   5.591   6.613  0.7370 -0.5445  0.2838
  147SAPE    C316161   2.343   6.047   6.805 -0.1274  0.1247  0.1948
  147SAPE    HX16162   2.254   6.031   6.740  0.6728 -0.0755 -0.8543
  147SAPE    HY16163   2.372   6.151   6.781 -0.0787  0.0657  0.0016
  147SAPE   O3116164   2.342   6.008   6.946  0.1861  0.8221  1.0056
  147SAPE   C3116165   2.417   6.084   7.026  0.5156 -0.3831 -0.0784
  147SAPE   O3216166   2.499   6.172   6.994 -0.3122  0.3378 -0.1863
  147SAPE   C3216167   2.410   6.016   7.163  0.0116 -0.1065  0.2028
  147SAPE   H2X16168   2.484   5.937   7.138  0.0656 -0.0231  0.0996
  147SAPE   H2Y16169   2.315   5.962   7.184  0.0440  0.7192  2.5704
  147SAPE   C2316170   2.565   5.491   6.772  0.2498 -0.5926  0.1218
  147SAPE   H3R16171   2.607   5.515   6.873  0.5529 -1.9769  0.3402
  147SAPE   H3S16172   2.650   5.476   6.702  0.7849  0.6288  0.4843
  147SAPE   C2416173   2.487   5.357   6.768  0.6171 -0.1841  0.1012
  147SAPE   H4R16174   2.450   5.334   6.665  2.3798 -0.4299 -0.4982
  147SAPE   H4S16175   2.390   5.345   6.822  0.8698  1.1421  0.8520
  147SAPE   C2516176   2.584   5.246   6.801 -0.2004  0.1130  0.4417
  147SAPE   H5R16177   2.631   5.206   6.710 -1.1453 -0.1592  0.0626
  147SAPE   C2616178   2.609   5.187   6.922  0.3056 -0.7521 -0.1173
  147SAPE   H6R16179   2.691   5.114   6.933  1.6227  0.7735  0.3645
  147SAPE   C2716180   2.552   5.229   7.053 -0.3725 -0.1258  0.3597
  147SAPE   H7R16181   2.500   5.140   7.093 -3.7248  1.7193  0.2816
  147SAPE   H7S16182   2.476   5.309   7.046 -1.5223 -1.1771  0.6400
  147SAPE   C2816183   2.656   5.271   7.154 -0.6220 -0.5251 -1.2411
  147SAPE   H8R16184   2.724   5.349   7.116  1.1000 -2.8101 -2.9744
  147SAPE   C2916185   2.689   5.216   7.281 -0.2612  0.0502  0.4484
  147SAPE   H9R16186   2.771   5.263   7.337  0.0803  1.2109 -0.9797
  147SAPE  C21016187   2.617   5.105   7.344 -0.5109 -0.3611  0.6154
  147SAPE  H10R16188   2.516   5.088   7.300 -0.4319 -0.9605  0.6607
  147SAPE  H10S16189   2.605   5.141   7.449  0.3513 -2.2463  1.3827
  147SAPE  C21116190   2.704   4.982   7.337  1.3211 -0.0676  0.3420
  147SAPE  H11R16191   2.711   4.967   7.228 -2.6950  1.3328 -0.1753
  147SAPE  C21216192   2.743   4.881   7.425  0.4303 -0.5242 -0.3441
  147SAPE  H12R16193   2.775   4.786   7.380  1.2554 -0.2239 -0.3948
  147SAPE  C21316194   2.717   4.865   7.574  0.5036  0.8346  0.2328
  147SAPE  H13R16195   2.754   4.965   7.606 -0.9590  1.8443 -1.1265
  147SAPE  H13S16196   2.783   4.787   7.618 -1.1547 -0.2247  0.8601
  147SAPE  C21416197   2.577   4.849   7.621 -0.2018  0.1536  0.6113
  147SAPE  H14R16198   2.497   4.846   7.545  0.4561  1.1440 -0.1457
  147SAPE  C21516199   2.547   4.846   7.752 -0.1352  0.6848 -0.1835
  147SAPE  H15R16200   2.447   4.817   7.787  0.9707 -1.5985  1.2784
  147SAPE  C21616201   2.638   4.871   7.867 -0.9225 -0.2593 -0.6407
  147SAPE  H16R16202   2.616   4.977   7.889 -1.1202 -0.1935 -1.1413
  147SAPE  H16S16203   2.745   4.852   7.848 -1.5131 -0.6935 -3.8799
  147SAPE  C21716204   2.601   4.793   8.001  0.4634  0.4381  0.6490
  147SAPE  H17R16205   2.603   4.688   7.965 -0.6631  0.8296 -0.6240
  147SAPE  H17S16206   2.496   4.813   8.032  0.3138  0.5774  0.0699
  147SAPE  C21816207   2.694   4.816   8.121 -0.0640 -0.1130  0.6437
  147SAPE  H18R16208   2.801   4.800   8.099  0.0384  1.0374  0.2673
  147SAPE  H18S16209   2.673   4.734   8.193  0.0530  0.7664  1.7082
  147SAPE  C21916210   2.678   4.950   8.182 -0.3245  1.2810  0.0684
  147SAPE  H19R16211   2.570   4.973   8.195 -0.6856 -1.2580  1.8267
  147SAPE  H19S16212   2.733   5.019   8.114 -0.5667  2.5299  1.1116
  147SAPE  C22016213   2.748   4.954   8.315  0.0865  0.7779 -0.2941
  147SAPE  H20R16214   2.857   4.975   8.310 -0.2079  2.8064  1.2097
  147SAPE  H20S16215   2.744   4.853   8.360 -0.6359  0.7978 -0.3082
  147SAPE  H20T16216   2.706   5.027   8.388  2.3785  1.4900  0.3437
  147SAPE   C3316217   2.464   6.097   7.277  0.7594  0.3059  0.1905
  147SAPE   H3X16218   2.421   6.198   7.264 -2.2722 -1.2083 -2.1356
  147SAPE   H3Y16219   2.575   6.105   7.277  0.7938 -0.1594  0.3197
  147SAPE   C3416220   2.428   6.032   7.413 -0.1877  0.1600  0.0302
  147SAPE   H4X16221   2.457   5.926   7.395  0.3917  0.2824  0.2342
  147SAPE   H4Y16222   2.318   6.040   7.428 -0.0364  0.9621  0.7606
  147SAPE   C3516223   2.507   6.082   7.531 -1.0642 -0.1865  0.3033
  147SAPE   H5X16224   2.617   6.072   7.519 -0.6942  0.8389  2.6498
  147SAPE   H5Y16225   2.487   6.021   7.622  0.1455 -1.3591 -0.2006
  147SAPE   C3616226   2.478   6.231   7.553  0.0938 -0.7831 -0.0497
  147SAPE   H6X16227   2.368   6.248   7.548  0.2162  0.2492  0.6200
  147SAPE   H6Y16228   2.518   6.292   7.469 -0.5575 -1.2387 -0.6991
  147SAPE   C3716229   2.520   6.280   7.693  0.0147 -0.2211  0.4179
  147SAPE   H7X16230   2.629   6.301   7.696 -0.0574  0.1700  0.4059
  147SAPE   H7Y16231   2.494   6.213   7.777 -1.1287  1.0081  1.0688
  147SAPE   C3816232   2.451   6.414   7.728  0.2884 -0.1778 -0.1204
  147SAPE   H8X16233   2.342   6.393   7.720 -0.1676  2.3873 -1.0413
  147SAPE   H8Y16234   2.461   6.490   7.648 -0.1989  1.0618  0.9706
  147SAPE   C3916235   2.512   6.475   7.858  0.0946  0.1400  0.4654
  147SAPE   H9X16236   2.453   6.567   7.878 -1.5106 -1.0512  1.4236
  147SAPE   H9Y16237   2.618   6.502   7.843  0.7808 -1.5424  2.1687
  147SAPE  C31016238   2.493   6.391   7.980 -0.1002 -0.6243 -0.5428
  147SAPE  H10X16239   2.536   6.291   7.955  0.2942 -0.9348  1.2894
  147SAPE  H10Y16240   2.391   6.372   8.020  1.1476 -3.8409  1.2756
  147SAPE  C31116241   2.559   6.458   8.106  0.6750 -0.3425  0.1977
  147SAPE  H11X16242   2.489   6.543   8.122 -1.2176 -1.9161  0.3601
  147SAPE  H11Y16243   2.656   6.505   8.078  1.1183 -0.4092  1.5801
  147SAPE  C31216244   2.564   6.374   8.232 -0.3707  0.1179 -0.3271
  147SAPE  H12X16245   2.612   6.275   8.216 -2.4416 -0.7971 -1.0253
  147SAPE  H12Y16246   2.461   6.357   8.269 -0.5146 -0.6269 -1.0514
  147SAPE  C31316247   2.644   6.444   8.339  0.0023  0.0890 -0.6512
  147SAPE  H13X16248   2.746   6.478   8.310 -0.0586 -0.8507 -2.0565
  147SAPE  H13Y16249   2.653   6.382   8.431 -0.7152  3.0209  1.4626
  147SAPE  C31416250   2.576   6.573   8.398 -0.2934 -0.0242  0.2573
  147SAPE  H14X16251   2.491   6.529   8.455  1.9830 -3.8913  0.8571
  147SAPE  H14Y16252   2.549   6.645   8.319 -0.9309 -0.5723 -0.0340
  147SAPE  C31516253   2.672   6.646   8.493 -0.0903  0.5122  0.4416
  147SAPE  H15X16254   2.759   6.677   8.432  1.7611 -0.4020  2.5654
  147SAPE  H15Y16255   2.714   6.567   8.557 -1.1994 -0.3546  0.1175
  147SAPE  C31616256   2.631   6.763   8.583  1.0850  0.3613  0.1673
  147SAPE  H16X16257   2.709   6.767   8.662 -0.3166  0.8592  1.5508
  147SAPE  H16Y16258   2.544   6.739   8.648  1.0562 -0.7437 -0.2666
  147SAPE  C31716259   2.608   6.894   8.511 -0.0582 -0.2339 -0.1621
  147SAPE  H17X16260   2.506   6.885   8.469 -0.1837  0.9707 -0.1255
  147SAPE  H17Y16261   2.690   6.903   8.437  1.0446 -0.8900  0.9473
  147SAPE  C31816262   2.607   7.015   8.612 -0.2400 -0.5468 -0.4413
  147SAPE  H18X16263   2.574   7.111   8.567  0.1927 -0.5400 -0.7501
  147SAPE  H18Y16264   2.714   7.021   8.642  0.1489  1.0328 -2.0585
  147SAPE  H18Z16265   2.549   7.000   8.706 -2.7422  1.7565 -1.5665
  148SAPE     N16266   2.519   3.632   6.570 -0.2984 -0.2319 -0.4045
  148SAPE   HN116267   2.583   3.692   6.514  0.1007 -1.3673 -1.1917
  148SAPE   HN216268   2.554   3.631   6.668 -0.8369  0.6138 -0.2031
  148SAPE   HN316269   2.528   3.538   6.526 -2.2585 -1.0487  0.8811
  148SAPE   C1216270   2.380   3.684   6.550 -0.1658 -0.6589 -0.6673
  148SAPE  H12A16271   2.317   3.638   6.628  0.3315 -0.6654 -0.2698
  148SAPE  H12B16272   2.357   3.652   6.446  1.6146 -1.8460 -0.7181
  148SAPE   C1116273   2.364   3.832   6.573 -0.9955  0.5550 -0.3939
  148SAPE  H11A16274   2.366   3.847   6.683  1.0336 -0.3396 -0.2919
  148SAPE  H11B16275   2.265   3.866   6.535 -1.0897 -0.6710 -1.2823
  148SAPE     P16276   2.475   4.062   6.535  0.0201 -0.1011  0.1033
  148SAPE   O1316277   2.589   4.130   6.478  0.3229 -0.2129 -0.2716
  148SAPE   O1416278   2.352   4.125   6.481  0.2135  0.6089  0.5382
  148SAPE   O1216279   2.470   3.905   6.503 -0.4988  0.8728  0.3055
  148SAPE   O1116280   2.475   4.075   6.690  0.2151 -0.1606 -0.1665
  148SAPE    C116281   2.593   4.034   6.760 -0.9004 -0.7738  0.2516
  148SAPE    HA16282   2.596   3.923   6.765 -0.7592 -0.8360 -1.0946
  148SAPE    HB16283   2.688   4.068   6.713 -1.2649 -1.8555 -1.3107
  148SAPE    C216284   2.605   4.087   6.912 -0.3119 -0.2695  0.3129
  148SAPE    HS16285   2.681   4.028   6.968 -0.2294 -1.3198 -0.8678
  148SAPE   O2116286   2.473   4.075   6.973 -0.6305  0.3902 -0.4124
  148SAPE   C2116287   2.411   3.952   6.970 -0.2773 -0.1575  0.1608
  148SAPE   O2216288   2.471   3.846   6.942 -0.5759  0.0977 -0.3885
  148SAPE   C2216289   2.266   3.974   7.020 -0.1269  0.0587 -0.0611
  148SAPE   H2R16290   2.214   4.032   6.941 -0.5246 -1.4957 -0.9620
  148SAPE   H2S16291   2.215   3.876   7.031  0.0881 -0.0196  0.2416
  148SAPE    C316292   2.654   4.238   6.916 -0.7657  0.6683  0.2531
  148SAPE    HX16293   2.565   4.296   6.884 -1.0871  0.7474  1.2826
  148SAPE    HY16294   2.732   4.250   6.837 -0.3511 -0.7944  0.4153
  148SAPE   O3116295   2.721   4.277   7.039  0.2144  0.1935 -0.2043
  148SAPE   C3116296   2.644   4.310   7.143  0.1172 -0.3309  0.0340
  148SAPE   O3216297   2.526   4.333   7.143 -0.4970 -0.0354  0.4089
  148SAPE   C3216298   2.732   4.301   7.271 -0.7449  0.4914  0.8342
  148SAPE   H2X16299   2.815   4.373   7.257  1.4055 -2.0341  0.0586
  148SAPE   H2Y16300   2.761   4.197   7.297 -0.2543  0.9216  2.0495
  148SAPE   C2316301   2.268   4.021   7.165 -0.2386  0.4663 -0.3125
  148SAPE   H3R16302   2.169   4.065   7.189  0.3623  1.5648  0.1687
  148SAPE   H3S16303   2.342   4.100   7.188  0.8031 -0.4570 -0.4474
  148SAPE   C2416304   2.277   3.901   7.261 -0.2458  0.8112  0.9381
  148SAPE   H4R16305   2.356   3.828   7.234 -0.9371  0.6756 -0.7931
  148SAPE   H4S16306   2.184   3.842   7.245 -1.1283  1.8584  2.1240
  148SAPE   C2516307   2.281   3.934   7.401  0.2373 -0.2395 -0.3618
  148SAPE   H5R16308   2.189   3.917   7.459  0.3617  1.1425  0.2787
  148SAPE   C2616309   2.390   3.970   7.469 -0.2909 -0.2982  0.1733
  148SAPE   H6R16310   2.373   3.993   7.575  0.4865 -1.7834  0.6276
  148SAPE   C2716311   2.533   3.972   7.412 -0.0992 -0.6146 -0.4432
  148SAPE   H7R16312   2.578   4.067   7.447  1.3478 -1.9048  1.3238
  148SAPE   H7S16313   2.536   3.974   7.301 -0.3895  1.0721 -0.4310
  148SAPE   C2816314   2.613   3.853   7.452  0.8399 -0.9352  0.1242
  148SAPE   H8R16315   2.643   3.784   7.372  0.0754 -0.7791 -0.3009
  148SAPE   C2916316   2.655   3.826   7.578 -0.6822 -0.9805  0.4493
  148SAPE   H9R16317   2.707   3.734   7.606 -1.1328 -0.8987  1.5492
  148SAPE  C21016318   2.639   3.927   7.691 -0.0357  0.3123  0.3361
  148SAPE  H10R16319   2.571   3.883   7.768 -2.0520  0.8031 -1.1273
  148SAPE  H10S16320   2.578   4.016   7.664  1.3023  0.8473 -0.9729
  148SAPE  C21116321   2.762   3.975   7.764  0.0884 -1.1714 -0.5260
  148SAPE  H11R16322   2.843   3.972   7.690  0.8658  1.2618  0.2000
  148SAPE  C21216323   2.770   4.024   7.885 -0.9638 -0.2150  0.3842
  148SAPE  H12R16324   2.871   4.054   7.917 -1.0739 -0.9425  1.4433
  148SAPE  C21316325   2.653   4.020   7.986 -0.6954 -0.5376  0.6111
  148SAPE  H13R16326   2.612   3.917   7.995  0.5732 -1.0245  0.8069
  148SAPE  H13S16327   2.566   4.075   7.943 -0.2225 -0.8443 -0.7521
  148SAPE  C21416328   2.679   4.066   8.128 -0.3337 -0.6172  0.1378
  148SAPE  H14R16329   2.758   4.141   8.142 -0.4965  0.0465 -2.2555
  148SAPE  C21516330   2.615   4.019   8.238 -0.4266  0.2590 -0.2104
  148SAPE  H15R16331   2.656   4.068   8.328  1.0394 -1.1299 -0.0924
  148SAPE  C21616332   2.504   3.916   8.244  0.0030 -0.7621  0.1216
  148SAPE  H16R16333   2.451   3.896   8.149  0.2670 -1.5351  0.1285
  148SAPE  H16S16334   2.434   3.965   8.314  0.5192  1.2604 -0.7407
  148SAPE  C21716335   2.548   3.789   8.312  0.5550 -0.1435  0.6216
  148SAPE  H17R16336   2.657   3.775   8.297  0.4630  0.6984 -1.0304
  148SAPE  H17S16337   2.499   3.705   8.259  1.7708 -0.2056 -0.4452
  148SAPE  C21816338   2.508   3.780   8.467 -0.3896 -0.0459 -0.5304
  148SAPE  H18R16339   2.399   3.765   8.480 -0.0994 -0.6667  1.3733
  148SAPE  H18S16340   2.539   3.875   8.515 -1.9485 -0.7203  1.8755
  148SAPE  C21916341   2.572   3.658   8.536  0.4505 -0.3236 -0.3279
  148SAPE  H19R16342   2.538   3.639   8.640 -1.1597  0.5447 -0.6728
  148SAPE  H19S16343   2.681   3.673   8.548  0.3074  1.6877 -1.3125
  148SAPE  C22016344   2.566   3.524   8.460 -0.0563  0.3833 -0.0249
  148SAPE  H20R16345   2.606   3.437   8.517 -1.3902 -1.8740 -2.4362
  148SAPE  H20S16346   2.619   3.516   8.363 -3.2049 -2.7267 -1.6207
  148SAPE  H20T16347   2.463   3.492   8.435  0.0232 -0.8973  1.2287
  148SAPE   C3316348   2.655   4.367   7.392  0.5609  0.1351  0.8757
  148SAPE   H3X16349   2.573   4.299   7.422  0.0980  0.2744 -0.0338
  148SAPE   H3Y16350   2.606   4.463   7.366 -0.3487 -0.3324  0.8582
  148SAPE   C3416351   2.741   4.392   7.509  0.3549  0.0104 -0.4135
  148SAPE   H4X16352   2.810   4.476   7.491 -1.6111  1.5032 -1.1797
  148SAPE   H4Y16353   2.793   4.299   7.540 -1.9011 -1.9563 -2.2424
  148SAPE   C3516354   2.641   4.438   7.620 -0.0506  0.3766 -0.0827
  148SAPE   H5X16355   2.572   4.353   7.639  0.8176 -0.7763 -1.9671
  148SAPE   H5Y16356   2.577   4.515   7.571 -1.3117  0.3775  1.5232
  148SAPE   C3616357   2.707   4.493   7.743  0.3408 -0.1515  0.1145
  148SAPE   H6X16358   2.629   4.534   7.811  0.9354  0.1771  0.6084
  148SAPE   H6Y16359   2.773   4.578   7.714  1.5136 -1.4841 -1.2385
  148SAPE   C3716360   2.780   4.392   7.838 -0.1846  0.0953  0.6033
  148SAPE   H7X16361   2.866   4.343   7.786 -1.8727 -2.1609 -0.1332
  148SAPE   H7Y16362   2.706   4.311   7.853 -1.3721  0.3641 -3.1192
  148SAPE   C3816363   2.835   4.464   7.961  0.2129 -0.6359 -0.6463
  148SAPE   H8X16364   2.737   4.470   8.014 -0.1708  0.3873 -1.4491
  148SAPE   H8Y16365   2.860   4.571   7.947 -1.4294 -0.4590 -2.4365
  148SAPE   C3916366   2.925   4.375   8.060  0.4632 -0.0527  0.4477
  148SAPE   H9X16367   3.029   4.365   8.022  0.0073 -1.9259 -0.3794
  148SAPE   H9Y16368   2.878   4.275   8.053  1.3043 -0.3635 -0.9893
  148SAPE  C31016369   2.923   4.439   8.205  1.0729  0.2539  1.1732
  148SAPE  H10X16370   2.826   4.491   8.221  1.2004  1.7613 -2.3363
  148SAPE  H10Y16371   3.006   4.511   8.218  1.6627  0.3191 -2.3541
  148SAPE  C31116372   2.923   4.328   8.316  0.3031  0.2366  0.2738
  148SAPE  H11X16373   3.003   4.254   8.295  0.3895  0.5991 -0.7126
  148SAPE  H11Y16374   2.828   4.269   8.319 -0.1920  1.0826  2.1891
  148SAPE  C31216375   2.949   4.384   8.457 -0.0085  0.3898 -0.4521
  148SAPE  H12X16376   3.045   4.438   8.443 -0.4069  0.5254 -2.8707
  148SAPE  H12Y16377   2.966   4.309   8.537 -0.2954 -0.9200 -1.6074
  148SAPE  C31316378   2.833   4.478   8.498  0.4502 -0.6133 -1.2063
  148SAPE  H13X16379   2.733   4.432   8.479  0.0632 -1.1839  1.9757
  148SAPE  H13Y16380   2.838   4.553   8.416 -2.4306  0.7505 -0.2109
  148SAPE  C31416381   2.824   4.531   8.641  0.0737  0.0131 -0.2161
  148SAPE  H14X16382   2.918   4.589   8.656 -1.7492  2.7949  0.9203
  148SAPE  H14Y16383   2.809   4.460   8.725 -2.2929 -1.1605 -1.5685
  148SAPE  C31516384   2.705   4.639   8.646  0.1870  0.0343  0.0278
  148SAPE  H15X16385   2.603   4.595   8.645  0.0201  0.3899  0.7550
  148SAPE  H15Y16386   2.708   4.684   8.544 -0.2755 -2.4783 -1.1356
  148SAPE  C31616387   2.698   4.730   8.770 -0.2384  0.5053 -0.3440
  148SAPE  H16X16388   2.777   4.808   8.764  0.0194  0.4771  1.9237
  148SAPE  H16Y16389   2.725   4.666   8.857  0.9170  0.3047 -0.8462
  148SAPE  C31716390   2.566   4.809   8.774  0.0502 -0.1540  0.1800
  148SAPE  H17X16391   2.559   4.870   8.867  0.6479 -0.0252  0.1462
  148SAPE  H17Y16392   2.487   4.733   8.791 -0.3596  0.1729 -0.2757
  148SAPE  C31816393   2.544   4.903   8.658 -0.2300  0.2461 -0.4963
  148SAPE  H18X16394   2.440   4.941   8.659 -0.5672 -0.6950  0.8543
  148SAPE  H18Y16395   2.554   4.847   8.563 -0.0328  0.8234 -0.8220
  148SAPE  H18Z16396   2.614   4.988   8.639 -0.7774  0.1840 -2.8562
  149SAPE     N16397   2.330   4.159   6.200 -0.3371 -0.4278 -0.7912
  149SAPE   HN116398   2.289   4.065   6.185 -0.3986 -0.3766 -0.9479
  149SAPE   HN216399   2.423   4.172   6.156  0.2782  0.2396  0.6666
  149SAPE   HN316400   2.351   4.169   6.302 -1.9377  0.3638 -0.5236
  149SAPE   C1216401   2.246   4.272   6.154 -0.4619  0.5761  0.3505
  149SAPE  H12A16402   2.210   4.253   6.051 -0.7371  2.0394  0.1784
  149SAPE  H12B16403   2.316   4.358   6.148 -1.7271  1.7174  1.6765
  149SAPE   C1116404   2.129   4.304   6.247 -0.3368 -0.0125 -0.1366
  149SAPE  H11A16405   2.066   4.213   6.255  0.7430 -0.6314  1.7299
  149SAPE  H11B16406   2.066   4.379   6.194  1.2505  0.5293 -1.2917
  149SAPE     P16407   2.243   4.482   6.403 -0.8082 -0.1067 -0.1832
  149SAPE   O1316408   2.390   4.448   6.411  0.0310 -0.2434  1.1259
  149SAPE   O1416409   2.204   4.583   6.301 -0.3271 -0.4333 -0.6682
  149SAPE   O1216410   2.165   4.351   6.372 -0.2721  0.1918  0.0893
  149SAPE   O1116411   2.206   4.525   6.549  0.8810  0.1849 -0.6747
  149SAPE    C116412   2.152   4.658   6.582 -0.1810  0.0361  0.0341
  149SAPE    HA16413   2.214   4.702   6.663  0.8181 -0.5237 -0.4152
  149SAPE    HB16414   2.158   4.726   6.495  0.4210 -1.6439 -1.2720
  149SAPE    C216415   2.008   4.653   6.634 -0.3687 -0.0957  0.5979
  149SAPE    HS16416   1.978   4.754   6.670 -0.5498  0.1467 -0.2221
  149SAPE   O2116417   1.982   4.552   6.736 -0.1573  0.0200  0.2064
  149SAPE   C2116418   2.009   4.592   6.859 -0.8025  0.1735  0.0353
  149SAPE   O2216419   2.046   4.704   6.890  0.6032 -0.6543  0.4450
  149SAPE   C2216420   1.993   4.477   6.955  0.6717 -0.1266 -0.2469
  149SAPE   H2R16421   1.924   4.396   6.922 -0.2516  1.3074 -1.9018
  149SAPE   H2S16422   2.094   4.437   6.978  0.3620 -1.1477 -0.6123
  149SAPE    C316423   1.918   4.631   6.504 -0.3203 -0.2220  0.4777
  149SAPE    HX16424   1.941   4.530   6.464  0.6089 -1.6518  4.3198
  149SAPE    HY16425   1.953   4.710   6.434  1.1492 -3.2949 -2.4152
  149SAPE   O3116426   1.781   4.652   6.528  0.2889  0.7277 -1.0575
  149SAPE   C3116427   1.700   4.541   6.531  0.0295 -0.1561 -0.3713
  149SAPE   O3216428   1.735   4.427   6.514  0.0542 -0.9198  0.0199
  149SAPE   C3216429   1.556   4.580   6.551 -0.1793 -0.5897  0.2968
  149SAPE   H2X16430   1.489   4.495   6.530 -2.1315  1.6292 -3.0208
  149SAPE   H2Y16431   1.535   4.660   6.476  3.8131 -2.3140 -2.8665
  149SAPE   C2316432   1.916   4.530   7.083  0.8370 -0.0110  0.0420
  149SAPE   H3R16433   1.811   4.557   7.059  1.3468  0.6411 -1.5033
  149SAPE   H3S16434   1.962   4.622   7.125  0.1406 -0.1980  1.2423
  149SAPE   C2416435   1.893   4.434   7.203  0.0685  0.0093 -0.0108
  149SAPE   H4R16436   1.831   4.351   7.164 -1.8395  2.0175 -1.4211
  149SAPE   H4S16437   1.832   4.483   7.281  1.5805  0.3923  0.9480
  149SAPE   C2516438   2.020   4.381   7.263  0.2407 -0.0349  1.0137
  149SAPE   H5R16439   2.092   4.327   7.199 -0.4326  1.1737 -0.8010
  149SAPE   C2616440   2.078   4.409   7.381 -0.3120  0.0991 -0.0840
  149SAPE   H6R16441   2.168   4.352   7.410 -0.6395 -1.1476 -1.4358
  149SAPE   C2716442   2.031   4.500   7.491  0.3993 -0.2443 -0.1756
  149SAPE   H7R16443   1.986   4.443   7.575  0.3980  0.4203  0.2806
  149SAPE   H7S16444   1.953   4.571   7.456  0.5356  0.7717  1.5180
  149SAPE   C2816445   2.139   4.590   7.552 -0.0818  0.5343 -0.1697
  149SAPE   H8R16446   2.180   4.673   7.492 -0.6338 -0.7579 -2.3648
  149SAPE   C2916447   2.203   4.567   7.667 -0.7384  0.1642  0.3854
  149SAPE   H9R16448   2.293   4.628   7.688 -0.9651  1.4011 -2.1377
  149SAPE  C21016449   2.197   4.456   7.768 -0.3876  0.1890  0.4664
  149SAPE  H10R16450   2.094   4.413   7.773 -1.3865  2.2952 -1.3380
  149SAPE  H10S16451   2.208   4.500   7.869 -2.1712  0.7231  0.4405
  149SAPE  C21116452   2.296   4.344   7.738  0.8924  0.2995 -0.1348
  149SAPE  H11R16453   2.292   4.310   7.633 -0.7275  0.8934 -0.2811
  149SAPE  C21216454   2.360   4.276   7.833 -0.2182  0.3281 -0.4594
  149SAPE  H12R16455   2.415   4.185   7.802 -3.5773 -2.5366  1.5784
  149SAPE  C21316456   2.348   4.297   7.984  0.1341  0.1033 -0.0050
  149SAPE  H13R16457   2.391   4.213   8.043 -1.0247  0.2919  1.1184
  149SAPE  H13S16458   2.248   4.310   8.030  0.1159 -4.0436  1.3378
  149SAPE  C21416459   2.427   4.416   8.024 -1.0119  0.6082 -0.5725
  149SAPE  H14R16460   2.481   4.472   7.947  2.1756  0.2664  1.3595
  149SAPE  C21516461   2.436   4.462   8.146 -0.0737 -0.3182 -0.1670
  149SAPE  H15R16462   2.481   4.559   8.173  2.4521 -1.5260  0.1661
  149SAPE  C21616463   2.378   4.395   8.272  0.8260  0.0123  0.2529
  149SAPE  H16R16464   2.344   4.292   8.248  4.2244 -1.2562  0.6008
  149SAPE  H16S16465   2.282   4.442   8.302 -0.2172 -2.1630  0.4522
  149SAPE  C21716466   2.470   4.373   8.398 -0.7823  0.5848  0.3675
  149SAPE  H17R16467   2.506   4.472   8.435 -0.7054  1.0412 -0.9258
  149SAPE  H17S16468   2.557   4.309   8.372 -0.8506 -0.1952  1.9653
  149SAPE  C21816469   2.408   4.300   8.517 -0.4501  0.5117  0.7689
  149SAPE  H18R16470   2.395   4.194   8.483  2.4284  0.3358  0.0924
  149SAPE  H18S16471   2.312   4.347   8.547 -0.8595  0.2330 -0.0742
  149SAPE  C21916472   2.509   4.293   8.635  0.5754  0.1360 -0.7829
  149SAPE  H19R16473   2.439   4.295   8.721  2.5820  3.4115  0.8596
  149SAPE  H19S16474   2.567   4.387   8.645  0.3972  0.5162 -3.0956
  149SAPE  C22016475   2.600   4.177   8.655 -0.2619  0.6637 -0.5950
  149SAPE  H20R16476   2.680   4.164   8.579  0.2392  0.0192  0.0403
  149SAPE  H20S16477   2.531   4.091   8.648 -0.5401  0.7983  0.3653
  149SAPE  H20T16478   2.642   4.173   8.758  0.9081  0.3624 -1.0680
  149SAPE   C3316479   1.524   4.636   6.690 -0.2127 -0.2545  0.1002
  149SAPE   H3X16480   1.421   4.677   6.693 -0.7155 -1.4386 -0.4148
  149SAPE   H3Y16481   1.588   4.719   6.725  1.1370 -0.4497 -1.7911
  149SAPE   C3416482   1.522   4.512   6.792  0.1371 -0.7884  0.3368
  149SAPE   H4X16483   1.607   4.443   6.774  0.4479 -1.2096  3.1817
  149SAPE   H4Y16484   1.420   4.468   6.786  0.3561 -1.3625  0.8858
  149SAPE   C3516485   1.529   4.573   6.934  0.3150 -0.1933  0.1671
  149SAPE   H5X16486   1.442   4.641   6.943 -0.6602 -1.3677 -0.2643
  149SAPE   H5Y16487   1.621   4.634   6.946  1.6811 -2.3128  0.8386
  149SAPE   C3616488   1.527   4.456   7.034 -0.1495  0.4319 -0.9440
  149SAPE   H6X16489   1.620   4.395   7.028  0.0816  0.3144  2.6536
  149SAPE   H6Y16490   1.451   4.377   7.020  1.5415 -1.4756  0.3168
  149SAPE   C3716491   1.507   4.512   7.177  0.0945 -0.0457 -0.3818
  149SAPE   H7X16492   1.417   4.576   7.189 -0.3518 -0.8836  0.8555
  149SAPE   H7Y16493   1.594   4.578   7.197 -1.0400  1.5012 -0.4114
  149SAPE   C3816494   1.495   4.408   7.289  0.0846 -0.0963  0.0427
  149SAPE   H8X16495   1.594   4.357   7.299 -0.2170 -1.1184 -1.9146
  149SAPE   H8Y16496   1.416   4.330   7.282  0.2141 -0.1032 -1.5156
  149SAPE   C3916497   1.489   4.477   7.426 -0.6332 -0.0359 -0.5585
  149SAPE   H9X16498   1.388   4.519   7.447 -0.1234 -0.2316  2.4710
  149SAPE   H9Y16499   1.557   4.565   7.431  2.9295 -2.7028 -0.4589
  149SAPE  C31016500   1.528   4.385   7.541 -0.4050  0.2223 -0.8410
  149SAPE  H10X16501   1.635   4.357   7.544 -0.2189  0.9788  0.3741
  149SAPE  H10Y16502   1.467   4.292   7.537 -2.0047  1.1475  0.7508
  149SAPE  C31116503   1.499   4.443   7.682  0.6184 -0.0278  0.5102
  149SAPE  H11X16504   1.388   4.437   7.688  0.7198 -0.5773  2.0115
  149SAPE  H11Y16505   1.541   4.545   7.690  2.0379 -0.5933  0.3470
  149SAPE  C31216506   1.544   4.357   7.801 -0.2411  1.2586  0.7490
  149SAPE  H12X16507   1.645   4.366   7.847  0.2274  0.3968 -0.0966
  149SAPE  H12Y16508   1.538   4.252   7.765 -0.2298  1.2639  0.7319
  149SAPE  C31316509   1.453   4.358   7.926 -0.7019 -0.4405  0.6134
  149SAPE  H13X16510   1.492   4.294   8.008 -1.5201 -2.0858 -0.2587
  149SAPE  H13Y16511   1.360   4.299   7.913  0.3748 -1.5281 -2.7408
  149SAPE  C31416512   1.427   4.501   7.982 -0.2011  0.0994  0.0693
  149SAPE  H14X16513   1.401   4.566   7.896  0.4646 -0.1075 -0.2959
  149SAPE  H14Y16514   1.516   4.537   8.038  0.3247 -0.1672 -0.5802
  149SAPE  C31516515   1.322   4.505   8.085  0.2545 -0.1954 -0.6157
  149SAPE  H15X16516   1.226   4.465   8.046  0.0030 -1.0834  0.8647
  149SAPE  H15Y16517   1.298   4.603   8.132 -0.4107 -1.1904  1.1568
  149SAPE  C31616518   1.351   4.414   8.208  0.4960 -0.0477 -0.2163
  149SAPE  H16X16519   1.434   4.456   8.268  4.1900 -1.3140 -4.1431
  149SAPE  H16Y16520   1.376   4.313   8.168  0.3275  0.4692 -1.6758
  149SAPE  C31716521   1.232   4.395   8.298  0.3259  0.0722 -0.9223
  149SAPE  H17X16522   1.148   4.347   8.241 -1.1775  0.9976  0.4670
  149SAPE  H17Y16523   1.199   4.499   8.317  1.3337  0.0241  1.2112
  149SAPE  C31816524   1.246   4.321   8.432  0.0032 -0.0728  0.0526
  149SAPE  H18X16525   1.304   4.227   8.418  0.7208  0.3713 -0.0237
  149SAPE  H18Y16526   1.154   4.296   8.489  0.8905 -0.3573  1.3760
  149SAPE  H18Z16527   1.315   4.387   8.490  1.1781 -0.8101 -0.4872
  150SAPE     N16528   1.134   5.799   6.281  0.1277 -0.3888 -0.1422
  150SAPE   HN116529   1.195   5.838   6.356 -1.0895 -1.8446  1.6274
  150SAPE   HN216530   1.184   5.798   6.190  0.2194 -2.7796 -0.1143
  150SAPE   HN316531   1.046   5.854   6.279  0.2007 -0.3128 -1.6011
  150SAPE   C1216532   1.095   5.654   6.301  0.1128 -0.0192 -0.6218
  150SAPE  H12A16533   1.194   5.607   6.319 -0.4357 -0.0330  2.6938
  150SAPE  H12B16534   1.057   5.612   6.205 -2.3851  0.0756  0.2869
  150SAPE   C1116535   1.002   5.625   6.420 -0.4853 -0.8964  0.2224
  150SAPE  H11A16536   1.024   5.690   6.507 -3.0501  0.6421 -0.2179
  150SAPE  H11B16537   1.013   5.517   6.444 -1.3783 -0.7556  1.2991
  150SAPE     P16538   0.802   5.785   6.385  0.2964  0.2279 -0.2725
  150SAPE   O1316539   0.900   5.886   6.348  0.6264 -0.0945  0.5956
  150SAPE   O1416540   0.672   5.775   6.318 -0.3380 -0.0162 -0.0780
  150SAPE   O1216541   0.868   5.638   6.371  0.7622 -0.5215 -0.2062
  150SAPE   O1116542   0.786   5.810   6.542  0.4818 -0.0729  0.3614
  150SAPE    C116543   0.700   5.730   6.618 -0.2499  0.0568 -0.3446
  150SAPE    HA16544   0.592   5.759   6.614 -0.5515 -0.8766  0.7265
  150SAPE    HB16545   0.717   5.623   6.593  0.6966  0.5107 -1.6775
  150SAPE    C216546   0.739   5.724   6.772  0.0795 -0.0231  0.2010
  150SAPE    HS16547   0.660   5.675   6.833  0.6608 -1.8369 -0.4563
  150SAPE   O2116548   0.742   5.850   6.830 -0.5784  0.3378 -0.5461
  150SAPE   C2116549   0.632   5.923   6.832  0.0107  0.4885  0.9607
  150SAPE   O2216550   0.525   5.880   6.793 -0.2749  0.1589 -0.3743
  150SAPE   C2216551   0.654   6.060   6.891  0.8375 -0.2703 -0.3925
  150SAPE   H2R16552   0.763   6.081   6.884  1.0156 -0.7643  0.7892
  150SAPE   H2S16553   0.602   6.138   6.831 -1.2508  1.8057  3.8874
  150SAPE    C316554   0.867   5.644   6.810 -0.1348  0.3781  0.3734
  150SAPE    HX16555   0.954   5.710   6.788 -2.3769  2.6277 -2.2522
  150SAPE    HY16556   0.894   5.550   6.757 -0.6828 -0.4930  1.6401
  150SAPE   O3116557   0.866   5.615   6.957  0.0946  0.4341  0.2658
  150SAPE   C3116558   0.813   5.503   7.000 -0.7098 -0.2922 -0.2103
  150SAPE   O3216559   0.754   5.418   6.935  0.9365 -0.5312 -0.1890
  150SAPE   C3216560   0.815   5.507   7.158  0.1064  0.2018  0.6827
  150SAPE   H2X16561   0.708   5.502   7.189 -0.1582  0.8072 -0.1213
  150SAPE   H2Y16562   0.855   5.605   7.190 -2.4551  1.8411 -0.9256
  150SAPE   C2316563   0.608   6.067   7.038 -0.6346 -0.2134 -0.7309
  150SAPE   H3R16564   0.498   6.057   7.041 -0.6481 -0.5489 -2.3877
  150SAPE   H3S16565   0.654   6.154   7.091  2.3346 -2.1168 -0.0561
  150SAPE   C2416566   0.658   5.946   7.119 -0.5913  0.2736  0.2479
  150SAPE   H4R16567   0.622   5.849   7.077  0.4299  0.4840 -1.1332
  150SAPE   H4S16568   0.607   5.960   7.217 -0.0325 -1.7615  0.8656
  150SAPE   C2516569   0.803   5.938   7.133  0.1797  0.3813 -0.1494
  150SAPE   H5R16570   0.850   5.948   7.034 -1.5796  1.3993 -0.8922
  150SAPE   C2616571   0.890   5.905   7.234 -0.1642  1.1812 -0.1658
  150SAPE   H6R16572   0.999   5.914   7.222  0.3495  0.4265  3.3503
  150SAPE   C2716573   0.850   5.873   7.374  1.2485  0.5591 -0.1546
  150SAPE   H7R16574   0.884   5.768   7.386 -1.2199 -0.4487 -1.7632
  150SAPE   H7S16575   0.740   5.866   7.382  1.4991  0.2689  3.9595
  150SAPE   C2816576   0.896   5.962   7.485 -0.4851  0.7996  0.2954
  150SAPE   H8R16577   0.969   6.037   7.451 -0.9903  2.0424  1.8866
  150SAPE   C2916578   0.847   5.965   7.610 -0.1404  0.0182  0.3069
  150SAPE   H9R16579   0.882   6.042   7.680  1.3783  0.7807 -1.2643
  150SAPE  C21016580   0.738   5.873   7.667  0.6014 -0.3693 -0.0705
  150SAPE  H10R16581   0.747   5.768   7.632  0.4035 -0.0389 -1.1520
  150SAPE  H10S16582   0.640   5.911   7.629  0.3716 -1.3092 -0.4258
  150SAPE  C21116583   0.733   5.885   7.817 -0.3360  0.4903 -0.0174
  150SAPE  H11R16584   0.731   5.987   7.858  2.4450  0.0765  1.2535
  150SAPE  C21216585   0.711   5.787   7.903 -0.6365  0.6981  0.8705
  150SAPE  H12R16586   0.693   5.802   8.010  1.5000  0.0667  1.3527
  150SAPE  C21316587   0.703   5.644   7.860  0.5286  1.1158 -0.4194
  150SAPE  H13R16588   0.798   5.601   7.820 -0.5247 -2.5214  0.7621
  150SAPE  H13S16589   0.636   5.645   7.772  0.0273  1.7703 -0.0348
  150SAPE  C21416590   0.647   5.543   7.959 -0.3855 -0.4385  0.6788
  150SAPE  H14R16591   0.538   5.540   7.977 -0.5148 -0.9850 -0.2063
  150SAPE  C21516592   0.721   5.468   8.042  0.0063 -0.3570  0.1892
  150SAPE  H15R16593   0.674   5.397   8.112 -0.5774 -0.8592 -0.7052
  150SAPE  C21616594   0.875   5.463   8.051 -0.5290 -0.0272  0.1926
  150SAPE  H16R16595   0.918   5.565   8.059  2.6599 -1.4441  1.9435
  150SAPE  H16S16596   0.913   5.414   7.959  2.2251  0.1125  1.1991
  150SAPE  C21716597   0.953   5.386   8.159 -0.1046 -0.6167 -0.2418
  150SAPE  H17R16598   0.928   5.442   8.252 -0.2752 -1.8455  0.4586
  150SAPE  H17S16599   1.062   5.379   8.143 -0.1970 -3.6387  0.2888
  150SAPE  C21816600   0.907   5.242   8.177  0.8393  0.0067  0.7020
  150SAPE  H18R16601   0.803   5.230   8.216  1.3045 -0.9169  1.7028
  150SAPE  H18S16602   0.977   5.195   8.249  2.0876  1.3374  0.3715
  150SAPE  C21916603   0.929   5.159   8.055  0.1897 -0.0331  0.3549
  150SAPE  H19R16604   1.022   5.185   8.000 -1.5450  3.0548 -1.2520
  150SAPE  H19S16605   0.848   5.183   7.982  1.7984  1.4736 -0.9777
  150SAPE  C22016606   0.929   5.009   8.084 -0.3217 -0.4766 -0.2451
  150SAPE  H20R16607   1.031   4.977   8.114 -1.2775 -1.8071  1.6771
  150SAPE  H20S16608   0.887   4.946   8.002 -1.1253  0.7375 -0.7827
  150SAPE  H20T16609   0.857   4.991   8.167  1.5900 -3.9745  0.7465
  150SAPE   C3316610   0.896   5.390   7.217 -0.1504 -0.3129  0.7992
  150SAPE   H3X16611   1.003   5.397   7.187  0.1606 -1.8980  1.5109
  150SAPE   H3Y16612   0.849   5.293   7.191  0.7211 -1.3584  3.0239
  150SAPE   C3416613   0.905   5.389   7.367 -0.0656  0.0258  0.8913
  150SAPE   H4X16614   0.912   5.494   7.402  0.9757 -0.1900  1.3257
  150SAPE   H4Y16615   0.997   5.335   7.397 -0.9670 -0.6896  2.4251
  150SAPE   C3516616   0.792   5.323   7.449  0.5539 -0.4045 -0.3014
  150SAPE   H5X16617   0.790   5.217   7.418 -3.0972 -0.5284  0.1046
  150SAPE   H5Y16618   0.693   5.370   7.429  0.0818 -0.9657  0.6799
  150SAPE   C3616619   0.817   5.326   7.602  1.1288 -0.5874 -0.1696
  150SAPE   H6X16620   0.832   5.430   7.638 -0.2164 -0.4690  0.0731
  150SAPE   H6Y16621   0.909   5.265   7.616  0.8793 -0.9607 -0.1365
  150SAPE   C3716622   0.693   5.281   7.686 -0.0093 -0.1726  0.2511
  150SAPE   H7X16623   0.605   5.292   7.619  1.4091  1.2429 -1.4340
  150SAPE   H7Y16624   0.699   5.345   7.777 -1.3047  1.5298 -0.8203
  150SAPE   C3816625   0.706   5.129   7.724  0.5794  0.7068 -0.2187
  150SAPE   H8X16626   0.797   5.104   7.783 -0.3131 -1.9808  0.0907
  150SAPE   H8Y16627   0.724   5.079   7.626 -2.9954  1.6306 -1.4443
  150SAPE   C3916628   0.587   5.072   7.803  0.6986  0.7280  0.3927
  150SAPE   H9X16629   0.610   4.965   7.827 -0.3091 -0.4350 -3.4374
  150SAPE   H9Y16630   0.496   5.078   7.739 -0.8509  0.6414  2.5348
  150SAPE  C31016631   0.557   5.144   7.934 -0.0781 -0.0244  0.3565
  150SAPE  H10X16632   0.506   5.241   7.914  2.9393  1.1507 -2.0192
  150SAPE  H10Y16633   0.657   5.170   7.974 -0.4928 -0.7716  1.9544
  150SAPE  C31116634   0.472   5.055   8.025 -0.2672 -0.0326  0.5015
  150SAPE  H11X16635   0.524   4.957   8.034 -0.8112 -0.6661 -2.7888
  150SAPE  H11Y16636   0.374   5.017   7.989 -0.8339  0.2191  1.7556
  150SAPE  C31216637   0.437   5.124   8.148  0.9650  0.5499 -0.5247
  150SAPE  H12X16638   0.350   5.190   8.132  1.2985  1.2989  0.6769
  150SAPE  H12Y16639   0.514   5.186   8.198 -0.4149  0.9677  1.1350
  150SAPE  C31316640   0.419   5.018   8.257  0.2570 -0.0040 -0.7083
  150SAPE  H13X16641   0.508   4.951   8.254  1.3831  1.4133  0.6051
  150SAPE  H13Y16642   0.337   4.952   8.220  0.3863 -0.7145  0.2345
  150SAPE  C31416643   0.393   5.055   8.403  0.1723  0.2073 -0.3654
  150SAPE  H14X16644   0.312   5.131   8.413  0.9805  0.8825  1.0296
  150SAPE  H14Y16645   0.485   5.093   8.451 -0.9089  0.9067  1.1880
  150SAPE  C31516646   0.355   4.931   8.488 -0.5693 -0.4324  0.2325
  150SAPE  H15X16647   0.319   4.974   8.583 -0.0433 -2.0970  1.2084
  150SAPE  H15Y16648   0.445   4.869   8.510 -0.5182 -0.7790 -0.8888
  150SAPE  C31616649   0.242   4.845   8.432 -0.1338  0.2734 -0.2979
  150SAPE  H16X16650   0.288   4.795   8.344 -1.1235 -0.5172 -0.3725
  150SAPE  H16Y16651   0.160   4.912   8.398  2.2526  2.4851 -1.8668
  150SAPE  C31716652   0.180   4.740   8.525 -0.0938  0.3457  0.6663
  150SAPE  H17X16653   0.166   4.780   8.627 -3.1415 -0.2852  0.5150
  150SAPE  H17Y16654   0.253   4.656   8.518  1.3721  1.5022  1.6086
  150SAPE  C31816655   0.046   4.685   8.459 -0.4373  0.3463 -0.0853
  150SAPE  H18X16656  -0.014   4.769   8.417 -0.9236 -0.7939 -1.6953
  150SAPE  H18Y16657  -0.018   4.636   8.535  0.7225  1.2455  1.5121
  150SAPE  H18Z16658   0.076   4.616   8.378 -1.0360 -1.2512  1.0287
  151SAPE     N16659   3.005   2.925   6.329  0.3029  0.4725 -1.0441
  151SAPE   HN116660   3.001   2.871   6.240  0.3632 -2.6114  0.7376
  151SAPE   HN216661   2.904   2.948   6.339 -0.0065 -1.5380  1.0837
  151SAPE   HN316662   3.056   3.012   6.304  3.3234 -0.9703 -0.2767
  151SAPE   C1216663   3.054   2.854   6.446  0.3262  0.3736 -0.1471
  151SAPE  H12A16664   3.123   2.774   6.412 -1.0332 -0.4712 -0.9778
  151SAPE  H12B16665   2.972   2.791   6.487  1.9733 -2.1167 -0.6468
  151SAPE   C1116666   3.128   2.944   6.550  0.5138  0.0352 -0.0005
  151SAPE  H11A16667   3.162   2.865   6.621 -3.1065 -2.1878 -0.6162
  151SAPE  H11B16668   3.063   3.010   6.612 -0.7749 -0.3205 -0.9524
  151SAPE     P16669   3.232   3.166   6.476  0.2806  0.4917  0.1541
  151SAPE   O1316670   3.356   3.219   6.427 -0.0175  0.0121  0.5525
  151SAPE   O1416671   3.101   3.193   6.410 -0.0536  0.4592 -0.2361
  151SAPE   O1216672   3.241   3.015   6.496  0.1293 -0.2436 -0.7766
  151SAPE   O1116673   3.199   3.204   6.629  1.4080  0.7738 -0.3686
  151SAPE    C116674   3.296   3.156   6.727 -0.8271  0.1528 -0.2722
  151SAPE    HA16675   3.311   3.046   6.727 -0.4688  0.1808 -2.5621
  151SAPE    HB16676   3.397   3.200   6.715 -0.9998  0.8667  0.8108
  151SAPE    C216677   3.246   3.198   6.869  0.0217  0.3977  0.7363
  151SAPE    HS16678   3.330   3.179   6.940 -0.7465 -2.3565  0.9752
  151SAPE   O2116679   3.135   3.118   6.911  0.3280  0.0517 -0.3448
  151SAPE   C2116680   3.167   3.006   6.965 -0.0256 -0.7867  0.3463
  151SAPE   O2216681   3.278   2.954   6.966 -0.2895 -0.2723 -0.4128
  151SAPE   C2216682   3.050   2.954   7.042  0.1117  0.1652  0.2913
  151SAPE   H2R16683   2.966   3.026   7.037 -1.1427 -1.1083  2.5820
  151SAPE   H2S16684   3.023   2.868   6.976 -0.5621  0.6288 -0.0437
  151SAPE    C316685   3.219   3.349   6.880  0.2412  0.5833 -0.0310
  151SAPE    HX16686   3.129   3.373   6.819 -1.3620  0.6738  2.3200
  151SAPE    HY16687   3.305   3.402   6.834  1.8442 -0.8590  1.2430
  151SAPE   O3116688   3.216   3.386   7.020  0.4649 -0.0451 -0.0423
  151SAPE   C3116689   3.110   3.342   7.084  0.6462  0.0681  0.1249
  151SAPE   O3216690   3.002   3.300   7.040 -0.1768 -0.1024  0.0393
  151SAPE   C3216691   3.145   3.339   7.232 -0.0109  0.1599 -0.1510
  151SAPE   H2X16692   3.103   3.240   7.260  0.8233  0.0650  0.8002
  151SAPE   H2Y16693   3.085   3.414   7.288 -0.9811  1.9211 -3.3648
  151SAPE   C2316694   3.093   2.895   7.182 -0.0999 -0.0189  0.3773
  151SAPE   H3R16695   3.155   2.961   7.246  0.7523 -2.7907  2.5488
  151SAPE   H3S16696   3.152   2.805   7.153 -0.9071  0.2054 -2.1177
  151SAPE   C2416697   2.969   2.842   7.276 -0.0928 -0.4869  0.1525
  151SAPE   H4R16698   3.023   2.803   7.365  1.3929 -2.6904 -1.6464
  151SAPE   H4S16699   2.925   2.756   7.223  0.7374 -1.4381  0.9839
  151SAPE   C2516700   2.864   2.948   7.318  0.1508  0.0586  0.5238
  151SAPE   H5R16701   2.819   3.005   7.236  1.4951  0.8680  0.3332
  151SAPE   C2616702   2.823   2.964   7.448  0.0775 -0.0510 -0.6105
  151SAPE   H6R16703   2.740   3.033   7.466  1.2835  1.0731  0.7431
  151SAPE   C2716704   2.868   2.887   7.561  0.3209  0.8428  0.0889
  151SAPE   H7R16705   2.832   2.951   7.644  0.8925 -2.3309  2.9047
  151SAPE   H7S16706   2.979   2.884   7.563  0.2603 -2.1063  0.2374
  151SAPE   C2816707   2.798   2.758   7.587  0.2761  0.2254  0.5001
  151SAPE   H8R16708   2.773   2.696   7.499  0.4692 -1.3323  1.5291
  151SAPE   C2916709   2.767   2.715   7.710 -0.5001 -0.3115 -0.9017
  151SAPE   H9R16710   2.702   2.627   7.717  0.5357 -0.9354  1.4647
  151SAPE  C21016711   2.794   2.776   7.842  0.5855  0.2065  0.1029
  151SAPE  H10R16712   2.713   2.740   7.909  0.9319  0.0483  0.4387
  151SAPE  H10S16713   2.792   2.887   7.851  1.5495  0.2011  0.4611
  151SAPE  C21116714   2.928   2.720   7.888  0.4246 -0.4668 -0.1591
  151SAPE  H11R16715   3.000   2.730   7.806  0.8922 -1.8396  0.0647
  151SAPE  C21216716   2.954   2.665   8.008  0.7474 -0.2119 -0.1547
  151SAPE  H12R16717   3.053   2.621   8.025  1.7726  1.1334 -2.3901
  151SAPE  C21316718   2.861   2.631   8.121 -0.3685 -0.6853  0.4475
  151SAPE  H13R16719   2.760   2.672   8.100  1.0994  1.5741 -2.6094
  151SAPE  H13S16720   2.889   2.699   8.205  0.3354  0.0967 -0.4057
  151SAPE  C21416721   2.835   2.487   8.163  1.1531  0.7219 -0.3143
  151SAPE  H14R16722   2.817   2.424   8.075  2.4904  2.0615 -1.5831
  151SAPE  C21516723   2.845   2.438   8.288  0.0027  0.8110  0.8060
  151SAPE  H15R16724   2.846   2.330   8.305 -0.2725  0.5647 -0.7261
  151SAPE  C21616725   2.876   2.523   8.413  0.6522 -0.3485  0.2650
  151SAPE  H16R16726   2.800   2.605   8.409  0.7749 -0.2101  0.7915
  151SAPE  H16S16727   2.978   2.566   8.415  0.4897  0.0647 -0.1579
  151SAPE  C21716728   2.861   2.428   8.537  0.2941  0.4694  0.2268
  151SAPE  H17R16729   2.864   2.493   8.627 -1.7980  0.9803 -0.0532
  151SAPE  H17S16730   2.944   2.354   8.548 -0.9431 -0.9473  0.1241
  151SAPE  C21816731   2.724   2.347   8.541  0.6798  0.4274 -0.5434
  151SAPE  H18R16732   2.739   2.260   8.474  0.5812 -1.1842  1.4769
  151SAPE  H18S16733   2.643   2.420   8.516  0.4717  0.0631 -0.9387
  151SAPE  C21916734   2.697   2.294   8.679 -0.0608 -0.5137  0.2438
  151SAPE  H19R16735   2.722   2.369   8.757 -0.4775 -1.0752  0.9262
  151SAPE  H19S16736   2.783   2.225   8.696 -1.3251 -1.9805  0.7986
  151SAPE  C22016737   2.563   2.217   8.699  0.5935  0.0054 -0.4138
  151SAPE  H20R16738   2.576   2.128   8.764  0.2594 -0.7234 -1.3397
  151SAPE  H20S16739   2.481   2.279   8.743  2.5111  3.0722 -0.9932
  151SAPE  H20T16740   2.526   2.177   8.602  1.3607 -2.3789  0.2518
  151SAPE   C3316741   3.292   3.339   7.268 -0.3871  0.2953  0.1206
  151SAPE   H3X16742   3.345   3.430   7.232  0.7593 -0.6182 -0.5463
  151SAPE   H3Y16743   3.336   3.247   7.224  1.3320  1.5112 -0.7772
  151SAPE   C3416744   3.320   3.331   7.419  0.7616  0.3934  0.0492
  151SAPE   H4X16745   3.277   3.421   7.469  0.5809 -0.3693  1.2980
  151SAPE   H4Y16746   3.427   3.328   7.446  0.7997  1.7154  0.0488
  151SAPE   C3516747   3.253   3.210   7.488 -0.0113  0.3892 -0.1731
  151SAPE   H5X16748   3.293   3.125   7.429  1.3099 -1.5294  3.3313
  151SAPE   H5Y16749   3.143   3.200   7.475 -0.3291  1.9732  1.0597
  151SAPE   C3616750   3.296   3.202   7.631 -1.0998 -0.7211  0.0685
  151SAPE   H6X16751   3.256   3.295   7.677  2.6579  0.3706  1.3676
  151SAPE   H6Y16752   3.407   3.201   7.625 -1.1338  0.1971 -0.9333
  151SAPE   C3716753   3.251   3.070   7.693  0.2711 -0.3111  0.2543
  151SAPE   H7X16754   3.289   2.987   7.629  1.6563  1.2498 -0.9963
  151SAPE   H7Y16755   3.140   3.069   7.683  0.1687 -0.5622  1.3537
  151SAPE   C3816756   3.283   3.045   7.839 -0.8755  0.2118 -0.5749
  151SAPE   H8X16757   3.393   3.046   7.855 -0.7845 -1.4371 -0.9760
  151SAPE   H8Y16758   3.235   2.946   7.855 -1.9018  0.6792 -0.7269
  151SAPE   C3916759   3.216   3.144   7.928  0.3308  0.1501  0.5849
  151SAPE   H9X16760   3.111   3.153   7.893  0.5581  2.0263  0.3050
  151SAPE   H9Y16761   3.251   3.249   7.919 -1.4303  0.9098  2.1272
  151SAPE  C31016762   3.228   3.096   8.074  0.2957  0.6281 -0.0296
  151SAPE  H10X16763   3.320   3.038   8.094 -0.1293  0.0409  0.2369
  151SAPE  H10Y16764   3.150   3.023   8.106 -0.8247  1.2114 -1.3860
  151SAPE  C31116765   3.223   3.204   8.183  0.1687  0.0412 -0.4600
  151SAPE  H11X16766   3.309   3.274   8.178  0.0581  0.1196 -1.2979
  151SAPE  H11Y16767   3.217   3.153   8.281 -0.4357  0.4683 -0.2752
  151SAPE  C31216768   3.102   3.293   8.169  0.0266  0.8177 -0.0954
  151SAPE  H12X16769   3.022   3.222   8.137  0.1496  1.0790 -1.0033
  151SAPE  H12Y16770   3.120   3.366   8.087 -1.7856  1.0194 -0.3470
  151SAPE  C31316771   3.082   3.376   8.297 -0.3060 -0.2283  0.1299
  151SAPE  H13X16772   3.079   3.302   8.379  0.0507 -0.7308 -0.3104
  151SAPE  H13Y16773   2.991   3.440   8.291  0.6265  1.1313  0.3210
  151SAPE  C31416774   3.192   3.484   8.307 -0.2508 -0.0821  0.2069
  151SAPE  H14X16775   3.198   3.530   8.207  0.0070 -2.3580 -0.8584
  151SAPE  H14Y16776   3.293   3.441   8.327  0.8754  1.8136 -1.2046
  151SAPE  C31516777   3.165   3.588   8.413 -0.2184 -0.4194 -0.2507
  151SAPE  H15X16778   3.062   3.627   8.412 -0.4150 -0.8000  2.2551
  151SAPE  H15Y16779   3.222   3.676   8.378  0.0290  0.5647  2.4970
  151SAPE  C31616780   3.216   3.548   8.552 -0.5463 -0.1589 -0.3356
  151SAPE  H16X16781   3.326   3.535   8.553 -0.6161 -1.1186 -2.7342
  151SAPE  H16Y16782   3.167   3.452   8.581  1.0192 -0.4358  1.4861
  151SAPE  C31716783   3.181   3.667   8.652  0.3838 -0.0802  0.3068
  151SAPE  H17X16784   3.072   3.676   8.667 -0.0702 -0.9919 -2.1712
  151SAPE  H17Y16785   3.219   3.763   8.613 -0.3417 -0.7194 -2.0255
  151SAPE  C31816786   3.246   3.649   8.794 -0.2276 -0.8777  0.1995
  151SAPE  H18X16787   3.356   3.645   8.781 -0.3826  0.2443 -1.7258
  151SAPE  H18Y16788   3.209   3.552   8.834  0.1866 -1.4587 -0.8100
  151SAPE  H18Z16789   3.218   3.734   8.859 -0.9428  1.2192 -2.7215
  152SAPE     N16790   0.120   6.774   6.090 -0.0237 -0.2823 -0.0547
  152SAPE   HN116791   0.032   6.742   6.134  0.1020 -1.6096 -0.7354
  152SAPE   HN216792   0.098   6.799   5.991 -1.5838 -2.5264 -0.2879
  152SAPE   HN316793   0.179   6.689   6.090  1.3497  0.6464 -0.5592
  152SAPE   C1216794   0.180   6.885   6.177  0.6363  0.0316 -0.0896
  152SAPE  H12A16795   0.144   6.985   6.144 -4.1200 -1.0356  1.4733
  152SAPE  H12B16796   0.290   6.879   6.168  0.7595  1.0048  0.5688
  152SAPE   C1116797   0.131   6.864   6.322  0.3317 -0.2775 -0.1598
  152SAPE  H11A16798   0.187   6.939   6.382 -1.2543 -0.4128  1.5244
  152SAPE  H11B16799   0.152   6.761   6.356 -0.2114 -0.2266  0.3281
  152SAPE     P16800  -0.092   6.988   6.410 -0.0208  0.1517  0.1473
  152SAPE   O1316801  -0.072   7.120   6.344 -0.2775 -0.1871 -0.3447
  152SAPE   O1416802  -0.230   6.948   6.430  0.1858  0.4336  0.5494
  152SAPE   O1216803  -0.010   6.877   6.325  0.4778  0.7580  0.3517
  152SAPE   O1116804  -0.025   6.994   6.546  0.3493 -0.5004  0.0495
  152SAPE    C116805   0.036   6.901   6.627  0.0776  0.1681 -0.2644
  152SAPE    HA16806   0.022   6.799   6.583 -1.2952  1.2947 -2.5395
  152SAPE    HB16807   0.144   6.925   6.633  0.9547 -3.5846  0.3837
  152SAPE    C216808  -0.018   6.908   6.772  0.4013 -0.3015  0.2297
  152SAPE    HS16809  -0.128   6.907   6.753  0.7224 -0.4618 -1.7835
  152SAPE   O2116810   0.036   7.021   6.847 -0.4196 -0.2544  0.0815
  152SAPE   C2116811  -0.046   7.116   6.867 -0.2380 -0.4551  0.1830
  152SAPE   O2216812  -0.163   7.110   6.829 -0.3336  0.1660 -0.3025
  152SAPE   C2216813   0.002   7.217   6.967  0.4773 -0.1745 -0.0610
  152SAPE   H2R16814   0.109   7.192   6.989  0.8458 -1.0779 -2.7004
  152SAPE   H2S16815  -0.001   7.316   6.919 -2.3354 -0.0560  0.3235
  152SAPE    C316816   0.025   6.786   6.852 -0.5237  0.1569 -0.3987
  152SAPE    HX16817   0.136   6.790   6.854 -0.5893  1.5204  2.1894
  152SAPE    HY16818  -0.003   6.691   6.802 -1.9671  0.0502  0.6012
  152SAPE   O3116819  -0.026   6.795   6.988 -1.0647 -0.7006  0.9946
  152SAPE   C3116820   0.004   6.697   7.075  0.4039  0.2702  0.3985
  152SAPE   O3216821   0.065   6.595   7.047  0.1126  0.5121 -0.0717
  152SAPE   C3216822  -0.061   6.726   7.210  0.8917 -0.2612  0.1803
  152SAPE   H2X16823  -0.172   6.727   7.205  0.9306  0.5405 -0.6581
  152SAPE   H2Y16824  -0.034   6.829   7.239  0.9640 -0.1834 -0.1570
  152SAPE   C2316825  -0.077   7.226   7.103 -0.0809 -0.0433  0.0154
  152SAPE   H3R16826  -0.187   7.223   7.084 -0.2199 -3.4712  1.0428
  152SAPE   H3S16827  -0.042   7.312   7.163 -2.0082  0.6070  0.2495
  152SAPE   C2416828  -0.036   7.102   7.180  0.8161 -0.4808  0.1986
  152SAPE   H4R16829  -0.030   7.007   7.122 -0.0555  0.1817 -0.9943
  152SAPE   H4S16830  -0.117   7.093   7.256 -0.3609  0.2124 -0.9623
  152SAPE   C2516831   0.097   7.125   7.253  0.3796 -0.3159 -0.5141
  152SAPE   H5R16832   0.185   7.116   7.187  0.3784  0.4496 -0.6342
  152SAPE   C2616833   0.110   7.155   7.381 -0.5145  1.3701 -0.3761
  152SAPE   H6R16834   0.212   7.158   7.422 -0.3246  0.8337 -0.7920
  152SAPE   C2716835  -0.001   7.166   7.486  0.1189 -0.6242 -1.0207
  152SAPE   H7R16836  -0.097   7.203   7.443  0.8255  1.6042 -0.7391
  152SAPE   H7S16837   0.018   7.254   7.551 -1.7754 -0.6231 -0.4291
  152SAPE   C2816838  -0.017   7.041   7.573  0.7313  0.5070 -0.1124
  152SAPE   H8R16839  -0.061   6.954   7.521 -0.7969 -0.4146  2.6298
  152SAPE   C2916840  -0.008   7.026   7.709  0.5714 -0.2157  0.4780
  152SAPE   H9R16841  -0.024   6.928   7.758 -0.4693 -0.8790 -1.1322
  152SAPE  C21016842   0.023   7.130   7.812 -0.2512 -0.2161 -0.0756
  152SAPE  H10R16843   0.091   7.209   7.773 -0.7807 -0.4932 -1.5900
  152SAPE  H10S16844   0.080   7.073   7.888  1.0236  0.5081 -0.4712
  152SAPE  C21116845  -0.095   7.199   7.866  0.3066 -0.4709 -0.7368
  152SAPE  H11R16846  -0.170   7.232   7.793 -0.5481  0.1798  0.4160
  152SAPE  C21216847  -0.115   7.231   7.993 -0.5127 -0.6191 -0.3215
  152SAPE  H12R16848  -0.211   7.273   8.026 -0.3496 -1.6698  1.6049
  152SAPE  C21316849  -0.008   7.222   8.104 -0.1784  0.1200  0.4864
  152SAPE  H13R16850  -0.001   7.314   8.166  0.3485  0.7964 -0.5723
  152SAPE  H13S16851   0.092   7.220   8.056 -0.3526  4.1191 -0.2507
  152SAPE  C21416852  -0.033   7.097   8.186 -0.0569 -0.3147 -0.2573
  152SAPE  H14R16853  -0.017   7.006   8.126 -2.4508 -0.7579 -0.2926
  152SAPE  C21516854  -0.046   7.095   8.321 -0.4328  0.1167  0.2888
  152SAPE  H15R16855  -0.063   6.996   8.365  4.3144  0.3889  3.1005
  152SAPE  C21616856  -0.042   7.212   8.413 -0.1433  0.3663 -0.5551
  152SAPE  H16R16857  -0.145   7.252   8.425 -0.4236 -0.8453  1.2671
  152SAPE  H16S16858   0.021   7.296   8.377 -2.2570  1.2313 -2.3458
  152SAPE  C21716859  -0.012   7.177   8.562  0.7770 -0.3981  0.1995
  152SAPE  H17R16860  -0.042   7.270   8.615 -0.8393 -0.4194 -0.6412
  152SAPE  H17S16861   0.096   7.165   8.586  0.7053 -0.1114  0.6724
  152SAPE  C21816862  -0.090   7.065   8.634 -0.0840  0.3686  0.0522
  152SAPE  H18R16863  -0.190   7.047   8.588  0.6380 -3.5867 -0.1672
  152SAPE  H18S16864  -0.104   7.105   8.736 -1.9835  3.2366 -1.2694
  152SAPE  C21916865  -0.010   6.928   8.650 -0.7258 -0.0080 -0.4677
  152SAPE  H19R16866   0.065   6.947   8.730  0.1864  0.5602 -1.4421
  152SAPE  H19S16867   0.037   6.898   8.554 -0.6134  0.2079 -0.4829
  152SAPE  C22016868  -0.120   6.821   8.697 -0.2089  0.3402 -0.0329
  152SAPE  H20R16869  -0.076   6.722   8.721  0.2754  0.7912  0.9891
  152SAPE  H20S16870  -0.198   6.813   8.618  1.6457 -0.5558 -1.8125
  152SAPE  H20T16871  -0.169   6.854   8.792  1.4282 -1.3221  1.4307
  152SAPE   C3316872  -0.009   6.620   7.312 -0.2778  0.8117  0.1984
  152SAPE   H3X16873   0.101   6.603   7.307 -0.2851  0.7932  0.1058
  152SAPE   H3Y16874  -0.053   6.522   7.283  2.0052  0.2682 -1.6008
  152SAPE   C3416875  -0.055   6.657   7.454 -0.1505 -0.2794 -0.7522
  152SAPE   H4X16876  -0.166   6.660   7.459 -0.1521 -2.1656  1.3319
  152SAPE   H4Y16877  -0.013   6.755   7.482  1.2508 -2.0012  3.6174
  152SAPE   C3516878   0.010   6.574   7.562 -0.2088 -0.3601 -0.1875
  152SAPE   H5X16879   0.119   6.588   7.549  0.4498 -4.1280  0.9378
  152SAPE   H5Y16880  -0.004   6.465   7.554  0.2378 -0.4710  0.5296
  152SAPE   C3616881  -0.023   6.629   7.704 -0.1838 -0.8018 -0.6960
  152SAPE   H6X16882  -0.018   6.739   7.697 -1.3430 -0.5534  1.7602
  152SAPE   H6Y16883   0.049   6.594   7.781  0.4983 -0.0150 -0.9634
  152SAPE   C3716884  -0.161   6.583   7.749 -0.4424 -0.3768 -0.0537
  152SAPE   H7X16885  -0.146   6.475   7.771 -1.7786 -0.2437  1.6221
  152SAPE   H7Y16886  -0.235   6.595   7.667 -2.1453  0.7249  1.5934
  152SAPE   C3816887  -0.210   6.656   7.878  0.2423 -0.4230  0.8080
  152SAPE   H8X16888  -0.313   6.624   7.906  0.2208  0.2100  1.4781
  152SAPE   H8Y16889  -0.225   6.757   7.835  1.1414  0.1648  1.8424
  152SAPE   C3916890  -0.134   6.659   8.004  0.2678 -0.1498 -0.2715
  152SAPE   H9X16891  -0.029   6.694   7.991  0.8718 -0.3375  3.5397
  152SAPE   H9Y16892  -0.116   6.551   8.027  3.1502  0.6154  1.3028
  152SAPE  C31016893  -0.195   6.735   8.125 -0.1841  0.9404  0.3899
  152SAPE  H10X16894  -0.292   6.682   8.136 -0.6571  2.0350  1.6149
  152SAPE  H10Y16895  -0.210   6.845   8.117 -1.0311  0.8616  0.9006
  152SAPE  C31116896  -0.133   6.716   8.261 -0.2518 -0.8891 -0.7659
  152SAPE  H11X16897  -0.170   6.793   8.332  0.6052 -2.1992  1.1241
  152SAPE  H11Y16898  -0.026   6.741   8.252 -0.8758  1.9278 -0.6521
  152SAPE  C31216899  -0.161   6.574   8.312 -0.1602 -0.7876 -0.5162
  152SAPE  H12X16900  -0.184   6.503   8.230  0.1220 -2.6020  0.9293
  152SAPE  H12Y16901  -0.256   6.584   8.370  1.8901  0.3129  2.7768
  152SAPE  C31316902  -0.051   6.514   8.406  1.0330 -0.1950 -0.2441
  152SAPE  H13X16903  -0.039   6.571   8.500 -0.1001 -1.3476  0.6138
  152SAPE  H13Y16904   0.050   6.512   8.359  0.0230 -0.4805 -2.4827
  152SAPE  C31416905  -0.085   6.368   8.434  0.4989  0.3819  0.0306
  152SAPE  H14X16906   0.010   6.314   8.450 -0.9449 -2.1522  0.1995
  152SAPE  H14Y16907  -0.137   6.324   8.346  0.6430  2.1971 -1.0116
  152SAPE  C31516908  -0.185   6.357   8.554 -0.4441  0.0847  0.1871
  152SAPE  H15X16909  -0.191   6.247   8.571 -0.6658  0.3342  1.8125
  152SAPE  H15Y16910  -0.285   6.398   8.526 -0.9455 -1.3233 -0.1426
  152SAPE  C31616911  -0.140   6.414   8.695  0.4559 -1.1810  0.0161
  152SAPE  H16X16912  -0.227   6.401   8.763  0.1432 -0.8230 -0.3089
  152SAPE  H16Y16913  -0.141   6.525   8.683  0.4464 -1.3787 -1.9066
  152SAPE  C31716914  -0.009   6.355   8.757 -0.1209 -0.0793 -0.6523
  152SAPE  H17X16915  -0.013   6.244   8.765 -2.7595  0.0947  1.3224
  152SAPE  H17Y16916  -0.003   6.382   8.865  0.5420 -0.3051 -0.6379
  152SAPE  C31816917   0.122   6.392   8.691 -0.0782 -0.5375 -0.9502
  152SAPE  H18X16918   0.130   6.501   8.669 -1.3204  0.2066  2.0118
  152SAPE  H18Y16919   0.144   6.327   8.604  0.5140 -1.5370 -0.0731
  152SAPE  H18Z16920   0.197   6.367   8.770 -0.1383 -0.9737 -1.0324
  153SAPE     N16921   3.966   0.584   6.172  0.6825  0.0449  0.2200
  153SAPE   HN116922   4.062   0.544   6.162  0.2566 -0.5152 -2.0530
  153SAPE   HN216923   3.893   0.530   6.122  3.2615 -3.9370  0.5191
  153SAPE   HN316924   3.970   0.685   6.146 -1.8757  1.0144  3.3299
  153SAPE   C1216925   3.922   0.571   6.317  0.3098 -0.5900 -0.0038
  153SAPE  H12A16926   3.979   0.634   6.389 -1.5595 -0.7740  1.6771
  153SAPE  H12B16927   3.918   0.463   6.339 -0.2430 -0.4949  0.3731
  153SAPE   C1116928   3.778   0.625   6.331 -0.1914 -0.4764  0.1036
  153SAPE  H11A16929   3.736   0.601   6.431 -1.4860 -1.3537 -0.6388
  153SAPE  H11B16930   3.722   0.572   6.251  1.5702  1.9581 -2.8513
  153SAPE     P16931   3.638   0.846   6.269 -0.0655  0.1290 -0.4330
  153SAPE   O1316932   3.646   0.982   6.329 -0.3543  0.3985 -0.3712
  153SAPE   O1416933   3.594   0.830   6.131 -0.3438 -0.2751  0.1456
  153SAPE   O1216934   3.776   0.769   6.287 -0.1579 -0.6720  0.1205
  153SAPE   O1116935   3.543   0.761   6.361  0.5394  1.2169 -0.0077
  153SAPE    C116936   3.407   0.800   6.379  0.5077  0.0820 -0.4818
  153SAPE    HA16937   3.382   0.876   6.302  0.6914 -2.1716 -2.8401
  153SAPE    HB16938   3.336   0.715   6.370 -0.4104  0.4582  2.7582
  153SAPE    C216939   3.384   0.870   6.516 -0.1221  0.0592  0.1625
  153SAPE    HS16940   3.441   0.965   6.505  2.5742 -1.5576 -0.4732
  153SAPE   O2116941   3.442   0.793   6.618 -0.4452  0.7408  0.1890
  153SAPE   C2116942   3.494   0.862   6.716  0.1035 -0.0541  0.0165
  153SAPE   O2216943   3.508   0.984   6.720 -0.7210 -0.1367  0.5845
  153SAPE   C2216944   3.507   0.770   6.836  0.6003 -0.3066 -0.0737
  153SAPE   H2R16945   3.424   0.699   6.853  0.2610  0.1705  0.2639
  153SAPE   H2S16946   3.604   0.718   6.821  0.5109 -0.8405  1.1960
  153SAPE    C316947   3.237   0.901   6.549 -1.1774 -0.4468 -0.6307
  153SAPE    HX16948   3.187   0.963   6.472  0.9299  0.5615 -1.2123
  153SAPE    HY16949   3.243   0.960   6.643 -0.8009 -3.0337  1.0282
  153SAPE   O3116950   3.165   0.781   6.568 -0.1153 -0.3424 -0.2296
  153SAPE   C3116951   3.140   0.741   6.686 -0.1465  0.1807 -0.2745
  153SAPE   O3216952   3.186   0.787   6.791  0.4318 -0.1219  0.5840
  153SAPE   C3216953   3.036   0.631   6.680 -0.4077  0.7897  0.0542
  153SAPE   H2X16954   2.970   0.652   6.593 -0.7367  1.9065  0.5684
  153SAPE   H2Y16955   2.957   0.635   6.758 -2.3429  0.3483 -1.8159
  153SAPE   C2316956   3.530   0.854   6.961  0.0208 -0.2704  0.2706
  153SAPE   H3R16957   3.450   0.929   6.983 -1.1033 -1.3133 -0.2142
  153SAPE   H3S16958   3.615   0.923   6.941 -0.1392 -0.6429 -1.7209
  153SAPE   C2416959   3.552   0.760   7.080  0.3897 -0.7630 -0.1297
  153SAPE   H4R16960   3.579   0.821   7.169  0.2277 -1.7246  0.5835
  153SAPE   H4S16961   3.636   0.693   7.051  0.3546 -1.4320  1.2533
  153SAPE   C2516962   3.433   0.674   7.123  0.2416  0.1101  0.4366
  153SAPE   H5R16963   3.369   0.638   7.041  2.8086 -0.7679 -1.2240
  153SAPE   C2616964   3.379   0.650   7.248  0.1357 -1.0385  0.7288
  153SAPE   H6R16965   3.306   0.569   7.261 -1.0482  0.0452  0.9317
  153SAPE   C2716966   3.433   0.704   7.377  0.7405  0.5533  0.3530
  153SAPE   H7R16967   3.352   0.687   7.451 -1.3711 -2.4485 -2.5031
  153SAPE   H7S16968   3.448   0.814   7.372 -3.6429  1.3409  2.3592
  153SAPE   C2816969   3.563   0.650   7.428 -0.4252 -0.0581 -0.0846
  153SAPE   H8R16970   3.639   0.616   7.355  0.5576 -0.9605  1.3249
  153SAPE   C2916971   3.587   0.629   7.561 -0.3275  0.6355 -0.4788
  153SAPE   H9R16972   3.691   0.602   7.584 -0.5994 -0.9589 -1.0524
  153SAPE  C21016973   3.499   0.657   7.680 -0.6815  0.0552  0.4524
  153SAPE  H10R16974   3.429   0.733   7.640 -0.7453 -0.3928 -0.3160
  153SAPE  H10S16975   3.561   0.696   7.763  0.1984 -0.1585 -0.0978
  153SAPE  C21116976   3.417   0.534   7.723 -0.2888  0.3775 -0.4222
  153SAPE  H11R16977   3.328   0.514   7.662 -0.0047  1.1075 -1.0780
  153SAPE  C21216978   3.435   0.471   7.838 -0.8499 -0.1555 -0.3745
  153SAPE  H12R16979   3.393   0.373   7.867  2.1578 -1.0059  1.3704
  153SAPE  C21316980   3.554   0.496   7.936  0.0865  0.1432  0.6581
  153SAPE  H13R16981   3.541   0.592   7.991  0.8278 -0.3915  1.7968
  153SAPE  H13S16982   3.651   0.500   7.883  0.3335 -2.1203  0.8959
  153SAPE  C21416983   3.578   0.391   8.040  0.6278  0.4107  0.5016
  153SAPE  H14R16984   3.636   0.302   8.014 -1.4912 -1.0293  0.5538
  153SAPE  C21516985   3.547   0.399   8.173  0.5306  0.1937 -0.0792
  153SAPE  H15R16986   3.592   0.328   8.244  0.6369 -0.5382 -0.8785
  153SAPE  C21616987   3.478   0.509   8.251 -0.0007 -0.0703  0.4891
  153SAPE  H16R16988   3.412   0.459   8.325  1.0067 -1.2776  0.6064
  153SAPE  H16S16989   3.427   0.573   8.177  2.2091 -0.5737 -1.5527
  153SAPE  C21716990   3.580   0.593   8.336 -1.2552 -0.4974 -0.0969
  153SAPE  H17R16991   3.643   0.532   8.404 -0.6924  0.6106  0.3967
  153SAPE  H17S16992   3.510   0.642   8.407  0.3244 -0.5396  1.5297
  153SAPE  C21816993   3.670   0.676   8.242  0.1272 -0.7627 -0.2442
  153SAPE  H18R16994   3.606   0.749   8.188  1.3785 -0.2730 -1.0707
  153SAPE  H18S16995   3.722   0.599   8.181  1.1349 -0.7370  0.5752
  153SAPE  C21916996   3.763   0.761   8.328 -0.6320 -0.1076 -0.2504
  153SAPE  H19R16997   3.833   0.695   8.384 -0.2048  1.3300  0.9588
  153SAPE  H19S16998   3.697   0.805   8.405 -1.0344  0.5841 -0.9833
  153SAPE  C22016999   3.847   0.856   8.251 -0.0579 -0.1458 -0.4534
  153SAPE  H20R17000   3.942   0.805   8.221 -0.2117  0.0752 -1.3474
  153SAPE  H20S17001   3.874   0.943   8.315 -1.3537 -0.5932  0.7187
  153SAPE  H20T17002   3.788   0.893   8.164 -0.1882  0.9608  0.1000
  153SAPE   C3317003   3.092   0.487   6.677 -0.6859  0.2941  0.0740
  153SAPE   H3X17004   3.172   0.482   6.600  0.1432  0.2270  0.9211
  153SAPE   H3Y17005   3.014   0.417   6.640 -1.2106 -2.1037  5.2795
  153SAPE   C3417006   3.146   0.426   6.808  1.2783  0.0281 -0.7046
  153SAPE   H4X17007   3.246   0.474   6.820  0.4018  2.0413 -1.2770
  153SAPE   H4Y17008   3.156   0.317   6.794  0.1408 -0.3673  1.3816
  153SAPE   C3517009   3.067   0.457   6.942  0.4760 -0.7249 -0.6541
  153SAPE   H5X17010   2.956   0.454   6.941  0.4201 -0.1395  1.3353
  153SAPE   H5Y17011   3.101   0.557   6.975 -0.7234 -0.4561 -0.2223
  153SAPE   C3617012   3.095   0.355   7.049  1.1893 -0.6519 -0.3330
  153SAPE   H6X17013   3.185   0.386   7.106 -0.0487  0.5060  1.0053
  153SAPE   H6Y17014   3.117   0.255   7.004  1.6590 -1.2718  1.2523
  153SAPE   C3717015   2.983   0.354   7.159  0.2470 -0.9137 -0.1767
  153SAPE   H7X17016   2.886   0.318   7.119 -0.0448 -1.2213  0.7865
  153SAPE   H7Y17017   2.967   0.460   7.186  2.5365 -0.2798 -1.2091
  153SAPE   C3817018   3.006   0.260   7.275  0.3461  0.0387  0.3486
  153SAPE   H8X17019   3.114   0.255   7.298 -0.0124 -6.2222  1.7307
  153SAPE   H8Y17020   2.979   0.154   7.255 -0.8040  0.1938  0.9609
  153SAPE   C3917021   2.942   0.314   7.403 -0.1564  0.1758 -0.6726
  153SAPE   H9X17022   2.832   0.318   7.384 -0.4914  3.6966  1.5936
  153SAPE   H9Y17023   2.978   0.419   7.405 -0.0169  0.1254 -0.5450
  153SAPE  C31017024   2.994   0.231   7.525  0.6254 -0.1646 -0.0632
  153SAPE  H10X17025   3.103   0.249   7.535  0.6715 -0.3597 -0.2190
  153SAPE  H10Y17026   2.977   0.121   7.524 -0.6300  0.0150  0.6356
  153SAPE  C31117027   2.935   0.284   7.660 -0.0245  0.1763  0.3516
  153SAPE  H11X17028   2.827   0.260   7.665 -0.1410  0.2947 -1.1676
  153SAPE  H11Y17029   2.938   0.394   7.646  0.8697  0.0318 -0.7278
  153SAPE  C31217030   3.009   0.245   7.782 -0.1106  0.0607  0.2193
  153SAPE  H12X17031   3.119   0.262   7.788  0.5022 -3.2428 -0.4428
  153SAPE  H12Y17032   2.989   0.138   7.804  0.2778  0.4969  2.8894
  153SAPE  C31317033   2.958   0.320   7.909  0.0484  0.0693 -0.7131
  153SAPE  H13X17034   3.012   0.277   7.996 -0.7871 -0.2010 -0.3229
  153SAPE  H13Y17035   2.848   0.303   7.918 -0.3977  1.8575 -2.2841
  153SAPE  C31417036   2.985   0.471   7.914  0.0599  0.2728  0.2107
  153SAPE  H14X17037   2.890   0.528   7.919 -0.7096 -0.8107 -1.4651
  153SAPE  H14Y17038   3.027   0.508   7.818 -2.6063 -0.3328 -1.2591
  153SAPE  C31517039   3.084   0.514   8.031 -0.3412  0.1063 -0.1865
  153SAPE  H15X17040   3.114   0.619   8.008  0.2156  0.0722  0.3804
  153SAPE  H15Y17041   3.176   0.457   8.008 -1.2838 -1.2721 -0.5992
  153SAPE  C31617042   3.045   0.490   8.170  0.3334 -0.6067 -0.2224
  153SAPE  H16X17043   3.061   0.381   8.185 -1.4127 -0.8700 -0.1741
  153SAPE  H16Y17044   2.938   0.513   8.186  0.2768 -1.1656  0.2067
  153SAPE  C31717045   3.125   0.572   8.278  0.5915 -0.1047 -0.0003
  153SAPE  H17X17046   3.104   0.677   8.247  1.1669  0.4266  1.3756
  153SAPE  H17Y17047   3.235   0.566   8.264  0.7975 -1.2290  2.0056
  153SAPE  C31817048   3.092   0.561   8.424 -0.7165  0.6885 -0.6368
  153SAPE  H18X17049   2.986   0.574   8.454 -0.6153 -1.1470  0.6777
  153SAPE  H18Y17050   3.168   0.616   8.485  0.1771  1.2535 -2.2207
  153SAPE  H18Z17051   3.116   0.455   8.450  0.3607  1.2736  0.8598
  154SAPE     N17052   1.712   5.966   6.190  0.5230  0.0971  0.2261
  154SAPE   HN117053   1.658   5.884   6.226  0.1792 -0.6833 -1.9895
  154SAPE   HN217054   1.706   5.953   6.087  0.0316  0.2977  0.2288
  154SAPE   HN317055   1.813   5.955   6.210  0.0703 -0.2271  2.5056
  154SAPE   C1217056   1.661   6.105   6.208  0.3833 -0.4942 -0.7052
  154SAPE  H12A17057   1.749   6.173   6.212  0.5949 -0.7728 -0.5828
  154SAPE  H12B17058   1.615   6.106   6.309 -2.1171  1.2060 -1.8092
  154SAPE   C1117059   1.562   6.143   6.096 -0.2128 -0.2829  0.5619
  154SAPE  H11A17060   1.605   6.102   6.002  0.3647  0.1949  0.6179
  154SAPE  H11B17061   1.569   6.254   6.091  1.9450 -0.4158 -0.0196
  154SAPE     P17062   1.305   6.168   6.149  0.0707  0.6623  0.0710
  154SAPE   O1317063   1.258   6.255   6.032 -0.0493 -0.4416  0.2209
  154SAPE   O1417064   1.200   6.079   6.201 -0.4982  0.1878 -0.4557
  154SAPE   O1217065   1.431   6.080   6.107 -0.2655 -0.4003  0.4056
  154SAPE   O1117066   1.368   6.247   6.275 -0.0883  0.1821  1.0605
  154SAPE    C117067   1.292   6.257   6.400  0.2468 -0.3764  0.1940
  154SAPE    HA17068   1.199   6.316   6.383  0.7151  0.6329  1.0411
  154SAPE    HB17069   1.267   6.156   6.439 -1.3518 -0.7945 -1.8543
  154SAPE    C217070   1.372   6.327   6.514 -0.3828 -0.1966  0.6095
  154SAPE    HS17071   1.380   6.426   6.464 -0.1187  0.0939  1.2134
  154SAPE   O2117072   1.499   6.268   6.534  0.7051  0.6630  0.0398
  154SAPE   C2117073   1.602   6.352   6.548 -0.5924  0.8058 -0.3476
  154SAPE   O2217074   1.590   6.475   6.558  0.1797  0.0258  0.3694
  154SAPE   C2217075   1.734   6.270   6.575 -0.1380  0.2030  0.8210
  154SAPE   H2R17076   1.694   6.205   6.655 -0.7866  0.5870  0.8167
  154SAPE   H2S17077   1.767   6.224   6.479 -1.0901 -0.8533  1.0000
  154SAPE    C317078   1.290   6.327   6.639 -0.5641  0.3972 -0.6111
  154SAPE    HX17079   1.213   6.406   6.631  1.1198  1.9446 -2.3305
  154SAPE    HY17080   1.348   6.361   6.728  2.2881 -3.3809 -0.9169
  154SAPE   O3117081   1.223   6.205   6.667  0.2630 -0.4690  0.2837
  154SAPE   C3117082   1.282   6.128   6.761  0.9181 -0.4681  0.8180
  154SAPE   O3217083   1.388   6.145   6.817 -0.3389 -0.1218  0.5166
  154SAPE   C3217084   1.203   6.009   6.781  0.4624  0.1753 -0.5108
  154SAPE   H2X17085   1.263   5.942   6.846  1.3199  1.1268 -0.3038
  154SAPE   H2Y17086   1.166   5.957   6.690 -3.8459  1.2557  0.5299
  154SAPE   C2317087   1.847   6.361   6.628  0.3620  0.0822 -0.5750
  154SAPE   H3R17088   1.810   6.425   6.710 -0.5072  2.0706 -2.4521
  154SAPE   H3S17089   1.864   6.430   6.542 -0.4942 -2.3819 -2.7888
  154SAPE   C2417090   1.964   6.280   6.661 -0.3884  0.6765  0.1866
  154SAPE   H4R17091   2.001   6.216   6.578  2.3768  1.3602  0.8510
  154SAPE   H4S17092   1.938   6.207   6.740 -0.6802 -0.1261 -0.6394
  154SAPE   C2517093   2.086   6.360   6.684  0.5612  0.0951 -0.2209
  154SAPE   H5R17094   2.148   6.374   6.595  0.4738 -1.4128 -0.5363
  154SAPE   C2617095   2.122   6.406   6.810  0.8288  0.4217 -0.1034
  154SAPE   H6R17096   2.218   6.460   6.817  1.7912 -1.1896 -0.6141
  154SAPE   C2717097   2.057   6.395   6.946 -0.6975 -0.3530 -0.4613
  154SAPE   H7R17098   1.947   6.393   6.929 -0.7896  0.5326  0.0397
  154SAPE   H7S17099   2.067   6.494   6.994  2.2130 -0.3766 -0.9275
  154SAPE   C2817100   2.111   6.279   7.024  0.5038  0.8494 -0.1843
  154SAPE   H8R17101   2.202   6.232   6.982 -0.6541 -2.6749  1.1338
  154SAPE   C2917102   2.060   6.232   7.132  0.7228  0.0553 -0.2577
  154SAPE   H9R17103   2.126   6.158   7.180 -0.0679 -1.0348 -0.8213
  154SAPE  C21017104   1.932   6.273   7.206  0.3351  0.4590 -1.4147
  154SAPE  H10R17105   1.859   6.327   7.143  0.6060  0.4639 -1.7263
  154SAPE  H10S17106   1.955   6.351   7.283  0.6601 -1.6505  0.6974
  154SAPE  C21117107   1.852   6.157   7.271 -0.4117  0.4847 -0.3103
  154SAPE  H11R17108   1.803   6.093   7.196  2.3162 -0.9561 -0.9435
  154SAPE  C21217109   1.847   6.114   7.397  0.5186 -0.0295  0.2124
  154SAPE  H12R17110   1.794   6.018   7.411 -0.6189  0.7433  1.2862
  154SAPE  C21317111   1.918   6.175   7.514  0.4584 -0.5668  0.6307
  154SAPE  H13R17112   1.894   6.283   7.505 -3.4410 -1.5505 -2.1189
  154SAPE  H13S17113   2.028   6.164   7.503  0.3017 -0.7582 -0.7822
  154SAPE  C21417114   1.873   6.139   7.651 -0.1900  0.3126 -0.4178
  154SAPE  H14R17115   1.793   6.064   7.654  0.4694 -0.6143 -4.2400
  154SAPE  C21517116   1.927   6.176   7.766 -0.0929 -0.3734 -0.1846
  154SAPE  H15R17117   1.879   6.150   7.862  1.5445 -0.2207  0.6839
  154SAPE  C21617118   2.045   6.266   7.775  0.5134  0.0734  0.5693
  154SAPE  H16R17119   2.019   6.373   7.783 -1.6811 -0.2982 -1.1770
  154SAPE  H16S17120   2.107   6.271   7.683 -0.7361 -0.5129 -0.3342
  154SAPE  C21717121   2.154   6.243   7.892 -0.1825  0.1879 -0.1020
  154SAPE  H17R17122   2.237   6.316   7.880  0.4994 -0.4581  0.6694
  154SAPE  H17S17123   2.195   6.140   7.882 -1.1683 -0.2144 -0.0723
  154SAPE  C21817124   2.102   6.257   8.028 -0.0230 -0.1379 -0.0312
  154SAPE  H18R17125   2.185   6.244   8.101  0.0975  0.5540 -0.0382
  154SAPE  H18S17126   2.018   6.186   8.044 -0.0376 -0.5921 -2.0679
  154SAPE  C21917127   2.053   6.396   8.063 -0.0011 -0.5742 -0.2116
  154SAPE  H19R17128   2.077   6.462   7.977  1.2220  0.4844  0.9211
  154SAPE  H19S17129   2.118   6.437   8.144  0.5064  1.2701 -1.5250
  154SAPE  C22017130   1.901   6.419   8.092 -0.4298  0.0376 -0.1258
  154SAPE  H20R17131   1.854   6.345   8.160  0.9296 -1.1989 -0.4989
  154SAPE  H20S17132   1.852   6.412   7.993 -0.7623 -1.1698  0.1218
  154SAPE  H20T17133   1.881   6.524   8.122 -0.8138  0.2767 -1.1880
  154SAPE   C3317134   1.081   6.050   6.870  0.3177  1.1146 -0.0315
  154SAPE   H3X17135   1.019   5.961   6.890 -1.7574  1.9572 -2.3448
  154SAPE   H3Y17136   1.013   6.117   6.812 -2.5465 -0.9142  0.8753
  154SAPE   C3417137   1.112   6.127   6.995 -0.1729  0.4067 -0.2432
  154SAPE   H4X17138   1.020   6.149   7.054 -1.0658 -1.5415 -0.8884
  154SAPE   H4Y17139   1.154   6.227   6.969  0.4350  0.0803 -0.5228
  154SAPE   C3517140   1.213   6.072   7.096 -0.3742  0.2966  0.1933
  154SAPE   H5X17141   1.315   6.093   7.057 -0.0063 -0.6919  0.6081
  154SAPE   H5Y17142   1.209   5.961   7.099  1.3356  0.1706 -1.5044
  154SAPE   C3617143   1.200   6.123   7.243 -0.3982  0.1375 -0.2232
  154SAPE   H6X17144   1.118   6.074   7.300 -0.7815  0.4083 -0.5340
  154SAPE   H6Y17145   1.188   6.233   7.234 -1.9351  0.1365  1.3858
  154SAPE   C3717146   1.331   6.092   7.320  0.0249  0.1247 -0.6280
  154SAPE   H7X17147   1.405   6.162   7.276 -0.0566  1.3063  1.0761
  154SAPE   H7Y17148   1.354   5.987   7.293 -2.8052 -1.2736  2.1025
  154SAPE   C3817149   1.308   6.083   7.472 -0.0962 -0.5964 -0.4722
  154SAPE   H8X17150   1.214   6.027   7.489 -1.1862  0.8261 -1.7067
  154SAPE   H8Y17151   1.280   6.184   7.510 -0.8856 -1.2087  0.6156
  154SAPE   C3917152   1.429   6.030   7.544  0.2446 -0.3498 -0.1472
  154SAPE   H9X17153   1.522   6.083   7.511  0.5046  0.0800  1.2595
  154SAPE   H9Y17154   1.438   5.921   7.523  0.6637 -0.0393 -1.6694
  154SAPE  C31017155   1.419   6.056   7.695 -0.2330 -0.4196  0.2227
  154SAPE  H10X17156   1.404   6.165   7.703 -3.3685 -0.7148 -0.9412
  154SAPE  H10Y17157   1.519   6.036   7.739 -0.2807  1.0856  1.0357
  154SAPE  C31117158   1.320   5.975   7.774 -0.4984  0.0891  0.7323
  154SAPE  H11X17159   1.365   5.954   7.873  0.9664 -3.0470 -0.5104
  154SAPE  H11Y17160   1.302   5.871   7.737  3.4828 -0.1452 -0.7724
  154SAPE  C31217161   1.189   6.038   7.810 -0.2816 -0.4121  0.1475
  154SAPE  H12X17162   1.122   6.040   7.722 -2.4391  0.9957  1.7654
  154SAPE  H12Y17163   1.195   6.145   7.842  0.0286  0.1826 -1.8449
  154SAPE  C31317164   1.102   5.961   7.913  0.2255  0.1916  0.0163
  154SAPE  H13X17165   1.126   5.853   7.909 -0.2961  0.0860 -0.3858
  154SAPE  H13Y17166   0.994   5.970   7.888  0.6058 -0.1147 -1.7964
  154SAPE  C31417167   1.114   6.027   8.056 -0.2322  0.0958  0.4283
  154SAPE  H14X17168   1.128   6.134   8.030  2.9638 -1.0156 -2.9270
  154SAPE  H14Y17169   1.202   5.994   8.116 -0.5019  1.7371  1.7620
  154SAPE  C31517170   0.977   6.021   8.139  0.1585 -0.1437  0.1991
  154SAPE  H15X17171   0.892   6.052   8.075  0.8656  1.3707 -0.0430
  154SAPE  H15Y17172   0.989   6.099   8.218 -0.3678  0.8829 -0.7164
  154SAPE  C31617173   0.942   5.883   8.202  0.5927 -0.4791 -0.1305
  154SAPE  H16X17174   1.030   5.856   8.263  0.2801 -0.2668  0.4155
  154SAPE  H16Y17175   0.932   5.804   8.125 -2.0610  0.1602 -0.5210
  154SAPE  C31717176   0.819   5.883   8.296 -0.2042  0.0027  0.4264
  154SAPE  H17X17177   0.725   5.889   8.237 -1.1815 -0.6932  1.8966
  154SAPE  H17Y17178   0.824   5.980   8.349 -0.2765  1.2330 -1.7566
  154SAPE  C31817179   0.828   5.762   8.396 -0.5147  0.2642 -0.4783
  154SAPE  H18X17180   0.855   5.664   8.351  2.3415  0.0615  1.5424
  154SAPE  H18Y17181   0.743   5.743   8.465 -1.1160 -1.6002 -1.6876
  154SAPE  H18Z17182   0.914   5.771   8.465 -0.5547  0.6989 -0.4873
  155SAPE     N17183   1.244   0.110   6.449 -0.3640  0.8011 -0.3188
  155SAPE   HN117184   1.153   0.141   6.489 -0.4002  2.2686 -1.5078
  155SAPE   HN217185   1.270   0.172   6.369 -0.3918  2.0225  0.6020
  155SAPE   HN317186   1.227   0.017   6.406  0.2721  1.5268 -2.1868
  155SAPE   C1217187   1.362   0.097   6.541  0.2636 -0.4106  0.3176
  155SAPE  H12A17188   1.446   0.066   6.475 -2.6341 -0.4047 -3.5655
  155SAPE  H12B17189   1.344   0.022   6.621 -2.2815 -1.0086 -0.7844
  155SAPE   C1117190   1.401   0.216   6.632  0.5016 -0.0627  0.0084
  155SAPE  H11A17191   1.497   0.202   6.685 -0.4571 -0.9055  1.5782
  155SAPE  H11B17192   1.334   0.223   6.721 -1.0658  0.5615 -1.1820
  155SAPE     P17193   1.318   0.453   6.532  0.2476  0.4170 -0.0621
  155SAPE   O1317194   1.367   0.551   6.432 -0.1217  0.8974 -0.3308
  155SAPE   O1417195   1.183   0.395   6.514  0.2178  0.2148  0.2142
  155SAPE   O1217196   1.414   0.337   6.557 -0.0314  0.5251 -0.1500
  155SAPE   O1117197   1.315   0.529   6.665 -0.2780  0.4450 -0.8182
  155SAPE    C117198   1.434   0.580   6.729 -0.2248  0.0994  0.4717
  155SAPE    HA17199   1.528   0.525   6.706 -0.0944 -0.3667  2.0758
  155SAPE    HB17200   1.443   0.679   6.680  1.1604 -0.3776 -0.2740
  155SAPE    C217201   1.429   0.581   6.886  0.6480 -0.1382  0.5294
  155SAPE    HS17202   1.493   0.666   6.918 -0.8125  0.9753  0.5586
  155SAPE   O2117203   1.470   0.453   6.930  0.6127 -0.4728  0.2615
  155SAPE   C2117204   1.599   0.432   6.942 -0.3097 -0.4046  0.6458
  155SAPE   O2217205   1.691   0.510   6.911  0.3101  0.1703 -0.0257
  155SAPE   C2217206   1.623   0.306   7.028  0.0551 -0.5232 -0.6401
  155SAPE   H2R17207   1.528   0.248   7.021 -0.0006 -0.4554 -0.4337
  155SAPE   H2S17208   1.710   0.252   6.985 -1.6474 -5.0499  1.3599
  155SAPE    C317209   1.286   0.607   6.926  0.0646  0.7699  0.0577
  155SAPE    HX17210   1.214   0.530   6.890  1.1407  0.0263 -0.5394
  155SAPE    HY17211   1.246   0.700   6.880  1.3100  1.0339 -0.4900
  155SAPE   O3117212   1.276   0.624   7.062  0.0817  0.2980  0.1776
  155SAPE   C3117213   1.315   0.734   7.126  0.8241  0.3149  0.7644
  155SAPE   O3217214   1.376   0.827   7.077 -0.0729 -0.3062 -0.3293
  155SAPE   C3217215   1.264   0.729   7.269  0.2094 -0.0582 -0.5455
  155SAPE   H2X17216   1.175   0.663   7.275 -0.8405  1.4796  1.5294
  155SAPE   H2Y17217   1.240   0.832   7.303  0.6111 -0.5753  1.3674
  155SAPE   C2317218   1.646   0.339   7.173  0.0670 -0.4755 -0.2760
  155SAPE   H3R17219   1.590   0.431   7.201 -1.3676 -0.8386 -1.8966
  155SAPE   H3S17220   1.753   0.368   7.183  0.2315  0.1685 -3.4107
  155SAPE   C2417221   1.614   0.222   7.271  0.4737  0.1103  0.8014
  155SAPE   H4R17222   1.704   0.210   7.335 -0.1940 -1.7584  1.4258
  155SAPE   H4S17223   1.602   0.126   7.215  0.2679  1.7244 -2.0567
  155SAPE   C2517224   1.494   0.258   7.342 -0.2864  0.3452  0.2731
  155SAPE   H5R17225   1.408   0.279   7.276 -2.5009 -1.5891  2.4679
  155SAPE   C2617226   1.476   0.272   7.474 -0.3477  0.2756 -0.6737
  155SAPE   H6R17227   1.376   0.300   7.511  0.3369  0.0139  1.4410
  155SAPE   C2717228   1.573   0.249   7.589 -0.2294 -0.4329 -0.1393
  155SAPE   H7R17229   1.561   0.344   7.645  0.5011  0.0021 -0.7253
  155SAPE   H7S17230   1.679   0.254   7.558 -0.5902 -0.4790 -1.3971
  155SAPE   C2817231   1.555   0.126   7.670 -0.5234 -0.3182  0.4821
  155SAPE   H8R17232   1.587   0.037   7.614 -2.8981 -2.2441  2.0975
  155SAPE   C2917233   1.513   0.126   7.796 -0.1944  0.3278  0.8980
  155SAPE   H9R17234   1.499   0.030   7.849 -1.6947 -0.0118 -0.0660
  155SAPE  C21017235   1.459   0.239   7.881  0.4824  0.3768 -0.0054
  155SAPE  H10R17236   1.387   0.291   7.815  1.8418  3.3491  0.7724
  155SAPE  H10S17237   1.536   0.317   7.898  0.7476 -0.0085  0.5790
  155SAPE  C21117238   1.387   0.198   8.007 -0.3684 -0.4669  0.4456
  155SAPE  H11R17239   1.279   0.221   8.003 -0.5622 -1.2816  0.9291
  155SAPE  C21217240   1.426   0.136   8.118  0.4655  0.5592 -0.1102
  155SAPE  H12R17241   1.352   0.117   8.198 -1.1205  3.1911 -0.9008
  155SAPE  C21317242   1.567   0.090   8.148 -0.0651  0.0038 -0.2386
  155SAPE  H13R17243   1.618   0.176   8.197  0.0865  0.9816 -2.0649
  155SAPE  H13S17244   1.620   0.085   8.050  1.1341 -0.5550  0.4324
  155SAPE  C21417245   1.576  -0.039   8.231 -0.9586 -0.4426  0.1675
  155SAPE  H14R17246   1.484  -0.098   8.238 -1.9598  1.0292 -0.3370
  155SAPE  C21517247   1.682  -0.072   8.307  0.6924  0.5743 -0.6835
  155SAPE  H15R17248   1.660  -0.161   8.368 -0.2783  2.4115  1.7324
  155SAPE  C21617249   1.811  -0.001   8.328  0.1551 -0.3932 -0.5655
  155SAPE  H16R17250   1.846   0.043   8.232  0.5157 -0.8264 -0.6292
  155SAPE  H16S17251   1.890  -0.067   8.369  1.7388  2.2903  0.8639
  155SAPE  C21717252   1.794   0.099   8.445 -0.1063 -0.3964 -0.3796
  155SAPE  H17R17253   1.788   0.046   8.543  1.1622  0.6843  0.3101
  155SAPE  H17S17254   1.714   0.174   8.430 -0.5295 -0.4319  1.5788
  155SAPE  C21817255   1.926   0.180   8.466  0.2278  0.1731  0.4098
  155SAPE  H18R17256   1.955   0.228   8.369  0.3573  0.0988  0.4109
  155SAPE  H18S17257   2.004   0.106   8.493  1.5718  0.9419 -1.2529
  155SAPE  C21917258   1.913   0.285   8.573 -0.6872  0.1324 -0.3281
  155SAPE  H19R17259   1.841   0.357   8.527 -1.2039  0.6314  1.2209
  155SAPE  H19S17260   2.006   0.340   8.599 -0.7625 -0.0751  0.3932
  155SAPE  C22017261   1.866   0.235   8.713 -1.2561 -0.2143  0.5615
  155SAPE  H20R17262   1.926   0.149   8.748 -1.3387 -0.0356  1.1492
  155SAPE  H20S17263   1.763   0.197   8.698 -1.1214  0.3792 -2.1386
  155SAPE  H20T17264   1.858   0.322   8.782  1.5718 -0.0611  0.7711
  155SAPE   C3317265   1.363   0.650   7.351  0.0425  0.0088 -0.6255
  155SAPE   H3X17266   1.462   0.699   7.339 -0.2296  0.8710  0.6055
  155SAPE   H3Y17267   1.378   0.548   7.311 -0.9061 -1.2109  2.0418
  155SAPE   C3417268   1.308   0.643   7.495 -0.3363 -0.0337  0.2635
  155SAPE   H4X17269   1.370   0.565   7.543  0.8558 -0.6647 -2.1997
  155SAPE   H4Y17270   1.203   0.606   7.506  0.1751 -1.8468 -0.7964
  155SAPE   C3517271   1.312   0.775   7.573  0.2604 -0.5459 -0.0739
  155SAPE   H5X17272   1.248   0.856   7.531  0.0505  0.3494  1.9173
  155SAPE   H5Y17273   1.417   0.810   7.571 -0.1004  0.6356  0.8749
  155SAPE   C3617274   1.267   0.765   7.717 -0.7331 -0.0672 -0.1248
  155SAPE   H6X17275   1.171   0.709   7.715 -1.0874  0.5402 -0.3003
  155SAPE   H6Y17276   1.252   0.870   7.751  0.1544 -0.3728  1.2375
  155SAPE   C3717277   1.364   0.707   7.823 -0.8821 -0.0712 -0.2783
  155SAPE   H7X17278   1.445   0.782   7.839 -0.6269  0.0411 -1.9664
  155SAPE   H7Y17279   1.417   0.617   7.783 -0.2686  0.0245  0.3009
  155SAPE   C3817280   1.302   0.657   7.954 -0.3950  0.6577 -0.7344
  155SAPE   H8X17281   1.235   0.568   7.945  0.9710 -0.2425 -2.2049
  155SAPE   H8Y17282   1.245   0.735   8.009 -1.1703  0.5638 -1.3974
  155SAPE   C3917283   1.411   0.619   8.064  0.1076  0.6198  0.3796
  155SAPE   H9X17284   1.479   0.704   8.089  2.3337 -0.6140 -1.3237
  155SAPE   H9Y17285   1.470   0.534   8.025  0.8115  1.0583  0.4616
  155SAPE  C31017286   1.353   0.561   8.194  0.7118 -0.6744 -0.2971
  155SAPE  H10X17287   1.267   0.493   8.173 -0.1204  0.7611 -1.6744
  155SAPE  H10Y17288   1.318   0.654   8.244  2.9330 -0.1529  0.3166
  155SAPE  C31117289   1.452   0.481   8.276 -0.2080 -0.0513  0.4643
  155SAPE  H11X17290   1.545   0.540   8.288  1.0864 -2.1507  1.0205
  155SAPE  H11Y17291   1.485   0.395   8.214 -1.0783 -0.2182  0.2358
  155SAPE  C31217292   1.402   0.435   8.411 -0.1517 -0.3150 -0.4020
  155SAPE  H12X17293   1.320   0.360   8.409  0.2657 -0.7548 -1.1021
  155SAPE  H12Y17294   1.349   0.526   8.446  0.0148 -0.2126 -0.4160
  155SAPE  C31317295   1.513   0.390   8.501  0.0434 -0.3870 -0.3449
  155SAPE  H13X17296   1.581   0.478   8.509  0.2008 -0.5799  0.4884
  155SAPE  H13Y17297   1.576   0.309   8.460  1.7301 -0.9216  3.0861
  155SAPE  C31417298   1.471   0.361   8.646  0.2319  0.2218 -0.5992
  155SAPE  H14X17299   1.563   0.321   8.694  1.6351  1.5216 -2.1099
  155SAPE  H14Y17300   1.393   0.282   8.652 -0.7198  1.2433  0.5743
  155SAPE  C31517301   1.427   0.478   8.729  0.8578 -0.9609 -0.5234
  155SAPE  H15X17302   1.405   0.434   8.828 -0.3098  0.8575  0.0467
  155SAPE  H15Y17303   1.333   0.515   8.683 -0.1554  0.0243  2.2583
  155SAPE  C31617304   1.526   0.589   8.754  0.0373 -0.5867  0.3049
  155SAPE  H16X17305   1.536   0.651   8.663 -2.1957 -0.1796  0.3035
  155SAPE  H16Y17306   1.627   0.547   8.772  1.3895  2.7886  1.0902
  155SAPE  C31717307   1.484   0.681   8.871 -0.1722  0.5546  0.4698
  155SAPE  H17X17308   1.467   0.620   8.962  0.8323  2.4287  1.9354
  155SAPE  H17Y17309   1.387   0.733   8.852 -0.2685  0.5481  0.9294
  155SAPE  C31817310   1.589   0.786   8.917  0.2157  0.1360  0.3466
  155SAPE  H18X17311   1.675   0.741   8.972  0.9955  1.1524 -0.0133
  155SAPE  H18Y17312   1.540   0.859   8.986  1.9065  2.8689 -1.2126
  155SAPE  H18Z17313   1.627   0.855   8.838 -1.9140  0.6551 -0.2478
  156SAPE     N17314   0.215   1.136   6.659 -0.8123 -0.0076  0.2026
  156SAPE   HN117315   0.215   1.060   6.731  2.3232  0.5362  0.8714
  156SAPE   HN217316   0.212   1.104   6.560  0.9738 -2.5780  0.9245
  156SAPE   HN317317   0.311   1.176   6.665 -0.0004 -1.5613 -1.7352
  156SAPE   C1217318   0.117   1.230   6.709 -0.2041 -0.2253 -0.2399
  156SAPE  H12A17319   0.119   1.331   6.663  1.5090  0.1952  0.7130
  156SAPE  H12B17320   0.130   1.246   6.818 -2.0150 -0.3785  0.0134
  156SAPE   C1117321  -0.029   1.179   6.707  0.6914 -0.2341  0.4875
  156SAPE  H11A17322  -0.101   1.262   6.728  3.6474  2.5627 -0.0098
  156SAPE  H11B17323  -0.037   1.106   6.790 -1.4873 -0.8316 -0.1983
  156SAPE     P17324  -0.139   1.188   6.467  0.0484  0.0232 -0.0681
  156SAPE   O1317325  -0.065   1.313   6.437 -0.6281  0.1682  0.3016
  156SAPE   O1417326  -0.174   1.095   6.362  0.2367  0.2603 -0.0796
  156SAPE   O1217327  -0.069   1.110   6.585  0.1600  0.3203  0.1699
  156SAPE   O1117328  -0.274   1.242   6.529 -1.0886 -0.1407 -0.0581
  156SAPE    C117329  -0.377   1.145   6.560  0.1270  0.0358 -0.4078
  156SAPE    HA17330  -0.440   1.130   6.470  1.5928 -0.9444 -1.2846
  156SAPE    HB17331  -0.340   1.042   6.576 -0.4703 -0.1312 -0.0901
  156SAPE    C217332  -0.454   1.168   6.690 -0.2095 -0.5747 -0.2485
  156SAPE    HS17333  -0.488   1.274   6.697  2.2288  0.1212  1.8772
  156SAPE   O2117334  -0.379   1.137   6.814 -0.4831 -0.1831  0.4771
  156SAPE   C2117335  -0.432   1.172   6.926  0.5341  0.2228 -0.3117
  156SAPE   O2217336  -0.531   1.236   6.945 -0.5393  0.5495  0.0229
  156SAPE   C2217337  -0.347   1.120   7.045  0.2811  0.1877 -0.3954
  156SAPE   H2R17338  -0.293   1.029   7.012 -0.4140 -0.7112  0.9420
  156SAPE   H2S17339  -0.275   1.202   7.067 -0.3750  1.4549 -2.7378
  156SAPE    C317340  -0.585   1.081   6.684 -0.6432  0.0587  0.1791
  156SAPE    HX17341  -0.653   1.105   6.599 -1.4292 -1.0934  0.4723
  156SAPE    HY17342  -0.644   1.100   6.776  1.2125  0.9839  1.1842
  156SAPE   O3117343  -0.558   0.937   6.674 -0.2764 -0.6827 -0.1108
  156SAPE   C3117344  -0.570   0.871   6.783  0.2438 -0.2443 -0.5344
  156SAPE   O3217345  -0.604   0.911   6.892  0.2406 -0.1423 -0.5051
  156SAPE   C3217346  -0.513   0.728   6.756 -0.1919 -1.1148  0.5780
  156SAPE   H2X17347  -0.409   0.740   6.717 -1.2406  1.8675 -1.4530
  156SAPE   H2Y17348  -0.589   0.690   6.684 -0.1745 -1.8345  0.9285
  156SAPE   C2317349  -0.441   1.076   7.158  0.1619 -0.0138  0.3974
  156SAPE   H3R17350  -0.502   0.989   7.127 -1.1877  0.0345  2.7380
  156SAPE   H3S17351  -0.511   1.159   7.180  1.4461  1.1696  0.0444
  156SAPE   C2417352  -0.368   1.038   7.288  0.5233 -0.4397  0.6908
  156SAPE   H4R17353  -0.309   1.125   7.324 -0.1309  0.2758  0.0614
  156SAPE   H4S17354  -0.293   0.960   7.262 -2.1222 -2.3601 -1.4896
  156SAPE   C2517355  -0.460   0.989   7.407 -0.1124  0.6842 -0.0299
  156SAPE   H5R17356  -0.538   0.917   7.378  2.2480 -1.8592 -0.2325
  156SAPE   C2617357  -0.444   1.012   7.541  0.0851 -0.2835 -0.1928
  156SAPE   H6R17358  -0.525   0.983   7.610 -0.6335  2.2466  0.1015
  156SAPE   C2717359  -0.341   1.103   7.603 -0.0041 -0.2041  0.2682
  156SAPE   H7R17360  -0.388   1.201   7.629  2.6398  1.0559  0.4550
  156SAPE   H7S17361  -0.254   1.126   7.537  0.7719 -1.7737  0.7342
  156SAPE   C2817362  -0.289   1.039   7.735 -0.6542 -0.2044  0.5516
  156SAPE   H8R17363  -0.225   0.950   7.724  0.6067  0.8024 -0.4371
  156SAPE   C2917364  -0.305   1.085   7.862  0.3384  0.5797  0.7506
  156SAPE   H9R17365  -0.267   1.031   7.950 -0.4069  3.1870  2.7444
  156SAPE  C21017366  -0.374   1.209   7.904  0.9627  0.9826 -0.7381
  156SAPE  H10R17367  -0.407   1.269   7.817  0.9635  1.5575 -0.3398
  156SAPE  H10S17368  -0.300   1.263   7.966 -1.2448  2.1699  0.9405
  156SAPE  C21117369  -0.506   1.190   7.983 -0.0069  0.1515 -0.6351
  156SAPE  H11R17370  -0.577   1.121   7.935 -0.2938  1.4360 -2.0972
  156SAPE  C21217371  -0.541   1.243   8.097  0.0735 -0.8125 -0.1051
  156SAPE  H12R17372  -0.634   1.215   8.148  0.0149 -1.1369 -0.3902
  156SAPE  C21317373  -0.452   1.330   8.184  0.0459 -0.2950 -0.1860
  156SAPE  H13R17374  -0.498   1.428   8.206  3.6406  1.0911  1.5535
  156SAPE  H13S17375  -0.355   1.362   8.141  0.4701 -1.3519 -0.0252
  156SAPE  C21417376  -0.415   1.268   8.314 -0.1239 -0.3403  0.6967
  156SAPE  H14R17377  -0.358   1.174   8.308  2.2334  1.0604  0.3564
  156SAPE  C21517378  -0.454   1.306   8.436  0.4549  0.6639 -0.3452
  156SAPE  H15R17379  -0.419   1.253   8.526 -1.0906  0.7951  0.3476
  156SAPE  C21617380  -0.542   1.421   8.481  0.9479 -0.1273 -0.5924
  156SAPE  H16R17381  -0.623   1.376   8.542 -0.1805  1.4351 -0.8848
  156SAPE  H16S17382  -0.588   1.469   8.392 -0.8356 -1.8945 -0.6389
  156SAPE  C21717383  -0.470   1.528   8.565  0.1206 -0.1423 -0.3763
  156SAPE  H17R17384  -0.417   1.472   8.646  0.8940  0.6678 -0.3151
  156SAPE  H17S17385  -0.544   1.599   8.608 -0.5604 -1.4224  0.5791
  156SAPE  C21817386  -0.360   1.604   8.480 -0.0783 -0.0639 -0.1669
  156SAPE  H18R17387  -0.408   1.667   8.401  1.1103  2.4385  1.0373
  156SAPE  H18S17388  -0.293   1.532   8.430 -0.4220 -0.1258 -0.5454
  156SAPE  C21917389  -0.279   1.707   8.558  0.3323 -0.5066 -0.9962
  156SAPE  H19R17390  -0.208   1.758   8.489  1.0532  3.3352  2.3494
  156SAPE  H19S17391  -0.205   1.657   8.624  0.9259 -1.8928 -2.6671
  156SAPE  C22017392  -0.365   1.816   8.624 -0.4709 -0.4007 -0.0579
  156SAPE  H20R17393  -0.310   1.902   8.669 -0.5201  0.3653 -1.4363
  156SAPE  H20S17394  -0.425   1.765   8.701 -0.3137 -1.3270 -0.5463
  156SAPE  H20T17395  -0.438   1.860   8.553 -1.1957  1.5701  1.8326
  156SAPE   C3317396  -0.508   0.639   6.878 -0.3082  0.1686  0.0045
  156SAPE   H3X17397  -0.489   0.534   6.847  2.8394  0.1330  1.8124
  156SAPE   H3Y17398  -0.607   0.644   6.928 -1.4412  1.7777 -2.3235
  156SAPE   C3417399  -0.391   0.654   6.975  0.3992  0.0875  0.2665
  156SAPE   H4X17400  -0.379   0.764   6.988 -0.0540  0.1651  0.0155
  156SAPE   H4Y17401  -0.297   0.612   6.933  0.4856  0.3589  0.1852
  156SAPE   C3517402  -0.429   0.583   7.104  0.3601  0.4368 -0.2770
  156SAPE   H5X17403  -0.422   0.473   7.092 -0.7171  0.4450 -1.0621
  156SAPE   H5Y17404  -0.538   0.596   7.124 -0.3767 -0.4450 -3.4774
  156SAPE   C3617405  -0.346   0.630   7.228  0.0461  0.2917  0.5542
  156SAPE   H6X17406  -0.362   0.740   7.230 -1.4790  0.0712  1.6385
  156SAPE   H6Y17407  -0.240   0.599   7.216  0.2303  0.9604  0.4224
  156SAPE   C3717408  -0.399   0.554   7.353 -0.3325 -0.9231  0.4553
  156SAPE   H7X17409  -0.364   0.449   7.359  1.1085 -0.4682  0.1542
  156SAPE   H7Y17410  -0.510   0.551   7.362 -0.3858  0.4694  0.4237
  156SAPE   C3817411  -0.331   0.621   7.476  0.1866  0.9202 -0.1560
  156SAPE   H8X17412  -0.350   0.730   7.487  1.1575  1.4617 -3.4110
  156SAPE   H8Y17413  -0.220   0.613   7.469  0.1840 -0.7620  1.1216
  156SAPE   C3917414  -0.375   0.558   7.613 -0.5248 -0.1001  0.1016
  156SAPE   H9X17415  -0.333   0.458   7.637  0.0385  0.0554 -0.2284
  156SAPE   H9Y17416  -0.485   0.557   7.604 -0.7587 -0.4222  2.4950
  156SAPE  C31017417  -0.353   0.656   7.726  0.0550 -0.1184 -0.3637
  156SAPE  H10X17418  -0.393   0.758   7.708  1.1281  0.4238  0.2568
  156SAPE  H10Y17419  -0.242   0.667   7.733  0.1862 -0.0255 -2.2532
  156SAPE  C31117420  -0.413   0.602   7.859  0.5133  0.1985 -0.1942
  156SAPE  H11X17421  -0.374   0.499   7.874  0.3135  0.0890 -0.4238
  156SAPE  H11Y17422  -0.522   0.586   7.866  0.5316  0.1910  0.0911
  156SAPE  C31217423  -0.368   0.683   7.981 -0.4158 -0.0745 -0.2442
  156SAPE  H12X17424  -0.405   0.787   7.971 -2.1373 -0.6313  0.1446
  156SAPE  H12Y17425  -0.257   0.694   7.980 -0.5530  1.3898  0.3015
  156SAPE  C31317426  -0.430   0.632   8.109 -0.5067  0.2925  0.8009
  156SAPE  H13X17427  -0.423   0.521   8.111 -1.5919  0.0825 -2.8075
  156SAPE  H13Y17428  -0.537   0.660   8.103 -1.0660 -2.0344 -0.5542
  156SAPE  C31417429  -0.368   0.701   8.233  0.1971 -0.2367  0.3058
  156SAPE  H14X17430  -0.409   0.803   8.219 -2.3031 -1.3850 -1.2162
  156SAPE  H14Y17431  -0.257   0.702   8.226  0.2719  0.7036  1.4862
  156SAPE  C31517432  -0.422   0.645   8.364  0.2674  0.4601 -0.4299
  156SAPE  H15X17433  -0.403   0.536   8.370  1.4904  0.6765 -0.3246
  156SAPE  H15Y17434  -0.533   0.654   8.366 -0.0748 -3.3710  0.8194
  156SAPE  C31617435  -0.380   0.735   8.486  0.5405 -0.6345 -0.4182
  156SAPE  H16X17436  -0.458   0.707   8.560  1.4896 -0.6416  0.5980
  156SAPE  H16Y17437  -0.386   0.838   8.444  0.0871 -0.7229 -0.5652
  156SAPE  C31717438  -0.250   0.706   8.552 -0.0384 -0.1850  0.4036
  156SAPE  H17X17439  -0.172   0.719   8.475 -1.9504 -1.6117 -1.8458
  156SAPE  H17Y17440  -0.247   0.598   8.580  1.6647 -0.1276  0.5212
  156SAPE  C31817441  -0.217   0.797   8.669 -0.3881 -0.4359  0.4534
  156SAPE  H18X17442  -0.302   0.803   8.740 -2.2630  0.9898 -1.8303
  156SAPE  H18Y17443  -0.188   0.896   8.630 -0.4056 -1.1585 -1.4551
  156SAPE  H18Z17444  -0.125   0.761   8.721  0.7210  2.7341  0.7919
  157SAPE     N17445   4.824   2.970   6.155 -0.3559 -0.4338 -0.2844
  157SAPE   HN117446   4.873   3.046   6.206 -0.6215 -1.3253  1.3515
  157SAPE   HN217447   4.888   2.888   6.146 -0.1948 -0.1736 -1.4545
  157SAPE   HN317448   4.803   3.009   6.062  1.5553 -0.2612 -0.6621
  157SAPE   C1217449   4.697   2.927   6.219 -0.4509 -0.6691 -0.2629
  157SAPE  H12A17450   4.725   2.896   6.322 -1.8875  0.0950  0.3732
  157SAPE  H12B17451   4.670   2.839   6.156  3.1693 -2.5806  0.7043
  157SAPE   C1117452   4.594   3.033   6.242  0.1205 -0.4873 -0.4286
  157SAPE  H11A17453   4.575   3.091   6.150 -2.4379  0.9446  0.9389
  157SAPE  H11B17454   4.636   3.107   6.314  2.6211  0.1329 -2.4546
  157SAPE     P17455   4.376   2.904   6.202  0.0681 -0.0150  0.3303
  157SAPE   O1317456   4.243   2.962   6.240 -0.3270 -0.4190 -0.0425
  157SAPE   O1417457   4.414   2.918   6.060 -0.2465 -0.0981 -0.3703
  157SAPE   O1217458   4.475   2.977   6.293  0.2071 -0.3153  0.3405
  157SAPE   O1117459   4.384   2.752   6.248 -0.7689  0.1393 -0.1674
  157SAPE    C117460   4.405   2.705   6.378 -0.5999  0.2214  0.4035
  157SAPE    HA17461   4.430   2.597   6.375  2.1074  0.8579 -2.7147
  157SAPE    HB17462   4.492   2.752   6.428  0.7080  0.3620 -1.9420
  157SAPE    C217463   4.279   2.705   6.466  0.7290 -0.3888 -0.2542
  157SAPE    HS17464   4.191   2.707   6.399  1.7803  0.8034 -1.6223
  157SAPE   O2117465   4.292   2.821   6.553  0.2089 -0.2774 -0.6323
  157SAPE   C2117466   4.184   2.880   6.589 -0.1336 -0.2065  0.4015
  157SAPE   O2217467   4.072   2.863   6.550 -0.3510  0.0539  0.2753
  157SAPE   C2217468   4.218   3.005   6.681 -0.1239  0.5790 -0.3677
  157SAPE   H2R17469   4.321   2.997   6.722 -0.0308 -1.0273 -0.8587
  157SAPE   H2S17470   4.211   3.093   6.614 -0.1117  0.5132 -0.4563
  157SAPE    C317471   4.257   2.572   6.543  0.2012 -0.0283  0.0775
  157SAPE    HX17472   4.354   2.571   6.598 -0.0981  1.2859  0.6486
  157SAPE    HY17473   4.253   2.488   6.470 -2.4516  1.5392 -1.6465
  157SAPE   O3117474   4.150   2.584   6.643  0.1706 -0.3332 -0.0940
  157SAPE   C3117475   4.030   2.532   6.608  0.5202  0.3154  0.2608
  157SAPE   O3217476   4.003   2.481   6.500 -0.7046 -0.2486 -0.0105
  157SAPE   C3217477   3.937   2.543   6.726 -0.7373 -0.0183  0.4934
  157SAPE   H2X17478   3.994   2.549   6.821  1.4420  0.6684 -0.8242
  157SAPE   H2Y17479   3.886   2.444   6.717  0.2577 -0.3243 -2.2827
  157SAPE   C2317480   4.116   3.020   6.797 -0.1010 -0.5661  0.5758
  157SAPE   H3R17481   4.011   3.031   6.761  0.7778  0.4006 -1.7771
  157SAPE   H3S17482   4.137   3.113   6.854  0.9023 -0.5736  0.2137
  157SAPE   C2417483   4.121   2.904   6.901  0.3920 -0.3380 -0.5018
  157SAPE   H4R17484   4.125   2.807   6.847 -4.0583 -1.7383  1.3841
  157SAPE   H4S17485   4.022   2.912   6.952  0.1182 -1.0946 -0.9011
  157SAPE   C2517486   4.237   2.912   7.000 -0.2584 -0.2424 -0.0836
  157SAPE   H5R17487   4.330   2.956   6.961 -0.6220 -0.5843 -1.3815
  157SAPE   C2617488   4.222   2.905   7.137  0.5157  0.4029  0.5210
  157SAPE   H6R17489   4.309   2.913   7.204 -0.1240 -1.8007  1.6854
  157SAPE   C2717490   4.093   2.852   7.206 -0.6216  0.1679 -0.1878
  157SAPE   H7R17491   4.005   2.850   7.138  0.4578  0.8830 -1.6325
  157SAPE   H7S17492   4.074   2.909   7.299  0.2262 -0.8914  0.6475
  157SAPE   C2817493   4.134   2.708   7.241 -0.0907 -0.0381 -0.2053
  157SAPE   H8R17494   4.210   2.653   7.185  0.3384  1.3740 -1.0377
  157SAPE   C2917495   4.095   2.647   7.358  0.1467  0.3352 -0.0575
  157SAPE   H9R17496   4.107   2.539   7.373  0.0446  0.3774  0.3391
  157SAPE  C21017497   4.006   2.703   7.469 -0.5009 -0.8518 -0.5600
  157SAPE  H10R17498   3.944   2.615   7.495  2.0292 -2.8529 -1.1183
  157SAPE  H10S17499   3.939   2.779   7.422  0.6230 -0.6652 -1.8889
  157SAPE  C21117500   4.078   2.770   7.586  0.1850  0.3899  0.0459
  157SAPE  H11R17501   4.110   2.874   7.569  1.6577  0.0722  0.7652
  157SAPE  C21217502   4.106   2.712   7.705  0.1318  0.0040 -1.1571
  157SAPE  H12R17503   4.167   2.776   7.770 -0.8546  0.9529 -1.1479
  157SAPE  C21317504   4.070   2.569   7.741 -0.0902  0.2436  0.2064
  157SAPE  H13R17505   4.160   2.527   7.791 -0.7036 -1.0399  0.2587
  157SAPE  H13S17506   4.061   2.502   7.653  1.0567 -1.0806  1.0691
  157SAPE  C21417507   3.942   2.548   7.822 -0.8626  0.3439  0.5325
  157SAPE  H14R17508   3.849   2.574   7.769  0.9279  2.2941 -1.7953
  157SAPE  C21517509   3.938   2.516   7.953  0.2244 -0.0357  0.5034
  157SAPE  H15R17510   3.836   2.493   7.987  0.7810  0.2235  2.3549
  157SAPE  C21617511   4.052   2.488   8.045  0.6671 -0.3812  0.2788
  157SAPE  H16R17512   4.136   2.443   7.987 -0.7076 -1.8269 -0.6537
  157SAPE  H16S17513   4.021   2.418   8.125 -0.2554 -0.1182  0.1596
  157SAPE  C21717514   4.106   2.617   8.108  0.1705 -0.3180 -0.2211
  157SAPE  H17R17515   4.162   2.689   8.045  1.4685 -0.8034  0.3707
  157SAPE  H17S17516   4.188   2.581   8.173  2.0980  1.9331 -1.3464
  157SAPE  C21817517   4.009   2.700   8.193  0.1688 -0.2511  0.6189
  157SAPE  H18R17518   3.944   2.757   8.124  2.2713  4.1020  2.0548
  157SAPE  H18S17519   4.061   2.778   8.253  2.0985 -1.3337  0.3787
  157SAPE  C21917520   3.940   2.626   8.304 -0.3938 -0.5632  0.0041
  157SAPE  H19R17521   4.017   2.566   8.358 -0.9001 -2.0910 -0.9294
  157SAPE  H19S17522   3.870   2.547   8.270 -1.0585 -0.1338  0.3660
  157SAPE  C22017523   3.867   2.716   8.403  0.9539 -0.4178  0.0659
  157SAPE  H20R17524   3.789   2.769   8.346  0.2968 -0.1004  1.2405
  157SAPE  H20S17525   3.935   2.788   8.454 -0.3090  0.4858  0.5044
  157SAPE  H20T17526   3.809   2.666   8.484 -0.0853 -1.1846 -1.1370
  157SAPE   C3317527   3.829   2.655   6.734 -0.3868  0.3551  0.0340
  157SAPE   H3X17528   3.783   2.672   6.635 -2.5146  2.2275  1.2879
  157SAPE   H3Y17529   3.880   2.749   6.765 -1.3280  0.7924  0.2552
  157SAPE   C3417530   3.709   2.632   6.833  0.4928  0.2042 -0.3285
  157SAPE   H4X17531   3.627   2.567   6.797  0.4790  0.6266 -1.0683
  157SAPE   H4Y17532   3.662   2.731   6.847  0.0758 -0.2713  1.7469
  157SAPE   C3517533   3.753   2.600   6.982  0.4054 -0.4751  0.6147
  157SAPE   H5X17534   3.850   2.650   7.004  0.3942 -0.5686  0.8822
  157SAPE   H5Y17535   3.771   2.491   6.990  0.4487 -0.5609 -0.6112
  157SAPE   C3617536   3.638   2.622   7.089  0.0972  0.6528  0.3406
  157SAPE   H6X17537   3.554   2.563   7.048 -1.0568  0.1193  3.3467
  157SAPE   H6Y17538   3.601   2.727   7.091 -3.5660 -0.5247 -1.9159
  157SAPE   C3717539   3.668   2.577   7.233  0.2746 -0.0507 -0.1350
  157SAPE   H7X17540   3.762   2.628   7.261  0.9808 -0.3773 -1.8283
  157SAPE   H7Y17541   3.681   2.467   7.238 -0.6071 -0.1691 -0.2448
  157SAPE   C3817542   3.558   2.608   7.331  0.6066 -0.1833  0.4912
  157SAPE   H8X17543   3.458   2.579   7.293  0.1968  1.6799  0.1334
  157SAPE   H8Y17544   3.557   2.718   7.345  1.1824 -0.1680  0.4477
  157SAPE   C3917545   3.591   2.538   7.461  0.6790 -0.1872 -0.1448
  157SAPE   H9X17546   3.700   2.541   7.482  0.3520  0.6501  1.5407
  157SAPE   H9Y17547   3.574   2.429   7.447 -1.5427  0.0734  0.3262
  157SAPE  C31017548   3.506   2.600   7.575 -0.5749 -0.0086  0.0185
  157SAPE  H10X17549   3.399   2.590   7.547 -0.5040  0.1409 -0.3011
  157SAPE  H10Y17550   3.542   2.703   7.597  0.3294 -0.5613  1.2317
  157SAPE  C31117551   3.537   2.546   7.716  0.1018  0.8600  0.2607
  157SAPE  H11X17552   3.647   2.531   7.710  0.1920  1.6947 -0.3740
  157SAPE  H11Y17553   3.492   2.446   7.734  2.2369 -0.6557 -2.4121
  157SAPE  C31217554   3.497   2.648   7.825  0.4224 -0.4108  0.6777
  157SAPE  H12X17555   3.393   2.686   7.818  0.4304 -0.6678 -1.0364
  157SAPE  H12Y17556   3.563   2.737   7.823 -0.3054  0.1162 -0.5879
  157SAPE  C31317557   3.507   2.579   7.964 -0.2370 -0.9502 -0.2830
  157SAPE  H13X17558   3.615   2.556   7.975  0.0265  0.0395 -0.7503
  157SAPE  H13Y17559   3.445   2.487   7.968 -2.2984  0.4452  0.7734
  157SAPE  C31417560   3.457   2.661   8.080 -0.0234  0.1366  0.0403
  157SAPE  H14X17561   3.507   2.760   8.087 -1.8443  0.9848  1.3552
  157SAPE  H14Y17562   3.500   2.622   8.175 -0.4686 -0.5767 -0.0457
  157SAPE  C31517563   3.312   2.669   8.112 -0.1830 -0.7868 -0.0803
  157SAPE  H15X17564   3.260   2.570   8.116  2.1386 -2.1303 -1.6795
  157SAPE  H15Y17565   3.261   2.721   8.028 -0.2034 -0.8177 -0.0875
  157SAPE  C31617566   3.278   2.753   8.235 -0.5154 -0.4398  0.7031
  157SAPE  H16X17567   3.179   2.803   8.228  0.7536  1.8654 -2.5159
  157SAPE  H16Y17568   3.357   2.832   8.242  0.5930 -1.4177 -0.4234
  157SAPE  C31717569   3.284   2.681   8.372 -0.3622 -0.3995  0.1623
  157SAPE  H17X17570   3.378   2.622   8.381 -0.4528 -0.9127 -1.9473
  157SAPE  H17Y17571   3.206   2.602   8.381  1.4584 -2.4010 -1.0914
  157SAPE  C31817572   3.274   2.785   8.483 -0.0285 -0.2329  0.0619
  157SAPE  H18X17573   3.365   2.849   8.495 -0.2136  0.4054 -1.7690
  157SAPE  H18Y17574   3.241   2.736   8.577  0.0421 -0.6813 -0.1459
  157SAPE  H18Z17575   3.183   2.845   8.464 -0.5076 -0.2309  2.1982
  158SAPE     N17576   6.146   0.348   6.282 -0.3050  0.2739  0.3240
  158SAPE   HN117577   6.151   0.263   6.222  2.1059  0.8445 -0.3419
  158SAPE   HN217578   6.197   0.421   6.228  0.2091 -1.2028 -1.2567
  158SAPE   HN317579   6.201   0.336   6.369 -0.8582 -1.4146  0.4530
  158SAPE   C1217580   6.003   0.379   6.309  0.0872  0.6813  0.4600
  158SAPE  H12A17581   5.939   0.390   6.219 -0.8236 -2.1816  0.7196
  158SAPE  H12B17582   6.007   0.472   6.369  1.0804  1.6415 -1.0503
  158SAPE   C1117583   5.951   0.276   6.406 -0.0239 -0.1421  0.0927
  158SAPE  H11A17584   5.877   0.333   6.465  1.7456  1.0049  1.2598
  158SAPE  H11B17585   6.028   0.246   6.481 -0.0466 -0.0523  0.1505
  158SAPE     P17586   5.775   0.119   6.297 -0.2674 -0.2842  0.3330
  158SAPE   O1317587   5.730   0.215   6.194  0.4912 -0.9745 -0.8560
  158SAPE   O1417588   5.776  -0.023   6.268  0.0179  0.3124 -0.3574
  158SAPE   O1217589   5.918   0.163   6.326 -0.0869  0.4473 -0.1693
  158SAPE   O1117590   5.705   0.149   6.436 -0.5143  0.2051  0.2228
  158SAPE    C117591   5.717   0.063   6.550  0.3661  0.2589  0.0082
  158SAPE    HA17592   5.618   0.014   6.559  1.2839 -1.2398  2.6266
  158SAPE    HB17593   5.799  -0.012   6.552 -0.0015 -0.1264  0.9215
  158SAPE    C217594   5.748   0.148   6.678  0.4774  0.0991  0.6161
  158SAPE    HS17595   5.853   0.183   6.676 -0.0697  1.8263  0.7742
  158SAPE   O2117596   5.716   0.065   6.794 -0.1307  0.0794 -0.1932
  158SAPE   C2117597   5.822  -0.012   6.825  0.3060  0.0089 -0.1402
  158SAPE   O2217598   5.926  -0.016   6.759 -0.0253  0.3797 -0.2199
  158SAPE   C2217599   5.787  -0.098   6.948 -0.1738  0.8403  0.6984
  158SAPE   H2R17600   5.796  -0.037   7.041  1.9980  0.3018  0.8745
  158SAPE   H2S17601   5.683  -0.134   6.930 -0.7883  3.3404 -0.9430
  158SAPE    C317602   5.675   0.281   6.683 -0.2920 -1.0764 -0.1491
  158SAPE    HX17603   5.566   0.257   6.677 -0.6744  0.1758  1.3977
  158SAPE    HY17604   5.683   0.337   6.588 -2.9107  1.0468  0.7956
  158SAPE   O3117605   5.693   0.348   6.809  0.1547  0.2018 -0.0489
  158SAPE   C3117606   5.794   0.431   6.805  0.5989 -0.3385  0.7849
  158SAPE   O3217607   5.879   0.432   6.719  0.2072 -0.3352  0.1329
  158SAPE   C3217608   5.786   0.520   6.928  0.1473  0.4231  0.9662
  158SAPE   H2X17609   5.756   0.458   7.015  0.3302  1.1016  1.5090
  158SAPE   H2Y17610   5.705   0.594   6.911  0.2222  0.1465 -0.7231
  158SAPE   C2317611   5.903  -0.217   6.953  0.9382  0.1555  0.1414
  158SAPE   H3R17612   6.005  -0.174   6.963  1.4674 -1.8534  4.2542
  158SAPE   H3S17613   5.882  -0.256   6.852  0.7511 -1.0973  0.6612
  158SAPE   C2417614   5.886  -0.340   7.050 -0.2134  0.0163  0.0272
  158SAPE   H4R17615   5.782  -0.378   7.045  0.1961 -1.1782  0.4602
  158SAPE   H4S17616   5.895  -0.302   7.154  1.0655 -2.6518  0.9228
  158SAPE   C2517617   5.981  -0.451   7.021  0.3808 -0.1629 -0.0941
  158SAPE   H5R17618   6.032  -0.457   6.924  0.5249 -1.1205  0.0305
  158SAPE   C2617619   6.004  -0.553   7.102 -0.5272 -0.3841 -0.5805
  158SAPE   H6R17620   6.067  -0.637   7.071  1.3954  0.6930  0.3037
  158SAPE   C2717621   5.938  -0.555   7.238 -0.5536 -0.9634 -0.5406
  158SAPE   H7R17622   5.897  -0.658   7.245 -1.1940 -0.7181 -0.6645
  158SAPE   H7S17623   5.856  -0.483   7.258  1.7005  1.8611 -1.0695
  158SAPE   C2817624   6.033  -0.523   7.345 -0.4023  0.2323 -1.4667
  158SAPE   H8R17625   6.121  -0.462   7.321 -0.1364 -0.0123 -1.1265
  158SAPE   C2917626   6.018  -0.551   7.477 -0.0503  0.4718 -0.2223
  158SAPE   H9R17627   6.092  -0.532   7.557 -1.3357  0.2428  1.0456
  158SAPE  C21017628   5.899  -0.625   7.531  0.3341  0.3835 -0.4520
  158SAPE  H10R17629   5.933  -0.728   7.556 -0.1157  0.0720 -1.0966
  158SAPE  H10S17630   5.810  -0.628   7.465  1.7910  0.1577 -2.4778
  158SAPE  C21117631   5.841  -0.561   7.655  0.2904  0.0482 -0.1697
  158SAPE  H11R17632   5.852  -0.622   7.746 -2.2811 -0.0670  0.1127
  158SAPE  C21217633   5.786  -0.437   7.669  0.4110 -0.2790 -0.1665
  158SAPE  H12R17634   5.772  -0.404   7.773  0.9838  3.0719 -1.0923
  158SAPE  C21317635   5.750  -0.333   7.563 -0.6102 -0.4209 -0.4418
  158SAPE  H13R17636   5.648  -0.350   7.522 -1.2346  0.6245  0.6477
  158SAPE  H13S17637   5.806  -0.366   7.472 -1.3877  0.2959 -1.1979
  158SAPE  C21417638   5.791  -0.190   7.614 -0.1950 -0.0899  0.8595
  158SAPE  H14R17639   5.895  -0.185   7.650  0.0306  1.5992  0.0484
  158SAPE  C21517640   5.714  -0.077   7.624 -0.2475  0.3899 -0.2095
  158SAPE  H15R17641   5.748   0.025   7.644  1.1333  0.1545 -1.2728
  158SAPE  C21617642   5.571  -0.074   7.572 -0.0034  0.7411 -0.3071
  158SAPE  H16R17643   5.542  -0.178   7.546 -0.1107  0.9686 -1.1060
  158SAPE  H16S17644   5.574  -0.015   7.479 -1.6604  0.1250 -0.7616
  158SAPE  C21717645   5.467  -0.019   7.669 -0.0829  0.7012  0.0024
  158SAPE  H17R17646   5.372  -0.056   7.623  1.4618 -3.9635  0.2594
  158SAPE  H17S17647   5.455   0.091   7.673 -1.8703  0.4577  1.9966
  158SAPE  C21817648   5.475  -0.077   7.807 -0.3166 -0.1874 -0.6022
  158SAPE  H18R17649   5.566  -0.048   7.865 -0.7851  0.0344  0.0329
  158SAPE  H18S17650   5.479  -0.188   7.812  2.4258 -0.1273 -0.5696
  158SAPE  C21917651   5.358  -0.007   7.889  0.3613  0.2057 -0.1238
  158SAPE  H19R17652   5.256  -0.035   7.856  0.2546  0.1645  0.2451
  158SAPE  H19S17653   5.372   0.102   7.877  0.3024  0.0429 -1.7614
  158SAPE  C22017654   5.356  -0.040   8.042 -0.2169  0.0043  0.4449
  158SAPE  H20R17655   5.264   0.008   8.081  0.1213 -0.1806  1.5127
  158SAPE  H20S17656   5.444  -0.003   8.100 -0.7372  0.5362  0.9115
  158SAPE  H20T17657   5.343  -0.149   8.058 -0.6703 -0.1476 -0.9310
  158SAPE   C3317658   5.928   0.579   6.944 -0.4225  0.3958 -0.5667
  158SAPE   H3X17659   5.973   0.608   6.847 -2.7058  1.7552 -1.2765
  158SAPE   H3Y17660   5.989   0.494   6.981 -2.6572 -0.1891  1.9625
  158SAPE   C3417661   5.929   0.685   7.052 -0.5493 -0.6120 -0.3988
  158SAPE   H4X17662   5.834   0.737   7.028 -1.5057 -1.5011  1.3896
  158SAPE   H4Y17663   6.012   0.757   7.035 -1.5207 -0.0011 -2.8013
  158SAPE   C3517664   5.933   0.626   7.194  0.8405  0.0065 -0.3681
  158SAPE   H5X17665   5.972   0.522   7.193 -0.5187 -0.5183  0.4193
  158SAPE   H5Y17666   5.828   0.603   7.219  1.2946 -0.6260  0.9535
  158SAPE   C3617667   5.995   0.715   7.302 -0.1365 -0.1833 -0.0375
  158SAPE   H6X17668   5.932   0.805   7.316 -1.7790 -1.5999  1.8612
  158SAPE   H6Y17669   6.097   0.746   7.270  0.3122 -0.8897  0.6816
  158SAPE   C3717670   5.982   0.651   7.448  0.0573 -0.3586  0.1304
  158SAPE   H7X17671   5.875   0.625   7.453 -0.2618  1.0909  1.2023
  158SAPE   H7Y17672   6.038   0.555   7.452 -1.3178 -1.2447 -1.2052
  158SAPE   C3817673   6.034   0.759   7.547  0.2334  0.0553 -0.2585
  158SAPE   H8X17674   5.976   0.854   7.544 -0.6454 -0.5040 -1.1916
  158SAPE   H8Y17675   6.143   0.772   7.528  0.2371  0.1826 -0.1473
  158SAPE   C3917676   6.015   0.704   7.682  0.5328 -0.7722 -0.1186
  158SAPE   H9X17677   6.091   0.624   7.695  0.1819 -0.4876  4.6538
  158SAPE   H9Y17678   5.914   0.660   7.700 -0.2187  0.6147 -0.9064
  158SAPE  C31017679   6.038   0.803   7.799  0.0342 -0.0662  0.1960
  158SAPE  H10X17680   5.963   0.884   7.791  1.0856  1.2148  2.6943
  158SAPE  H10Y17681   6.142   0.843   7.799 -0.2884  0.7690  0.1573
  158SAPE  C31117682   6.007   0.731   7.932 -0.3878  0.5400  0.0582
  158SAPE  H11X17683   6.065   0.638   7.951  0.7500  0.7042 -2.4812
  158SAPE  H11Y17684   5.903   0.691   7.928 -0.4958  0.7690  0.5085
  158SAPE  C31217685   6.004   0.814   8.055  0.3041 -0.6969 -0.0771
  158SAPE  H12X17686   5.940   0.898   8.022  0.4693 -1.2351 -1.7945
  158SAPE  H12Y17687   6.109   0.845   8.076  1.6500 -3.7123 -2.0019
  158SAPE  C31317688   5.931   0.733   8.171 -0.4036 -0.2231  0.1870
  158SAPE  H13X17689   5.991   0.642   8.196 -2.6374 -1.1353  2.4343
  158SAPE  H13Y17690   5.837   0.702   8.121 -0.0719 -2.0919  0.6608
  158SAPE  C31417691   5.918   0.824   8.290  0.6441  0.0169 -0.5759
  158SAPE  H14X17692   5.859   0.915   8.262  0.6309 -0.0230 -0.6766
  158SAPE  H14Y17693   6.019   0.854   8.324  0.0875 -0.9223  2.0352
  158SAPE  C31517694   5.833   0.753   8.400 -0.2309 -1.1348 -1.1317
  158SAPE  H15X17695   5.888   0.670   8.450  0.7318  0.1417 -0.0361
  158SAPE  H15Y17696   5.737   0.728   8.350 -0.2117 -0.6333 -1.4263
  158SAPE  C31617697   5.793   0.850   8.511  0.4563 -0.2582  0.5825
  158SAPE  H16X17698   5.726   0.799   8.584 -1.2017  1.0470  0.0043
  158SAPE  H16Y17699   5.728   0.928   8.465 -0.3129 -1.2148  0.0352
  158SAPE  C31717700   5.913   0.912   8.589  0.7816 -0.3862  0.1083
  158SAPE  H17X17701   5.968   0.968   8.512  0.3184  0.7700  0.6029
  158SAPE  H17Y17702   5.962   0.831   8.648 -2.2153 -1.9306  0.5734
  158SAPE  C31817703   5.867   1.019   8.691 -0.4179  0.3570  0.1746
  158SAPE  H18X17704   5.820   1.096   8.625 -0.5194  1.4475  1.5021
  158SAPE  H18Y17705   5.950   1.068   8.746 -1.0458 -0.4139  1.8273
  158SAPE  H18Z17706   5.789   0.993   8.765  0.3403  1.8464  1.5242
  159SAPE     N17707   5.531   3.676   6.136  1.0211 -0.1613 -0.2121
  159SAPE   HN117708   5.572   3.765   6.102 -0.2506 -0.0870 -1.6049
  159SAPE   HN217709   5.479   3.693   6.224  0.1165  0.8070 -0.9263
  159SAPE   HN317710   5.611   3.611   6.149  0.2368 -1.7784 -2.8859
  159SAPE   C1217711   5.426   3.617   6.042 -0.2189 -0.1470  0.2336
  159SAPE  H12A17712   5.463   3.622   5.937 -0.9990 -1.8386 -0.1441
  159SAPE  H12B17713   5.333   3.678   6.043 -0.3944 -0.3549 -1.1713
  159SAPE   C1117714   5.398   3.470   6.083 -0.5108  0.1096  0.1119
  159SAPE  H11A17715   5.496   3.426   6.110  0.4605  2.5771  0.7528
  159SAPE  H11B17716   5.351   3.416   5.997  1.6078 -1.3519 -0.1744
  159SAPE     P17717   5.265   3.331   6.256 -0.2714 -0.4597  0.3089
  159SAPE   O1317718   5.150   3.359   6.342  0.1901 -0.5816 -0.0951
  159SAPE   O1417719   5.237   3.244   6.142 -0.4846 -0.4201 -0.0374
  159SAPE   O1217720   5.308   3.468   6.198 -0.6147 -0.1284 -0.1889
  159SAPE   O1117721   5.382   3.271   6.343  0.1772  0.2472 -0.3873
  159SAPE    C117722   5.474   3.362   6.405 -0.0491  0.6827 -0.0694
  159SAPE    HA17723   5.550   3.392   6.330  0.9176 -4.5667 -1.4252
  159SAPE    HB17724   5.434   3.451   6.458  1.5124  0.3187  1.7545
  159SAPE    C217725   5.542   3.285   6.517 -0.2238 -0.5251  0.1372
  159SAPE    HS17726   5.599   3.201   6.471 -0.1761 -1.0544  1.1467
  159SAPE   O2117727   5.448   3.221   6.603  0.0792 -0.0097  0.1806
  159SAPE   C2117728   5.366   3.296   6.676  0.0782 -0.1343 -0.2095
  159SAPE   O2217729   5.369   3.416   6.701  0.3146  0.1007  0.1609
  159SAPE   C2217730   5.255   3.212   6.737  0.6281  0.1276 -0.4895
  159SAPE   H2R17731   5.159   3.250   6.696  2.2321  3.0410 -1.7559
  159SAPE   H2S17732   5.270   3.103   6.720 -1.1597 -0.0942 -0.7506
  159SAPE    C317733   5.654   3.363   6.601  1.5213  0.3169  0.5347
  159SAPE    HX17734   5.615   3.467   6.609  0.3298 -0.0710 -0.2296
  159SAPE    HY17735   5.739   3.367   6.529  0.4723  0.6274 -0.6998
  159SAPE   O3117736   5.693   3.309   6.730 -0.5268 -0.2107  0.3615
  159SAPE   C3117737   5.780   3.383   6.793 -0.3309 -0.5283  0.1268
  159SAPE   O3217738   5.834   3.484   6.739  0.1393 -0.1329  0.1840
  159SAPE   C3217739   5.809   3.334   6.934 -0.1047 -0.5291  0.0237
  159SAPE   H2X17740   5.896   3.267   6.917  0.0590 -0.6054  1.1733
  159SAPE   H2Y17741   5.727   3.269   6.971  0.4794 -0.3884  1.5891
  159SAPE   C2317742   5.250   3.229   6.896  0.0535  0.4908 -0.1865
  159SAPE   H3R17743   5.224   3.335   6.917  0.8210  0.5687  0.4110
  159SAPE   H3S17744   5.348   3.224   6.948  0.2687  1.7979 -0.4541
  159SAPE   C2417745   5.140   3.144   6.968 -0.0778 -0.7741 -0.1143
  159SAPE   H4R17746   5.037   3.181   6.948  0.2145  0.1430  0.0560
  159SAPE   H4S17747   5.164   3.164   7.074 -0.6145  1.7872 -0.4508
  159SAPE   C2517748   5.160   2.992   6.935  0.0493 -0.6563  0.4883
  159SAPE   H5R17749   5.160   2.973   6.826 -1.8855  4.4786 -0.5730
  159SAPE   C2617750   5.139   2.885   7.021  0.1257  0.2781  0.3727
  159SAPE   H6R17751   5.146   2.785   6.975 -1.6776 -0.6375  2.0161
  159SAPE   C2717752   5.104   2.891   7.170  0.2720  0.2284  0.0067
  159SAPE   H7R17753   5.196   2.888   7.232 -0.8371 -1.9859  1.5712
  159SAPE   H7S17754   5.053   2.796   7.197  1.1672 -0.5208 -0.9005
  159SAPE   C2817755   4.987   2.984   7.205  0.6996  0.2519  0.3493
  159SAPE   H8R17756   4.923   3.005   7.118 -0.4019 -3.4452  0.2020
  159SAPE   C2917757   4.969   3.045   7.321 -0.5400  0.3888  0.3080
  159SAPE   H9R17758   4.884   3.115   7.323 -1.7312 -1.0132 -0.1944
  159SAPE  C21017759   5.044   3.021   7.444 -0.0985 -0.3011  0.2184
  159SAPE  H10R17760   5.148   3.060   7.431 -0.4853  0.5119 -0.4953
  159SAPE  H10S17761   5.057   2.912   7.464 -1.1483 -0.4554  0.0918
  159SAPE  C21117762   4.984   3.086   7.563  0.0924  0.0682 -0.1162
  159SAPE  H11R17763   4.929   3.180   7.549 -1.3097 -1.1366 -3.0463
  159SAPE  C21217764   4.987   3.032   7.684 -0.3498 -0.1533 -0.2011
  159SAPE  H12R17765   4.954   3.103   7.761 -0.9301  0.1645 -0.7399
  159SAPE  C21317766   5.066   2.916   7.735  0.0925 -0.0173  0.4761
  159SAPE  H13R17767   5.128   2.875   7.653 -0.1739  0.0910  0.2230
  159SAPE  H13S17768   4.986   2.849   7.772  0.3324 -1.4154 -1.4658
  159SAPE  C21417769   5.153   2.951   7.856 -0.2677  0.0875 -0.8917
  159SAPE  H14R17770   5.151   3.054   7.896 -0.6339 -0.5414  0.7343
  159SAPE  C21517771   5.247   2.875   7.903  0.3255  0.5752 -0.5398
  159SAPE  H15R17772   5.301   2.914   7.990 -0.0040  0.3817 -0.2489
  159SAPE  C21617773   5.291   2.739   7.861  0.2995 -0.2647 -0.1021
  159SAPE  H16R17774   5.399   2.729   7.882  0.4092 -0.5954 -0.8157
  159SAPE  H16S17775   5.275   2.734   7.751 -1.1722  0.4977  0.0675
  159SAPE  C21717776   5.205   2.632   7.930 -0.0883  0.3215  0.1539
  159SAPE  H17R17777   5.104   2.644   7.886 -0.1710  0.2596  0.3262
  159SAPE  H17S17778   5.211   2.657   8.038 -1.0451 -2.0231  0.7690
  159SAPE  C21817779   5.249   2.488   7.894  0.0510 -0.5987  0.4076
  159SAPE  H18R17780   5.340   2.471   7.832  1.2961 -2.6903  2.7223
  159SAPE  H18S17781   5.171   2.433   7.837  0.0033  0.6863 -0.7877
  159SAPE  C21917782   5.280   2.416   8.024 -0.3151 -0.0584  0.0316
  159SAPE  H19R17783   5.294   2.307   8.016  2.2002  0.2237  0.0671
  159SAPE  H19S17784   5.207   2.442   8.103 -0.4512 -3.8318  1.1960
  159SAPE  C22017785   5.418   2.467   8.078 -0.3098  0.1691  0.4233
  159SAPE  H20R17786   5.434   2.411   8.173  2.7842  0.2259 -0.0134
  159SAPE  H20S17787   5.421   2.576   8.097  0.5083  0.2667 -0.2920
  159SAPE  H20T17788   5.490   2.427   8.004 -0.2786 -1.0291  1.0809
  159SAPE   C3317789   5.853   3.452   7.027  0.8244  0.2681 -0.6318
  159SAPE   H3X17790   5.775   3.530   7.041 -1.3869 -1.9023 -0.4559
  159SAPE   H3Y17791   5.939   3.500   6.975  1.6293 -1.1304 -0.6252
  159SAPE   C3417792   5.889   3.400   7.161  0.1093 -0.0558 -0.3304
  159SAPE   H4X17793   5.940   3.481   7.218 -0.4262 -1.3289  2.0270
  159SAPE   H4Y17794   5.955   3.311   7.156  0.9809  0.7113 -3.0546
  159SAPE   C3517795   5.772   3.341   7.238  0.0053 -0.0338  0.3075
  159SAPE   H5X17796   5.716   3.273   7.170 -0.5490 -1.4584  2.1623
  159SAPE   H5Y17797   5.698   3.423   7.254  0.5902  0.1941  1.8603
  159SAPE   C3617798   5.803   3.280   7.373  0.0553  0.4077 -0.6568
  159SAPE   H6X17799   5.868   3.196   7.341  0.6418  0.2108  0.9604
  159SAPE   H6Y17800   5.711   3.258   7.432 -1.1591  2.7120 -1.6474
  159SAPE   C3717801   5.879   3.372   7.466  0.0671 -0.1018  0.1264
  159SAPE   H7X17802   5.808   3.454   7.488 -0.5507 -0.2029 -1.3837
  159SAPE   H7Y17803   5.959   3.419   7.405 -1.0760 -0.4158 -1.6460
  159SAPE   C3817804   5.941   3.315   7.595  0.3562 -0.1257  0.7646
  159SAPE   H8X17805   6.029   3.378   7.620  1.5590 -1.7821  0.7925
  159SAPE   H8Y17806   5.976   3.210   7.582  1.2072 -0.0348  2.2864
  159SAPE   C3917807   5.837   3.319   7.712  0.3292  0.3455  0.3112
  159SAPE   H9X17808   5.737   3.277   7.687  0.5815  0.3147 -0.6805
  159SAPE   H9Y17809   5.825   3.424   7.744  0.2144 -0.2568  2.3355
  159SAPE  C31017810   5.899   3.247   7.831 -0.0106  0.3661 -0.1183
  159SAPE  H10X17811   5.908   3.138   7.810 -0.5761  0.3433 -0.2561
  159SAPE  H10Y17812   5.822   3.252   7.911  1.5142  0.4192  1.3703
  159SAPE  C31117813   6.036   3.289   7.874 -0.1724  0.0264 -0.4406
  159SAPE  H11X17814   6.050   3.400   7.876  0.6660 -0.0821  0.4357
  159SAPE  H11Y17815   6.109   3.254   7.798  1.0251  1.4223  0.0352
  159SAPE  C31217816   6.075   3.233   8.011 -0.7978  0.5569  0.3131
  159SAPE  H12X17817   6.185   3.237   8.029 -0.5387 -2.4143 -0.3588
  159SAPE  H12Y17818   6.061   3.123   8.002  0.2495  0.4111  0.3446
  159SAPE  C31317819   5.991   3.283   8.134  0.0025  0.4119  0.2562
  159SAPE  H13X17820   6.014   3.217   8.220  1.0157  0.1267 -0.2312
  159SAPE  H13Y17821   5.891   3.252   8.097  0.1203  0.9537 -0.5450
  159SAPE  C31417822   5.982   3.429   8.153  0.0504 -0.1800 -0.1429
  159SAPE  H14X17823   5.923   3.451   8.245 -2.0343  1.1409 -1.7281
  159SAPE  H14Y17824   5.919   3.468   8.070 -0.5554 -0.4211  0.2010
  159SAPE  C31517825   6.114   3.498   8.173 -0.0942  0.1810 -0.5323
  159SAPE  H15X17826   6.171   3.516   8.079  1.5861 -0.0346  0.4285
  159SAPE  H15Y17827   6.171   3.426   8.236  0.2678 -0.4699 -1.5940
  159SAPE  C31617828   6.107   3.634   8.244 -0.2940 -0.0505  1.0409
  159SAPE  H16X17829   6.042   3.623   8.334 -1.2053  1.1212  0.5411
  159SAPE  H16Y17830   6.058   3.707   8.176  0.7731  0.1436  0.4863
  159SAPE  C31717831   6.241   3.679   8.303  0.1247  0.1845 -0.3450
  159SAPE  H17X17832   6.312   3.678   8.218 -0.4916  0.4495 -0.8670
  159SAPE  H17Y17833   6.287   3.595   8.359  1.0484 -1.8746 -4.0004
  159SAPE  C31817834   6.246   3.817   8.371  0.4348  0.3815  0.1666
  159SAPE  H18X17835   6.212   3.895   8.300  0.7056 -1.0373 -1.5477
  159SAPE  H18Y17836   6.350   3.841   8.400  0.3788  0.1737  0.5451
  159SAPE  H18Z17837   6.191   3.803   8.467 -0.7761 -3.6650 -1.0156
  160SAPE     N17838   5.571   1.489   6.188  0.3910 -0.2877  0.1804
  160SAPE   HN117839   5.536   1.547   6.268  0.8014 -1.0044  0.8920
  160SAPE   HN217840   5.497   1.420   6.164 -1.1758  0.9512  1.3224
  160SAPE   HN317841   5.655   1.438   6.221 -0.1414 -0.0711  1.9548
  160SAPE   C1217842   5.603   1.586   6.076  0.4445  0.0250  0.5863
  160SAPE  H12A17843   5.547   1.680   6.094  0.7237  0.8030 -2.2800
  160SAPE  H12B17844   5.567   1.546   5.979 -1.1942 -2.0134  2.0125
  160SAPE   C1117845   5.758   1.611   6.075  0.2233  0.6576 -0.9024
  160SAPE  H11A17846   5.787   1.681   5.993 -0.2376  2.0469  0.1081
  160SAPE  H11B17847   5.799   1.508   6.063  0.4239  0.5916  0.2819
  160SAPE     P17848   5.887   1.770   6.253  0.1614  0.0196 -0.0336
  160SAPE   O1317849   6.026   1.768   6.192 -0.1414 -0.0301 -1.0496
  160SAPE   O1417850   5.810   1.892   6.228  0.2347 -0.3055  0.4761
  160SAPE   O1217851   5.803   1.647   6.204 -0.2204  0.0815 -0.3920
  160SAPE   O1117852   5.896   1.748   6.411  0.2276  0.0783  0.0550
  160SAPE    C117853   5.868   1.625   6.477 -0.2121  0.0824 -0.4186
  160SAPE    HA17854   5.801   1.557   6.420  0.0293 -1.4049  1.0527
  160SAPE    HB17855   5.958   1.566   6.503 -1.2227 -0.5930  1.6772
  160SAPE    C217856   5.796   1.640   6.624  0.2704  0.4950 -0.1663
  160SAPE    HS17857   5.696   1.687   6.618 -0.1079 -0.1489  0.9554
  160SAPE   O2117858   5.884   1.709   6.712 -0.1679  0.6396  0.0545
  160SAPE   C2117859   5.857   1.840   6.731 -0.4340  0.3316 -0.0715
  160SAPE   O2217860   5.762   1.894   6.683  0.4778  0.1521  0.8760
  160SAPE   C2217861   5.964   1.907   6.819  0.2484  0.0451  0.0707
  160SAPE   H2R17862   5.996   1.820   6.881 -3.5979 -2.0549 -0.7192
  160SAPE   H2S17863   6.048   1.943   6.757 -0.3463  0.1668 -0.6672
  160SAPE    C317864   5.765   1.491   6.682  0.2768 -0.1633 -0.0588
  160SAPE    HX17865   5.856   1.428   6.671  0.3677 -0.0751  0.2089
  160SAPE    HY17866   5.687   1.449   6.614  1.4080 -2.3515 -0.0253
  160SAPE   O3117867   5.728   1.489   6.823 -0.0626  0.3573 -0.7340
  160SAPE   C3117868   5.796   1.427   6.915 -0.2139 -0.1134 -0.1942
  160SAPE   O3217869   5.894   1.358   6.894 -0.3444 -0.0450  0.6957
  160SAPE   C3217870   5.733   1.463   7.047 -0.4424  0.0100  0.3222
  160SAPE   H2X17871   5.770   1.385   7.117 -0.4613  1.8698  2.4505
  160SAPE   H2Y17872   5.622   1.459   7.038 -0.4234  0.0386  0.0869
  160SAPE   C2317873   5.913   2.025   6.904  0.0972  0.5531 -0.0431
  160SAPE   H3R17874   5.812   2.012   6.948  0.1354  0.9102  0.1483
  160SAPE   H3S17875   5.900   2.112   6.836 -0.0078 -0.0381 -0.7841
  160SAPE   C2417876   6.005   2.045   7.025 -0.0822  0.0411 -0.3826
  160SAPE   H4R17877   6.112   2.028   7.002  0.8071  1.1316  2.7329
  160SAPE   H4S17878   5.980   1.953   7.081  0.4249 -1.6538 -2.8636
  160SAPE   C2517879   5.982   2.170   7.110 -0.0631 -0.3661 -0.3175
  160SAPE   H5R17880   6.055   2.251   7.099  0.0887 -0.3712  0.5872
  160SAPE   C2617881   5.890   2.182   7.206 -0.4439 -0.2376 -0.2115
  160SAPE   H6R17882   5.866   2.279   7.252  1.6037  0.5235 -0.6606
  160SAPE   C2717883   5.781   2.083   7.238 -0.0316  0.6561  0.1642
  160SAPE   H7R17884   5.762   2.095   7.347  0.7952 -0.8724  0.4996
  160SAPE   H7S17885   5.814   1.976   7.239  0.1890  0.7122 -1.1773
  160SAPE   C2817886   5.651   2.069   7.151 -0.3299 -0.4218 -0.3945
  160SAPE   H8R17887   5.649   2.106   7.048 -0.6185 -0.9368 -0.5770
  160SAPE   C2917888   5.530   2.024   7.184 -0.6765  0.2834 -0.2530
  160SAPE   H9R17889   5.464   2.018   7.097 -0.1911  0.1852 -0.6168
  160SAPE  C21017890   5.493   1.962   7.318  0.0628 -0.1346  0.5155
  160SAPE  H10R17891   5.581   1.932   7.379  1.6415  1.7401 -0.7834
  160SAPE  H10S17892   5.441   1.865   7.305  0.5502 -0.3310 -0.0175
  160SAPE  C21117893   5.420   2.047   7.418 -0.9224  0.5405  0.1895
  160SAPE  H11R17894   5.336   2.091   7.361 -0.1668 -1.3666 -2.5277
  160SAPE  C21217895   5.433   2.056   7.554  0.3628 -0.8147 -0.0579
  160SAPE  H12R17896   5.363   2.128   7.600  0.8413  1.3024 -2.4767
  160SAPE  C21317897   5.521   1.972   7.641 -0.1972 -0.0594 -0.1846
  160SAPE  H13R17898   5.524   2.021   7.741  0.8796  2.1217 -1.2581
  160SAPE  H13S17899   5.622   1.968   7.595 -0.9515  0.1352 -1.9122
  160SAPE  C21417900   5.468   1.835   7.662 -0.1776  0.3244  0.3470
  160SAPE  H14R17901   5.486   1.756   7.589 -1.8378 -0.0703  0.3320
  160SAPE  C21517902   5.387   1.799   7.762 -0.3281 -0.7537 -0.1373
  160SAPE  H15R17903   5.342   1.699   7.757  0.9589 -1.2907 -1.1493
  160SAPE  C21617904   5.325   1.893   7.860  0.5161 -0.4595  0.3089
  160SAPE  H16R17905   5.236   1.842   7.902 -0.8719  1.0861 -0.6973
  160SAPE  H16S17906   5.297   1.985   7.805 -0.4070  0.4094  2.2039
  160SAPE  C21717907   5.413   1.924   7.977  0.4024 -0.3476 -0.7869
  160SAPE  H17R17908   5.496   1.989   7.942  0.9876 -1.0969 -0.7847
  160SAPE  H17S17909   5.463   1.840   8.030  1.8817  1.2377  0.3639
  160SAPE  C21817910   5.346   2.006   8.090 -0.8711  0.4986  0.5300
  160SAPE  H18R17911   5.249   1.966   8.127  0.1387 -2.3512  0.2356
  160SAPE  H18S17912   5.314   2.095   8.031  2.1145  1.4169  0.1825
  160SAPE  C21917913   5.438   2.053   8.199 -0.1782 -0.0784 -0.5718
  160SAPE  H19R17914   5.538   2.076   8.156 -0.1785  0.8402 -0.0851
  160SAPE  H19S17915   5.452   1.959   8.257  1.7229  2.1577  2.8291
  160SAPE  C22017916   5.378   2.159   8.292 -0.8480  0.3252  0.0539
  160SAPE  H20R17917   5.326   2.116   8.380 -1.5907 -1.0290 -1.0423
  160SAPE  H20S17918   5.291   2.212   8.247 -1.7316 -1.9184 -0.9322
  160SAPE  H20T17919   5.461   2.225   8.326  1.3462  0.3848 -5.0329
  160SAPE   C3317920   5.769   1.609   7.093  0.2696  0.3881 -1.0265
  160SAPE   H3X17921   5.723   1.631   7.192  2.5464  0.7781 -0.0224
  160SAPE   H3Y17922   5.727   1.680   7.019 -0.3950 -0.0112 -1.0300
  160SAPE   C3417923   5.919   1.643   7.109 -0.9923 -0.6226 -0.0079
  160SAPE   H4X17924   5.920   1.750   7.140 -1.7596 -0.3499 -0.9086
  160SAPE   H4Y17925   5.969   1.650   7.010  0.0227  1.0572  0.5976
  160SAPE   C3517926   6.001   1.556   7.204  0.8256 -0.4675  0.0991
  160SAPE   H5X17927   6.103   1.598   7.218  0.2130  0.2001  3.0627
  160SAPE   H5Y17928   6.017   1.453   7.166  2.6519 -0.7716  1.6121
  160SAPE   C3617929   5.936   1.535   7.342  0.0582 -0.1862 -0.1298
  160SAPE   H6X17930   6.002   1.466   7.399  0.2079  0.6954  0.7624
  160SAPE   H6Y17931   5.835   1.488   7.337  0.7176 -1.6696  0.0640
  160SAPE   C3717932   5.912   1.666   7.417 -0.0746 -0.0500  0.4439
  160SAPE   H7X17933   5.851   1.732   7.351  0.2996 -0.4569 -0.3048
  160SAPE   H7Y17934   6.012   1.713   7.422  0.2475 -0.7065  0.1596
  160SAPE   C3817935   5.860   1.638   7.563 -0.6247  0.3231  0.3303
  160SAPE   H8X17936   5.914   1.552   7.606 -1.8656 -1.3736 -1.4201
  160SAPE   H8Y17937   5.754   1.608   7.548 -0.5075  0.3375 -0.5919
  160SAPE   C3917938   5.878   1.762   7.656  0.9604  0.4853  0.1862
  160SAPE   H9X17939   5.799   1.835   7.626  1.0443 -0.0408 -1.3501
  160SAPE   H9Y17940   5.978   1.811   7.655  1.0188  0.3756  0.6764
  160SAPE  C31017941   5.839   1.713   7.797 -0.1803  0.1734  0.4681
  160SAPE  H10X17942   5.912   1.637   7.832  1.3471  1.5713  0.3965
  160SAPE  H10Y17943   5.739   1.665   7.792 -0.1829  0.0609  1.3879
  160SAPE  C31117944   5.834   1.819   7.905 -0.8236  0.3954  1.4739
  160SAPE  H11X17945   5.739   1.876   7.897 -1.7141 -1.5067 -2.8204
  160SAPE  H11Y17946   5.903   1.902   7.878 -0.3595 -0.3293  0.4199
  160SAPE  C31217947   5.878   1.776   8.043  0.7468  0.1402  0.3051
  160SAPE  H12X17948   5.979   1.732   8.040  0.4106 -0.5500 -1.5688
  160SAPE  H12Y17949   5.818   1.690   8.080 -1.5012  1.4287 -0.2463
  160SAPE  C31317950   5.866   1.886   8.155 -0.3114  0.2202 -0.5672
  160SAPE  H13X17951   5.762   1.923   8.149 -0.3139  0.6586  1.8069
  160SAPE  H13Y17952   5.934   1.972   8.142 -2.2074  1.9149  0.5763
  160SAPE  C31417953   5.908   1.831   8.294 -0.2662  0.3658 -0.0421
  160SAPE  H14X17954   5.861   1.741   8.339 -0.4657  0.0150 -0.9400
  160SAPE  H14Y17955   5.892   1.908   8.372 -0.3514 -1.8531  2.1708
  160SAPE  C31517956   6.066   1.791   8.293 -0.1214  0.6264  0.4142
  160SAPE  H15X17957   6.116   1.882   8.253 -0.1275 -0.2683 -1.6934
  160SAPE  H15Y17958   6.085   1.708   8.222  2.5244  0.7434  0.9215
  160SAPE  C31617959   6.121   1.766   8.430 -0.1906 -0.2332 -0.3116
  160SAPE  H16X17960   6.232   1.769   8.422 -0.2033  1.1827 -0.1024
  160SAPE  H16Y17961   6.082   1.666   8.457  1.3236 -1.5691 -2.8539
  160SAPE  C31717962   6.086   1.864   8.541 -0.5073  0.2962  0.5308
  160SAPE  H17X17963   6.140   1.829   8.631  0.9893 -0.4257 -0.6229
  160SAPE  H17Y17964   5.976   1.858   8.552 -0.4562 -1.1281  0.3139
  160SAPE  C31817965   6.124   2.009   8.501  0.5624  0.4940  0.1415
  160SAPE  H18X17966   6.108   2.081   8.584  0.8966 -0.8661  1.4119
  160SAPE  H18Y17967   6.059   2.050   8.421 -0.0783 -0.5428  0.1285
  160SAPE  H18Z17968   6.228   2.004   8.460  0.0388  1.0452 -1.2880
  161SOPE     N17969   3.920   4.459  10.487  0.4552  0.2336 -0.4573
  161SOPE   HN117970   3.945   4.478  10.388  0.5784 -2.6595 -1.0196
  161SOPE   HN217971   3.818   4.443  10.500  0.3217 -0.0267 -1.6782
  161SOPE   HN317972   3.926   4.549  10.538 -0.5479 -0.1146  0.3032
  161SOPE   C1217973   4.004   4.345  10.535  0.0456 -0.0640 -0.1181
  161SOPE  H12A17974   4.001   4.355  10.646  0.1333  1.6615 -0.2651
  161SOPE  H12B17975   4.107   4.366  10.499  0.0892  2.9500  1.6398
  161SOPE   C1117976   3.952   4.209  10.508 -0.7049  0.8103 -0.4813
  161SOPE  H11A17977   4.032   4.134  10.520 -1.2727  0.1024 -1.0943
  161SOPE  H11B17978   3.931   4.209  10.399  1.0491  2.4804 -0.8553
  161SOPE     P17979   3.812   4.081  10.696 -0.1268  0.4085 -0.3606
  161SOPE   O1317980   3.668   4.038  10.710 -0.2241  0.5157  0.7000
  161SOPE   O1417981   3.869   4.123  10.825  0.0299  0.3133 -0.2361
  161SOPE   O1217982   3.827   4.185  10.585  0.2821 -0.2745 -0.2347
  161SOPE   O1117983   3.881   3.959  10.637  0.0220 -0.3757 -0.1186
  161SOPE    C117984   3.823   3.878  10.530 -0.5284 -0.2907 -1.1747
  161SOPE    HA17985   3.738   3.931  10.483 -1.7697 -0.0100  1.3657
  161SOPE    HB17986   3.784   3.778  10.560 -2.7752  0.3152 -2.0306
  161SOPE    C217987   3.944   3.845  10.429  1.1927  0.3043 -0.0535
  161SOPE    HS17988   3.969   3.941  10.379 -3.2480  1.0223 -1.1246
  161SOPE   O2117989   3.907   3.754  10.326 -0.6127  0.5831 -0.5042
  161SOPE   C2117990   3.825   3.806  10.231  0.1617  0.4585  0.6525
  161SOPE   O2217991   3.784   3.923  10.228 -0.0077 -0.0009  0.2440
  161SOPE   C2217992   3.794   3.691  10.136  0.1511 -0.0033  0.2347
  161SOPE   H2R17993   3.683   3.684  10.133 -0.1484  2.1357  3.4565
  161SOPE   H2S17994   3.834   3.598  10.182  0.0457  1.2728  3.0183
  161SOPE    C317995   4.067   3.793  10.497  0.9942  0.7099 -0.2371
  161SOPE    HX17996   4.044   3.702  10.556  2.0123  0.8866  0.4377
  161SOPE    HY17997   4.094   3.858  10.583 -0.7870  0.0727  0.8450
  161SOPE   O3117998   4.180   3.789  10.400 -0.5521  0.5233  0.8499
  161SOPE   C3117999   4.269   3.692  10.425 -0.1632 -0.3367  0.2825
  161SOPE   O3218000   4.277   3.626  10.528  0.5776 -0.3819  0.3577
  161SOPE   C3218001   4.364   3.672  10.304  0.8209  0.7782 -0.4716
  161SOPE   H2X18002   4.447   3.743  10.322  1.4906 -0.1955  0.3972
  161SOPE   H2Y18003   4.304   3.689  10.212  0.5666 -1.9949 -0.8741
  161SOPE   C2318004   3.870   3.718  10.002 -0.3370  0.5440 -0.2355
  161SOPE   H3R18005   3.976   3.694  10.025 -0.7501  0.7699  2.0045
  161SOPE   H3S18006   3.846   3.822   9.972 -1.0961  0.8890  1.5202
  161SOPE   C2418007   3.812   3.639   9.883  0.8735  0.5120 -1.1862
  161SOPE   H4R18008   3.823   3.530   9.897 -0.5206  0.6310  1.0257
  161SOPE   H4S18009   3.705   3.670   9.871  1.4180  2.4491 -1.2624
  161SOPE   C2518010   3.879   3.677   9.748 -0.2835  0.4731 -0.1092
  161SOPE   H5R18011   3.888   3.787   9.747 -0.3669  0.4860  0.5586
  161SOPE   H5S18012   3.978   3.627   9.749  0.0092  1.0688  2.1509
  161SOPE   C2618013   3.814   3.624   9.626 -0.2378 -0.2650  0.8128
  161SOPE   H6R18014   3.822   3.513   9.622 -0.1106 -0.2653  1.0252
  161SOPE   H6S18015   3.705   3.642   9.632 -0.2874 -0.2781 -0.0311
  161SOPE   C2718016   3.886   3.682   9.508  0.3529  0.1288  0.1985
  161SOPE   H7R18017   3.871   3.792   9.515  1.7040  0.4301 -1.2881
  161SOPE   H7S18018   3.996   3.674   9.524  0.1086 -1.4388  1.1341
  161SOPE   C2818019   3.819   3.629   9.377  0.5162  0.8343  0.3392
  161SOPE   H8R18020   3.810   3.518   9.378  2.4370  0.6654  1.1538
  161SOPE   H8S18021   3.713   3.663   9.375  0.8503  1.8311 -0.4171
  161SOPE   C2918022   3.885   3.676   9.250  0.0386 -0.7900 -0.1325
  161SOPE   H9118023   3.991   3.702   9.262 -0.1345  0.6070 -1.5645
  161SOPE  C21018024   3.822   3.728   9.142 -0.0101  0.1610  0.3827
  161SOPE  H10118025   3.885   3.766   9.061  0.9648  0.0203  1.0626
  161SOPE  C21118026   3.669   3.726   9.131 -0.4036  0.0077  1.4665
  161SOPE  H11R18027   3.619   3.817   9.171 -0.9988  1.0351 -1.5017
  161SOPE  H11S18028   3.624   3.643   9.190 -1.4747  0.3358  1.1209
  161SOPE  C21218029   3.614   3.723   8.986  0.2908 -0.5109  0.0775
  161SOPE  H12R18030   3.504   3.711   8.978  0.3494 -2.3354  1.6197
  161SOPE  H12S18031   3.665   3.643   8.928 -0.2959  0.2835 -1.5731
  161SOPE  C21318032   3.641   3.854   8.908 -0.8867 -0.0422 -0.2533
  161SOPE  H13R18033   3.750   3.871   8.906 -0.5535 -2.0816 -0.8380
  161SOPE  H13S18034   3.586   3.934   8.962 -0.2485  0.1664  0.0814
  161SOPE  C21418035   3.605   3.845   8.760 -0.7739  0.0376 -0.5216
  161SOPE  H14R18036   3.496   3.826   8.751 -1.1586  1.6738  0.4490
  161SOPE  H14S18037   3.659   3.756   8.720 -1.6042 -0.0882 -1.3769
  161SOPE  C21518038   3.621   3.975   8.686  0.5104 -0.5469  0.7996
  161SOPE  H15R18039   3.731   3.991   8.682  0.5871 -0.8765  1.4645
  161SOPE  H15S18040   3.594   4.066   8.745  0.1503  0.4101 -0.7994
  161SOPE  C21618041   3.562   3.964   8.544 -0.5891 -0.2280  0.0680
  161SOPE  H16R18042   3.517   4.065   8.525  1.9075  0.6988 -1.1634
  161SOPE  H16S18043   3.475   3.895   8.538 -0.4422 -0.3411 -0.8180
  161SOPE  C21718044   3.669   3.938   8.437  0.1125  0.3194 -0.3273
  161SOPE  H17R18045   3.722   3.843   8.457 -0.9110 -0.1165  0.3569
  161SOPE  H17S18046   3.741   4.022   8.427  0.1680  0.9325  4.3456
  161SOPE  C21818047   3.593   3.919   8.302 -1.1495  0.0998  0.2890
  161SOPE  H18R18048   3.515   3.841   8.311  0.0454 -0.8972  2.3033
  161SOPE  H18S18049   3.667   3.913   8.218  0.0110  0.7218  1.2497
  161SOPE  H18T18050   3.537   4.009   8.272 -1.5139  0.0925  0.9447
  161SOPE   C3318051   4.416   3.524  10.292  0.1809  0.8686 -0.4256
  161SOPE   H3X18052   4.342   3.445  10.316  1.1809 -0.5115 -1.7976
  161SOPE   H3Y18053   4.489   3.520  10.375 -2.8883  0.4666  2.3394
  161SOPE   C3418054   4.485   3.510  10.156 -0.4549  0.5440  0.7452
  161SOPE   H4X18055   4.572   3.580  10.151  2.0537 -2.4063  1.6569
  161SOPE   H4Y18056   4.411   3.525  10.074  0.8681  2.5836 -0.1402
  161SOPE   C3518057   4.533   3.366  10.133 -0.0749 -0.1307 -0.3254
  161SOPE   H5X18058   4.448   3.295  10.126  0.2356 -0.5001 -0.3060
  161SOPE   H5Y18059   4.604   3.348  10.217  0.4324  0.0393 -0.7140
  161SOPE   C3618060   4.625   3.353  10.013 -0.0642  0.3390 -0.0750
  161SOPE   H6X18061   4.687   3.261  10.012  0.5396  0.7373  0.3720
  161SOPE   H6Y18062   4.700   3.436  10.013 -1.0162  1.2249 -0.7139
  161SOPE   C3718063   4.534   3.355   9.888 -0.0798  0.4781  0.4511
  161SOPE   H7X18064   4.470   3.445   9.883  0.8103  1.3086  3.3677
  161SOPE   H7Y18065   4.467   3.267   9.898  2.7661 -1.9670 -0.8793
  161SOPE   C3818066   4.602   3.341   9.746 -0.0566 -0.3998  0.3007
  161SOPE   H8X18067   4.677   3.259   9.745  0.0082 -0.3426  0.5171
  161SOPE   H8Y18068   4.657   3.436   9.730  0.0650 -0.1466  2.0938
  161SOPE   C3918069   4.513   3.334   9.617 -0.6727  0.0271 -0.3105
  161SOPE   H9X18070   4.471   3.435   9.598  3.0718  1.4913 -1.1840
  161SOPE   H9Y18071   4.429   3.264   9.639 -1.3806  1.3649  1.4258
  161SOPE  C31018072   4.599   3.287   9.494  0.2319  0.5459 -0.2337
  161SOPE  H10X18073   4.623   3.178   9.499 -2.7412 -0.1171  1.1340
  161SOPE  H10Y18074   4.684   3.358   9.490 -0.4774  1.3748 -0.4888
  161SOPE  C31118075   4.514   3.304   9.366  0.5804 -0.0941  0.1352
  161SOPE  H11X18076   4.499   3.411   9.336 -1.9231 -0.4607 -0.0104
  161SOPE  H11Y18077   4.415   3.257   9.386  1.7978 -1.8580  2.1866
  161SOPE  C31218078   4.582   3.249   9.235 -0.1588  0.6520 -0.1368
  161SOPE  H12X18079   4.569   3.140   9.251 -0.8631  0.5355 -1.4623
  161SOPE  H12Y18080   4.688   3.282   9.243  0.3024 -0.7574 -0.2089
  161SOPE  C31318081   4.516   3.288   9.100  0.0833 -0.1653  0.8350
  161SOPE  H13X18082   4.531   3.397   9.087 -1.4139 -0.1115 -0.5483
  161SOPE  H13Y18083   4.407   3.267   9.096 -0.0130  0.5721 -0.8591
  161SOPE  C31418084   4.581   3.207   8.987  0.2522  0.2079 -0.4744
  161SOPE  H14X18085   4.596   3.101   9.017 -0.7718  0.3671  0.6470
  161SOPE  H14Y18086   4.684   3.240   8.962  0.4971  0.0547  0.3115
  161SOPE  C31518087   4.498   3.218   8.864  0.4629  0.8144  0.4157
  161SOPE  H15X18088   4.476   3.324   8.840  1.1436  0.8739  0.0463
  161SOPE  H15Y18089   4.399   3.169   8.880  0.3527  1.0020  0.3090
  161SOPE  C31618090   4.571   3.158   8.738 -0.0406  0.3437  0.2320
  161SOPE  H16X18091   4.623   3.062   8.757 -0.4313 -0.0271 -0.5370
  161SOPE  H16Y18092   4.655   3.223   8.706  0.1632 -0.9779 -1.9866
  161SOPE  C31718093   4.475   3.148   8.615  0.0749 -0.0332 -0.2620
  161SOPE  H17X18094   4.544   3.132   8.529 -1.7585  1.2620 -2.0284
  161SOPE  H17Y18095   4.420   3.243   8.596 -1.3797 -0.6898  0.6479
  161SOPE  C31818096   4.377   3.028   8.627 -0.1718 -0.7331  0.1166
  161SOPE  H18X18097   4.293   3.057   8.560 -1.2368  2.2630  2.6607
  161SOPE  H18Y18098   4.348   3.008   8.732 -3.0730 -1.1285 -0.6893
  161SOPE  H18Z18099   4.445   2.947   8.593 -1.4510 -1.0596 -1.7700
  162SOPE     N18100   3.009   3.327  10.984 -0.6599 -0.0938 -0.1485
  162SOPE   HN118101   2.932   3.395  10.970  1.6409  2.4455 -0.9150
  162SOPE   HN218102   2.999   3.272  11.071 -0.8197  0.0487 -0.0784
  162SOPE   HN318103   3.096   3.376  11.012  0.3260 -1.8071 -0.0923
  162SOPE   C1218104   3.033   3.237  10.875  0.5298  0.7216 -0.0557
  162SOPE  H12A18105   3.082   3.294  10.793  3.5911 -0.7684  0.6489
  162SOPE  H12B18106   2.934   3.198  10.844 -0.2732  2.6174  0.0803
  162SOPE   C1118107   3.112   3.119  10.930  0.0545  0.3174 -0.3994
  162SOPE  H11A18108   3.215   3.161  10.938  0.0119 -0.1004  2.7619
  162SOPE  H11B18109   3.117   3.043  10.849 -2.0223  1.5957 -1.7735
  162SOPE     P18110   3.119   2.923  11.103  0.3338 -0.2044  0.5146
  162SOPE   O1318111   3.031   2.879  11.217 -0.0245  0.0912 -0.7137
  162SOPE   O1418112   3.266   2.936  11.121  0.3045 -0.3651  0.3042
  162SOPE   O1218113   3.062   3.063  11.053 -0.5650  0.3921  0.0967
  162SOPE   O1118114   3.088   2.830  10.983  0.2114 -0.4403  0.0963
  162SOPE    C118115   2.958   2.813  10.936 -0.2562 -0.4312  0.2935
  162SOPE    HA18116   2.905   2.910  10.929  0.4642  0.0933  1.7439
  162SOPE    HB18117   2.888   2.758  11.002 -0.8194  0.5652  0.5205
  162SOPE    C218118   2.950   2.737  10.803  0.8015 -0.6100  0.5182
  162SOPE    HS18119   2.996   2.637  10.818  0.9046 -0.6104  0.1956
  162SOPE   O2118120   3.013   2.815  10.701 -0.3546  0.1373 -0.4327
  162SOPE   C2118121   3.141   2.770  10.665  0.5277 -1.2113 -1.0227
  162SOPE   O2218122   3.191   2.666  10.701 -0.1822 -0.2290  0.1370
  162SOPE   C2218123   3.207   2.874  10.581 -0.4654 -0.0662 -0.7833
  162SOPE   H2R18124   3.313   2.844  10.567 -0.7733  0.0179 -3.6919
  162SOPE   H2S18125   3.215   2.969  10.639 -1.6150 -0.0417 -0.6453
  162SOPE    C318126   2.797   2.709  10.765  0.4367  0.4496 -0.0111
  162SOPE    HX18127   2.736   2.745  10.850  1.2913  0.9419  0.3958
  162SOPE    HY18128   2.779   2.599  10.766  2.2393  0.1520  1.4073
  162SOPE   O3118129   2.748   2.785  10.652  0.0686  0.3742  0.6656
  162SOPE   C3118130   2.792   2.743  10.533 -0.5182  0.6943  0.2538
  162SOPE   O3218131   2.848   2.640  10.505 -0.1442  0.6761  0.7396
  162SOPE   C3218132   2.738   2.841  10.423  0.5235  0.0484 -0.3126
  162SOPE   H2X18133   2.793   2.937  10.437  0.2585  0.0058  1.0671
  162SOPE   H2Y18134   2.632   2.863  10.447  0.8972 -0.6000  2.1075
  162SOPE   C2318135   3.143   2.889  10.450 -0.5263 -0.0264  0.3535
  162SOPE   H3R18136   3.047   2.939  10.470 -1.1058 -1.1614  0.4566
  162SOPE   H3S18137   3.109   2.792  10.406  0.1874  0.9069 -2.3477
  162SOPE   C2418138   3.223   2.975  10.356  0.2137  0.6214  0.6541
  162SOPE   H4R18139   3.142   3.012  10.288 -1.1206  0.2825  2.0233
  162SOPE   H4S18140   3.261   3.071  10.397 -1.3889  1.2324  0.7641
  162SOPE   C2518141   3.332   2.902  10.277  0.3042  0.6079 -0.2756
  162SOPE   H5R18142   3.422   2.888  10.341  0.5522  3.3296  0.0379
  162SOPE   H5S18143   3.290   2.805  10.241  1.0630 -0.7767  2.4149
  162SOPE   C2618144   3.382   2.972  10.152  0.5449  0.0505 -0.2378
  162SOPE   H6R18145   3.369   3.082  10.164 -0.0660  0.3451 -3.2311
  162SOPE   H6S18146   3.490   2.950  10.146  0.0337 -2.2886 -1.3971
  162SOPE   C2718147   3.326   2.929  10.015 -0.1969 -0.8511  0.2912
  162SOPE   H7R18148   3.345   2.821   9.997  0.2046 -0.9206  1.1197
  162SOPE   H7S18149   3.216   2.943  10.026 -0.3170 -2.8528  1.8166
  162SOPE   C2818150   3.374   3.025   9.898 -0.3165 -0.0062  0.5654
  162SOPE   H8R18151   3.324   2.998   9.803  1.4633  1.6314 -0.8806
  162SOPE   H8S18152   3.343   3.130   9.916  1.2068  0.5453  0.0129
  162SOPE   C2918153   3.520   3.001   9.892  0.3342 -0.0295  0.7585
  162SOPE   H9118154   3.553   2.897   9.877 -1.5867 -0.5545 -0.0862
  162SOPE  C21018155   3.615   3.091   9.880 -0.9167 -0.1752  0.2410
  162SOPE  H10118156   3.719   3.057   9.893 -0.0133  1.7897 -1.5845
  162SOPE  C21118157   3.586   3.241   9.864 -0.4710 -0.2788 -0.4795
  162SOPE  H11R18158   3.637   3.286   9.952  0.8959 -2.0089 -0.3741
  162SOPE  H11S18159   3.486   3.279   9.896 -1.1556 -0.6502 -2.1049
  162SOPE  C21218160   3.619   3.288   9.723 -0.6724 -0.0472  0.7289
  162SOPE  H12R18161   3.717   3.253   9.685 -1.5597  0.7813 -2.4619
  162SOPE  H12S18162   3.637   3.398   9.719 -1.7798  0.0753 -2.3515
  162SOPE  C21318163   3.517   3.259   9.611  0.4547  0.4439 -0.7672
  162SOPE  H13R18164   3.433   3.332   9.616 -1.1129 -1.2997 -0.7930
  162SOPE  H13S18165   3.485   3.154   9.629  0.4053  0.4144 -1.0138
  162SOPE  C21418166   3.595   3.281   9.489 -0.2917 -0.1367 -0.1183
  162SOPE  H14R18167   3.680   3.211   9.479 -0.1161  0.0988 -0.2921
  162SOPE  H14S18168   3.634   3.383   9.512  1.3613 -0.6126 -0.7340
  162SOPE  C21518169   3.519   3.277   9.358 -0.1665  0.4491  0.1475
  162SOPE  H15R18170   3.426   3.338   9.372 -0.0990  0.7536 -0.6781
  162SOPE  H15S18171   3.492   3.177   9.317 -0.7122  0.9908 -0.8487
  162SOPE  C21618172   3.605   3.348   9.248 -0.2237 -0.1296 -0.7144
  162SOPE  H16R18173   3.694   3.283   9.238  0.7163  1.1186 -0.4974
  162SOPE  H16S18174   3.646   3.442   9.291  0.5009 -0.8868  0.2912
  162SOPE  C21718175   3.539   3.359   9.108 -0.2791  0.3982 -0.2390
  162SOPE  H17R18176   3.521   3.254   9.075  0.3787 -0.3354  1.6792
  162SOPE  H17S18177   3.605   3.409   9.034 -0.6949 -0.5000 -1.2290
  162SOPE  C21818178   3.406   3.439   9.120 -0.3916  0.4213  0.8435
  162SOPE  H18R18179   3.440   3.543   9.140  0.3070  0.3645  0.0318
  162SOPE  H18S18180   3.342   3.391   9.196  1.6012 -3.6517  0.0998
  162SOPE  H18T18181   3.344   3.439   9.028 -0.1483 -0.5026  0.6788
  162SOPE   C3318182   2.772   2.786  10.278 -0.2464 -0.2603  0.4711
  162SOPE   H3X18183   2.726   2.688  10.252  1.4384 -0.7046 -0.9406
  162SOPE   H3Y18184   2.883   2.775  10.281  0.0121  2.0992  0.2134
  162SOPE   C3418185   2.744   2.880  10.164 -0.1831  0.5899 -0.4501
  162SOPE   H4X18186   2.762   2.987  10.189  0.7811  0.1412  0.8328
  162SOPE   H4Y18187   2.634   2.892  10.150 -0.2951  0.6870  0.4323
  162SOPE   C3518188   2.796   2.835  10.030 -0.2766  0.4064 -0.0522
  162SOPE   H5X18189   2.774   2.728  10.009 -0.8069  0.2054  1.4488
  162SOPE   H5Y18190   2.906   2.843  10.043 -0.2561 -0.2519  0.2020
  162SOPE   C3618191   2.742   2.919   9.920  0.4650 -0.7217  0.0512
  162SOPE   H6X18192   2.777   3.025   9.919  0.1983 -0.6213 -1.9412
  162SOPE   H6Y18193   2.632   2.920   9.933  0.5044  1.8283  0.4405
  162SOPE   C3718194   2.773   2.869   9.777  0.3821  1.0096 -0.0371
  162SOPE   H7X18195   2.740   2.765   9.760  1.9849  0.4708  0.0675
  162SOPE   H7Y18196   2.882   2.866   9.759  0.3744 -0.3347  0.1341
  162SOPE   C3818197   2.700   2.968   9.688  0.2658  0.1020  0.0043
  162SOPE   H8X18198   2.763   3.058   9.677  3.4437 -1.6927  2.8796
  162SOPE   H8Y18199   2.601   2.996   9.731  0.6088 -1.0154  1.5445
  162SOPE   C3918200   2.686   2.910   9.545 -1.0829  0.2324  0.0567
  162SOPE   H9X18201   2.622   2.820   9.533 -0.5625  0.3401 -4.5307
  162SOPE   H9Y18202   2.789   2.884   9.515 -0.7656  1.8313 -0.3022
  162SOPE  C31018203   2.633   3.018   9.442  0.3925  0.3076 -0.2728
  162SOPE  H10X18204   2.679   3.116   9.467  0.6242 -0.3226  1.9445
  162SOPE  H10Y18205   2.522   3.017   9.455  0.5185  1.6847  1.0619
  162SOPE  C31118206   2.646   2.975   9.295 -0.5224 -0.3513 -1.3930
  162SOPE  H11X18207   2.599   2.875   9.282  0.2615 -1.5117  3.6033
  162SOPE  H11Y18208   2.754   2.955   9.278 -0.0992  1.5128 -0.9511
  162SOPE  C31218209   2.594   3.088   9.201  0.9078  0.8681 -0.1483
  162SOPE  H12X18210   2.669   3.169   9.206 -0.5091  2.3424 -1.9775
  162SOPE  H12Y18211   2.496   3.129   9.236  0.4820 -1.2997  1.2965
  162SOPE  C31318212   2.586   3.042   9.049 -0.4823 -0.1026  0.5132
  162SOPE  H13X18213   2.601   3.135   8.991  2.1174 -1.5312 -1.1797
  162SOPE  H13Y18214   2.486   2.995   9.030 -0.1734  0.0913 -1.6200
  162SOPE  C31418215   2.687   2.933   8.999  0.8204  0.0720 -0.1645
  162SOPE  H14X18216   2.646   2.833   9.026 -1.1307  0.0664 -2.9010
  162SOPE  H14Y18217   2.788   2.948   9.042  0.0335  0.0002  1.7518
  162SOPE  C31518218   2.690   2.926   8.842  0.7570 -0.7476  0.4568
  162SOPE  H15X18219   2.700   3.032   8.811 -1.1779 -1.0886 -1.3858
  162SOPE  H15Y18220   2.588   2.892   8.815 -0.6693  2.4823  1.4830
  162SOPE  C31618221   2.796   2.831   8.789  0.0900  0.0998 -0.4299
  162SOPE  H16X18222   2.773   2.728   8.825  3.8118 -0.3898  0.7706
  162SOPE  H16Y18223   2.894   2.849   8.838  0.9689 -0.4613 -1.9379
  162SOPE  C31718224   2.794   2.812   8.636 -0.2071  0.2154 -0.5281
  162SOPE  H17X18225   2.689   2.788   8.610 -0.8668  3.1776 -0.7453
  162SOPE  H17Y18226   2.870   2.734   8.612  1.3311  0.6679  2.5372
  162SOPE  C31818227   2.829   2.920   8.548  0.4673  0.1348 -0.1675
  162SOPE  H18X18228   2.815   2.881   8.445  1.4004 -1.4602  0.3008
  162SOPE  H18Y18229   2.936   2.949   8.560 -0.2448  1.7784  2.8874
  162SOPE  H18Z18230   2.769   3.012   8.568 -0.0984 -0.4702  0.9986
  163SOPE     N18231   3.734   0.764  10.923  0.0937 -0.1487 -0.0991
  163SOPE   HN118232   3.681   0.692  10.977  1.8152 -0.4223  1.2921
  163SOPE   HN218233   3.798   0.724  10.852 -0.1595  2.0001 -1.5784
  163SOPE   HN318234   3.796   0.809  10.993  1.3599  0.3010 -1.4957
  163SOPE   C1218235   3.643   0.860  10.860 -1.0330 -1.0631 -0.1952
  163SOPE  H12A18236   3.603   0.924  10.941 -0.6405 -0.5658 -0.3978
  163SOPE  H12B18237   3.556   0.810  10.812 -1.0757  0.3111 -1.5534
  163SOPE   C1118238   3.710   0.953  10.750  0.3013 -0.1511 -0.2876
  163SOPE  H11A18239   3.650   1.041  10.721 -1.4445 -1.1704  0.1400
  163SOPE  H11B18240   3.707   0.888  10.660  0.9388 -1.1822  0.4132
  163SOPE     P18241   3.919   1.113  10.804 -0.1754  0.1882  0.3980
  163SOPE   O1318242   3.906   1.150  10.946 -0.2678  0.8866  0.5919
  163SOPE   O1418243   3.863   1.210  10.705 -0.4887  0.5785  0.3798
  163SOPE   O1218244   3.846   0.972  10.775 -0.2586  0.6036  0.0430
  163SOPE   O1118245   4.067   1.081  10.774 -0.0520 -0.1688  0.7464
  163SOPE    C118246   4.111   0.951  10.724  0.4538 -0.3360 -0.5017
  163SOPE    HA18247   4.025   0.882  10.711 -0.8296  1.8051 -3.9271
  163SOPE    HB18248   4.189   0.907  10.790  1.0783  1.8072  0.2225
  163SOPE    C218249   4.178   0.973  10.586 -0.1737 -0.1119 -0.1404
  163SOPE    HS18250   4.248   1.060  10.592  0.5333 -0.5300 -1.8005
  163SOPE   O2118251   4.072   0.999  10.497 -0.6218 -0.3206  0.3494
  163SOPE   C2118252   4.047   1.127  10.459  0.2126  0.1650  0.1337
  163SOPE   O2218253   4.103   1.224  10.505 -0.5082 -0.4507  0.1467
  163SOPE   C2218254   3.953   1.131  10.351 -0.0958  0.5986 -0.3957
  163SOPE   H2R18255   3.857   1.110  10.403  0.3098  0.4416  0.2875
  163SOPE   H2S18256   3.970   1.045  10.283  1.7008  0.3751  0.3058
  163SOPE    C318257   4.265   0.851  10.539  0.1217 -0.1885 -0.1568
  163SOPE    HX18258   4.209   0.759  10.564  0.1873  0.2194  1.5412
  163SOPE    HY18259   4.353   0.851  10.607 -1.4926  0.7494  1.9926
  163SOPE   O3118260   4.298   0.860  10.396 -0.6579  0.7442 -0.5748
  163SOPE   C3118261   4.374   0.764  10.347  0.5848 -1.1099  0.5069
  163SOPE   O3218262   4.426   0.672  10.410  0.6929  0.6673  0.9865
  163SOPE   C3218263   4.397   0.800  10.199  0.3635 -0.4169  0.0672
  163SOPE   H2X18264   4.348   0.893  10.165  1.0019 -0.5641 -1.3075
  163SOPE   H2Y18265   4.365   0.718  10.131  3.4384 -1.9296  0.3520
  163SOPE   C2318266   3.949   1.259  10.262 -0.6098 -0.0923 -0.5914
  163SOPE   H3R18267   4.052   1.269  10.222 -0.2674  1.3493  0.5872
  163SOPE   H3S18268   3.921   1.336  10.337 -0.2783 -0.0246 -0.5374
  163SOPE   C2418269   3.838   1.241  10.159  0.0009 -0.0445 -0.6327
  163SOPE   H4R18270   3.738   1.213  10.197  1.2604 -1.2031  1.9512
  163SOPE   H4S18271   3.832   1.346  10.123 -2.2868 -0.2138 -0.8044
  163SOPE   C2518272   3.866   1.158  10.037  0.0839  0.5439  0.3503
  163SOPE   H5R18273   3.971   1.173  10.002  0.0765  4.1280  1.6669
  163SOPE   H5S18274   3.850   1.050  10.061  2.4115 -0.2833 -1.5880
  163SOPE   C2618275   3.775   1.194   9.917  0.0659 -0.7699 -0.4477
  163SOPE   H6R18276   3.673   1.167   9.952  0.5416 -0.1137  1.4918
  163SOPE   H6S18277   3.795   1.298   9.883 -1.9149 -1.0167 -2.4627
  163SOPE   C2718278   3.804   1.090   9.813  0.0880 -0.4559 -1.0350
  163SOPE   H7R18279   3.911   1.110   9.791 -0.1725  0.6093 -1.3540
  163SOPE   H7S18280   3.789   0.987   9.852 -1.5049 -0.0303 -0.4920
  163SOPE   C2818281   3.723   1.114   9.684  0.8566  0.4227 -0.0276
  163SOPE   H8R18282   3.615   1.096   9.705  1.4384 -1.4901  1.5380
  163SOPE   H8S18283   3.731   1.220   9.652 -3.0451  0.7502 -0.1922
  163SOPE   C2918284   3.770   1.032   9.566 -0.7734  0.1674 -0.2605
  163SOPE   H9118285   3.873   0.995   9.575  0.5506  3.9056  0.9082
  163SOPE  C21018286   3.704   1.025   9.450 -0.1279 -0.1639  0.5472
  163SOPE  H10118287   3.741   0.961   9.369  0.5602  1.9995 -0.8974
  163SOPE  C21118288   3.569   1.080   9.418  0.2056  0.0528 -0.9582
  163SOPE  H11R18289   3.527   1.142   9.500  3.2170 -0.6582  1.2132
  163SOPE  H11S18290   3.498   0.994   9.412  3.4124 -2.9194  1.6556
  163SOPE  C21218291   3.574   1.153   9.287 -0.0668  0.1177 -0.0231
  163SOPE  H12R18292   3.633   1.247   9.288 -2.3255  1.5687  0.3465
  163SOPE  H12S18293   3.469   1.186   9.271 -0.3312  0.0494  1.4770
  163SOPE  C21318294   3.630   1.066   9.172 -0.3210  0.4327 -0.3711
  163SOPE  H13R18295   3.627   0.955   9.182  1.0885  0.3046 -1.2491
  163SOPE  H13S18296   3.740   1.077   9.169 -0.2036 -0.4738  0.2075
  163SOPE  C21418297   3.581   1.115   9.038 -0.1512 -0.1030  0.1441
  163SOPE  H14R18298   3.653   1.087   8.958 -0.9423  3.5206 -1.9634
  163SOPE  H14S18299   3.573   1.226   9.035  0.1682 -0.0805  0.0977
  163SOPE  C21518300   3.451   1.056   8.991 -0.1664 -0.2138 -0.3926
  163SOPE  H15R18301   3.365   1.109   9.036 -0.7687  0.4285 -2.2585
  163SOPE  H15S18302   3.441   0.948   9.013 -0.9554 -0.3095 -1.1743
  163SOPE  C21618303   3.427   1.081   8.836 -0.3011  0.2088  1.0213
  163SOPE  H16R18304   3.500   1.030   8.769 -0.5239  1.7170 -0.4063
  163SOPE  H16S18305   3.429   1.190   8.816  0.7713  0.3354  1.7828
  163SOPE  C21718306   3.287   1.036   8.801 -0.1269 -0.6485  0.0995
  163SOPE  H17R18307   3.251   0.958   8.872 -0.2055 -1.0594 -0.3788
  163SOPE  H17S18308   3.293   0.984   8.702  2.2599 -0.8841  0.3424
  163SOPE  C21818309   3.179   1.146   8.793 -0.8603 -0.5286  0.6379
  163SOPE  H18R18310   3.140   1.169   8.895  2.4714  3.2035  1.1795
  163SOPE  H18S18311   3.098   1.120   8.721  0.1835 -1.9707 -0.0300
  163SOPE  H18T18312   3.228   1.239   8.758 -1.0375 -0.9402 -0.7272
  163SOPE   C3318313   4.547   0.810  10.170 -0.3406 -0.1122 -0.6184
  163SOPE   H3X18314   4.581   0.704  10.171  0.3536  0.0953  1.2781
  163SOPE   H3Y18315   4.595   0.864  10.255  0.4899 -0.7654 -0.6649
  163SOPE   C3418316   4.584   0.884  10.032  0.2274 -0.5987  0.5653
  163SOPE   H4X18317   4.692   0.868  10.012  0.1129 -0.0216 -0.5418
  163SOPE   H4Y18318   4.551   0.989  10.044  1.4017 -0.5379  3.5575
  163SOPE   C3518319   4.515   0.826   9.906 -0.5535  0.3590  0.2418
  163SOPE   H5X18320   4.550   0.878   9.814  0.7034  1.7994  1.5008
  163SOPE   H5Y18321   4.406   0.846   9.911 -0.9043 -0.9255 -1.8355
  163SOPE   C3618322   4.544   0.682   9.882  0.0593  1.3537  0.6901
  163SOPE   H6X18323   4.517   0.618   9.968  1.1803  1.7567  1.3514
  163SOPE   H6Y18324   4.652   0.678   9.856 -0.2174  1.0803 -0.4690
  163SOPE   C3718325   4.462   0.618   9.763  0.1767  0.1567  1.0379
  163SOPE   H7X18326   4.355   0.605   9.790 -0.0858  0.3940  0.1268
  163SOPE   H7Y18327   4.499   0.517   9.736 -0.5168 -0.2395  1.5513
  163SOPE   C3818328   4.479   0.696   9.629  0.1678 -0.0030  0.1100
  163SOPE   H8X18329   4.587   0.722   9.621  0.2701 -0.7376 -0.9701
  163SOPE   H8Y18330   4.415   0.787   9.635  0.8641  0.5367 -0.6061
  163SOPE   C3918331   4.449   0.621   9.499  0.1390  0.0968 -0.0392
  163SOPE   H9X18332   4.347   0.578   9.505 -0.4831  1.5388 -0.2121
  163SOPE   H9Y18333   4.531   0.547   9.491 -0.2407 -0.3514  0.1763
  163SOPE  C31018334   4.453   0.707   9.374  0.0692  0.0301 -0.0055
  163SOPE  H10X18335   4.557   0.743   9.369 -0.3496  1.5405  1.7282
  163SOPE  H10Y18336   4.375   0.785   9.388 -1.1401 -0.6927 -2.2922
  163SOPE  C31118337   4.404   0.641   9.247  0.0613 -0.0488  0.3796
  163SOPE  H11X18338   4.296   0.620   9.255  0.2056 -0.8496  0.3522
  163SOPE  H11Y18339   4.461   0.546   9.232 -0.8676 -0.3423 -1.3492
  163SOPE  C31218340   4.435   0.736   9.135 -0.0195  0.1220  0.7026
  163SOPE  H12X18341   4.545   0.746   9.147 -0.0928 -0.0954  1.6665
  163SOPE  H12Y18342   4.371   0.826   9.150 -1.4968 -1.1592  2.4009
  163SOPE  C31318343   4.400   0.682   8.998  0.1176  0.1708 -0.7596
  163SOPE  H13X18344   4.292   0.659   9.012  0.4450 -1.9720 -1.5639
  163SOPE  H13Y18345   4.448   0.587   8.967  3.1357  1.8551 -1.3613
  163SOPE  C31418346   4.397   0.798   8.900  0.2301 -0.4384 -0.4425
  163SOPE  H14X18347   4.481   0.867   8.924 -1.1389  1.0266  0.2426
  163SOPE  H14Y18348   4.308   0.860   8.923  0.9059 -0.4533  2.5267
  163SOPE  C31518349   4.399   0.760   8.755  0.4288  0.1322 -0.2235
  163SOPE  H15X18350   4.497   0.712   8.736 -0.0599 -0.8525 -0.3341
  163SOPE  H15Y18351   4.395   0.855   8.698 -1.0484 -0.6313 -1.4226
  163SOPE  C31618352   4.291   0.664   8.727  0.3528  0.2303  0.8541
  163SOPE  H16X18353   4.188   0.687   8.763 -0.7373 -2.6840 -0.2577
  163SOPE  H16Y18354   4.312   0.568   8.778 -1.5603 -0.7000 -0.0524
  163SOPE  C31718355   4.284   0.637   8.576  0.0907  0.5899 -0.0262
  163SOPE  H17X18356   4.381   0.598   8.540 -0.6339  2.1060 -3.8885
  163SOPE  H17Y18357   4.266   0.732   8.521  0.3243 -0.7178 -2.4420
  163SOPE  C31818358   4.161   0.545   8.544 -0.0099 -0.3222  0.3033
  163SOPE  H18X18359   4.176   0.445   8.590  2.5363 -1.3555 -2.5582
  163SOPE  H18Y18360   4.149   0.525   8.435 -2.1433  3.2473 -0.1829
  163SOPE  H18Z18361   4.066   0.580   8.589 -0.4887 -1.2426  0.0328
  164SOPE     N18362   6.737   5.982  10.816  0.5269  0.4962  0.4928
  164SOPE   HN118363   6.724   5.887  10.856 -0.2581  1.3918  2.4074
  164SOPE   HN218364   6.804   6.034  10.876  1.0762  1.9655 -1.3550
  164SOPE   HN318365   6.646   6.032  10.821 -0.7293 -1.6001 -0.2655
  164SOPE   C1218366   6.793   5.986  10.676  0.0064  0.2104 -0.3210
  164SOPE  H12A18367   6.711   5.992  10.601 -1.7904 -0.3316  1.5479
  164SOPE  H12B18368   6.847   5.891  10.659 -0.2937 -0.0914  0.3947
  164SOPE   C1118369   6.888   6.105  10.664 -0.5467  0.8478 -0.4043
  164SOPE  H11A18370   6.835   6.201  10.683 -1.0620  0.7480 -1.2872
  164SOPE  H11B18371   6.934   6.108  10.563  2.1028 -1.4499  0.6868
  164SOPE     P18372   7.097   6.189  10.799  0.4018 -0.0780 -0.5201
  164SOPE   O1318373   7.177   6.132  10.902 -0.1867  0.0109  0.5651
  164SOPE   O1418374   7.024   6.315  10.826 -0.4462 -0.6118 -0.6096
  164SOPE   O1218375   6.992   6.081  10.759 -0.3695  0.0334 -0.3709
  164SOPE   O1118376   7.184   6.210  10.672  0.1896  0.2349  0.4894
  164SOPE    C118377   7.287   6.115  10.638 -0.2028 -0.3701  0.4404
  164SOPE    HA18378   7.293   6.029  10.708  1.1111 -0.8967 -0.2991
  164SOPE    HB18379   7.388   6.159  10.624  0.1579 -0.8613  1.5146
  164SOPE    C218380   7.251   6.051  10.496 -0.4769  0.0087 -0.1742
  164SOPE    HS18381   7.148   6.011  10.503  0.0105 -1.5956 -1.9196
  164SOPE   O2118382   7.346   5.954  10.450  0.3818  0.2139  0.5729
  164SOPE   C2118383   7.293   5.859  10.378  0.3864  0.2059  0.5369
  164SOPE   O2218384   7.177   5.834  10.369  0.1956 -0.2289  0.1038
  164SOPE   C2218385   7.411   5.775  10.322 -0.0148 -0.1386  0.8929
  164SOPE   H2R18386   7.421   5.694  10.398 -0.2974  0.0752  1.1604
  164SOPE   H2S18387   7.503   5.837  10.330  0.0701 -0.3164  1.3243
  164SOPE    C318388   7.227   6.167  10.398 -0.7031 -0.3885  0.4178
  164SOPE    HX18389   7.318   6.230  10.401 -1.2635  0.3883  2.0509
  164SOPE    HY18390   7.144   6.236  10.427 -1.9722 -1.3882 -0.7519
  164SOPE   O3118391   7.225   6.116  10.264  0.2481 -0.6524  0.5050
  164SOPE   C3118392   7.105   6.108  10.214 -0.3589  0.4143 -0.5610
  164SOPE   O3218393   7.001   6.140  10.271 -0.0682  0.4948 -0.6424
  164SOPE   C3218394   7.117   6.036  10.087  0.9643  0.1059  0.5359
  164SOPE   H2X18395   7.116   5.927  10.112  0.7279  0.5437  2.4655
  164SOPE   H2Y18396   7.215   6.056  10.038  0.3073 -0.0167 -0.8678
  164SOPE   C2318397   7.381   5.704  10.183  0.3327  0.5550 -0.2824
  164SOPE   H3R18398   7.290   5.641  10.189 -0.0464  1.2362  1.5413
  164SOPE   H3S18399   7.470   5.637  10.178  0.5969  0.6202  2.4540
  164SOPE   C2418400   7.363   5.800  10.062  0.7424  0.3369  0.0870
  164SOPE   H4R18401   7.271   5.763  10.011  0.0874  1.8723  0.1295
  164SOPE   H4S18402   7.337   5.904  10.089 -1.7848  0.3780 -2.2406
  164SOPE   C2518403   7.475   5.814   9.964  0.4445  0.7085  0.0554
  164SOPE   H5R18404   7.573   5.838  10.012  0.6201  1.3848 -0.6360
  164SOPE   H5S18405   7.505   5.710   9.936  0.2989  0.9276 -0.9070
  164SOPE   C2618406   7.457   5.897   9.840  0.4536  0.4003 -0.3059
  164SOPE   H6R18407   7.422   5.996   9.877 -0.8473  0.1593 -0.8535
  164SOPE   H6S18408   7.560   5.921   9.807  0.3158  0.7442 -0.4873
  164SOPE   C2718409   7.376   5.827   9.723 -0.1530 -0.2449  0.0739
  164SOPE   H7R18410   7.421   5.734   9.684 -0.8765  0.3314 -2.2224
  164SOPE   H7S18411   7.272   5.804   9.756  0.3263  0.6305  2.2701
  164SOPE   C2818412   7.363   5.907   9.594  0.6099  0.3076 -0.3979
  164SOPE   H8R18413   7.295   5.849   9.527  0.6110  2.1475 -2.0366
  164SOPE   H8S18414   7.307   6.000   9.619  0.0360  0.4543 -2.1154
  164SOPE   C2918415   7.484   5.942   9.509  0.0560 -1.0239  0.4529
  164SOPE   H9118416   7.578   5.943   9.565  1.0551  2.6518 -1.1877
  164SOPE  C21018417   7.493   5.949   9.375  0.2343  0.0099  0.3793
  164SOPE  H10118418   7.586   5.976   9.322 -0.6764 -0.0845 -1.3210
  164SOPE  C21118419   7.375   5.945   9.281 -0.1243 -0.1860  0.0071
  164SOPE  H11R18420   7.375   6.027   9.207  1.1508  0.2194  0.4333
  164SOPE  H11S18421   7.279   5.956   9.336  0.3718  0.0549  0.8362
  164SOPE  C21218422   7.358   5.808   9.207 -0.4453  0.1324 -0.5772
  164SOPE  H12R18423   7.344   5.729   9.284 -0.2232  1.5993  0.9710
  164SOPE  H12S18424   7.457   5.773   9.170 -0.0193  0.4401  0.2601
  164SOPE  C21318425   7.248   5.816   9.094 -0.0445  0.5240  0.0292
  164SOPE  H13R18426   7.294   5.885   9.021  1.8201 -0.3420  0.3626
  164SOPE  H13S18427   7.153   5.861   9.130 -1.5865 -1.4672 -1.4043
  164SOPE  C21418428   7.241   5.676   9.026 -0.7918  0.8077 -0.1468
  164SOPE  H14R18429   7.273   5.599   9.099 -1.1179  0.6486 -0.1728
  164SOPE  H14S18430   7.321   5.665   8.949  0.9055  1.7212  1.4298
  164SOPE  C21518431   7.104   5.632   8.977 -0.5066 -0.9322 -0.1746
  164SOPE  H15R18432   7.071   5.705   8.900  0.2557 -0.3770  0.0188
  164SOPE  H15S18433   7.033   5.635   9.062  0.3224  1.6329  0.4831
  164SOPE  C21618434   7.104   5.493   8.917 -0.1169  0.3584  0.3602
  164SOPE  H16R18435   7.167   5.429   8.981 -0.9747 -3.0983 -2.0965
  164SOPE  H16S18436   7.154   5.502   8.818  1.8835  0.6347  1.3734
  164SOPE  C21718437   6.972   5.417   8.905 -0.0080  0.0637  0.5761
  164SOPE  H17R18438   6.992   5.335   8.834  2.0594  2.2888 -1.5059
  164SOPE  H17S18439   6.906   5.489   8.851  0.5417 -1.9111 -2.8514
  164SOPE  C21818440   6.896   5.372   9.027 -0.1381  0.0564 -0.3672
  164SOPE  H18R18441   6.952   5.292   9.080 -0.9099 -0.9535 -1.0762
  164SOPE  H18S18442   6.796   5.333   8.998  1.1664 -1.5985 -2.7445
  164SOPE  H18T18443   6.884   5.454   9.102  1.8576  0.5320 -0.5421
  164SOPE   C3318444   6.996   6.060   9.994 -0.7193 -0.3640 -0.1486
  164SOPE   H3X18445   6.975   6.168   9.978 -1.6849 -0.5102  0.1530
  164SOPE   H3Y18446   6.906   6.027  10.049  0.3578  0.8742  2.4015
  164SOPE   C3418447   7.002   5.978   9.856  0.4546 -0.0372 -0.7862
  164SOPE   H4X18448   7.021   5.871   9.880  1.3864  0.7940  2.4656
  164SOPE   H4Y18449   7.087   6.019   9.797 -0.8296 -1.5600 -3.8021
  164SOPE   C3518450   6.886   5.986   9.767  0.7662  0.2400  0.2299
  164SOPE   H5X18451   6.807   5.932   9.824  0.4135  0.0478 -0.4274
  164SOPE   H5Y18452   6.897   5.927   9.673  1.5049  3.2115 -1.5885
  164SOPE   C3618453   6.857   6.136   9.732 -0.0644 -0.1264  0.0400
  164SOPE   H6X18454   6.950   6.187   9.699 -0.9321  1.2497 -0.3488
  164SOPE   H6Y18455   6.813   6.202   9.811 -0.1751  1.1054 -1.0291
  164SOPE   C3718456   6.762   6.155   9.613 -0.0373  0.1458 -1.2612
  164SOPE   H7X18457   6.668   6.102   9.639  0.1295  0.3915 -0.1010
  164SOPE   H7Y18458   6.804   6.111   9.520 -1.4590  0.1826 -1.9222
  164SOPE   C3818459   6.729   6.302   9.596 -0.4296 -0.3451 -0.7361
  164SOPE   H8X18460   6.830   6.349   9.600  0.2572 -1.7838 -0.9009
  164SOPE   H8Y18461   6.678   6.339   9.688  2.1147  0.2062  0.5249
  164SOPE   C3918462   6.666   6.354   9.469  0.0416  0.3951 -0.0989
  164SOPE   H9X18463   6.650   6.463   9.483 -3.1895 -0.1749  1.3983
  164SOPE   H9Y18464   6.563   6.313   9.460 -0.5928  2.1785 -0.9719
  164SOPE  C31018465   6.749   6.333   9.339 -0.5019 -0.1215 -0.0013
  164SOPE  H10X18466   6.774   6.225   9.340  2.3696  0.5013  0.3890
  164SOPE  H10Y18467   6.831   6.406   9.355 -0.1829 -0.6277  0.7281
  164SOPE  C31118468   6.674   6.358   9.212  0.0726  0.4279 -0.8374
  164SOPE  H11X18469   6.585   6.293   9.202  0.1011  0.2373  0.1029
  164SOPE  H11Y18470   6.734   6.339   9.121  1.4249 -0.3377  0.1966
  164SOPE  C31218471   6.628   6.505   9.208  0.7793 -0.3962 -0.5388
  164SOPE  H12X18472   6.704   6.575   9.250  1.0336 -0.9639 -0.0497
  164SOPE  H12Y18473   6.538   6.526   9.271  0.9208  2.6975 -1.2647
  164SOPE  C31318474   6.588   6.551   9.065 -0.7540  1.2571  0.2524
  164SOPE  H13X18475   6.499   6.490   9.040 -0.3139 -0.2067  2.1193
  164SOPE  H13Y18476   6.671   6.530   8.995 -0.4845  1.1968  0.5873
  164SOPE  C31418477   6.571   6.694   9.044 -0.3012 -0.3359  0.7263
  164SOPE  H14X18478   6.664   6.741   9.005  0.5044 -1.9898  0.5827
  164SOPE  H14Y18479   6.552   6.741   9.143  0.7894 -0.7301  1.1321
  164SOPE  C31518480   6.446   6.714   8.956  0.7423 -0.4636  0.6430
  164SOPE  H15X18481   6.449   6.663   8.858  2.6055  0.3355  0.2621
  164SOPE  H15Y18482   6.458   6.818   8.919  0.7456 -0.4944  0.5557
  164SOPE  C31618483   6.317   6.682   9.021  0.5869  0.5384  0.1880
  164SOPE  H16X18484   6.336   6.709   9.127  3.6610  0.5097 -0.2922
  164SOPE  H16Y18485   6.288   6.575   9.022  0.3006  0.6213  1.6513
  164SOPE  C31718486   6.210   6.773   8.976  0.4234  0.1833  0.2505
  164SOPE  H17X18487   6.242   6.879   8.987 -1.1345  1.0523 -3.0156
  164SOPE  H17Y18488   6.120   6.755   9.039 -0.2751  1.5837 -0.3262
  164SOPE  C31818489   6.176   6.749   8.830  0.0400  0.3070  0.3418
  164SOPE  H18X18490   6.262   6.727   8.764  0.0686  1.4614  0.0023
  164SOPE  H18Y18491   6.111   6.823   8.780  0.4891 -0.8657 -2.0363
  164SOPE  H18Z18492   6.115   6.655   8.831  2.5181 -1.3409  0.4165
  165SOPE     N18493   4.652   0.363  10.706  0.0506 -0.3377 -0.8839
  165SOPE   HN118494   4.599   0.452  10.702 -0.6305 -0.6231  1.1513
  165SOPE   HN218495   4.589   0.302  10.651 -0.2082 -0.5303 -0.3804
  165SOPE   HN318496   4.655   0.337  10.807  0.7709  3.1797  0.0860
  165SOPE   C1218497   4.790   0.382  10.654  0.5195  0.0803  0.0200
  165SOPE  H12A18498   4.776   0.400  10.545  1.6918 -3.4587 -0.7633
  165SOPE  H12B18499   4.838   0.284  10.671 -0.9021 -0.6411 -0.0334
  165SOPE   C1118500   4.864   0.493  10.729  0.2094 -0.1403 -0.4696
  165SOPE  H11A18501   4.796   0.581  10.727 -3.0276 -2.5142  1.1643
  165SOPE  H11B18502   4.949   0.524  10.664 -0.6770 -0.2075 -1.6787
  165SOPE     P18503   5.039   0.427  10.912  0.1708 -0.4225  0.1918
  165SOPE   O1318504   5.029   0.341  11.032  1.0319  0.4264 -0.5328
  165SOPE   O1418505   5.114   0.553  10.929 -0.1793 -0.2884  0.2151
  165SOPE   O1218506   4.886   0.464  10.868 -0.3775  0.3131 -0.0868
  165SOPE   O1118507   5.087   0.359  10.779 -0.4184 -0.0864  0.1426
  165SOPE    C118508   5.150   0.224  10.779  1.0878 -0.2889 -0.4973
  165SOPE    HA18509   5.072   0.147  10.799 -0.6570  1.6786  0.5570
  165SOPE    HB18510   5.227   0.202  10.856  2.5025  0.5023 -1.6718
  165SOPE    C218511   5.223   0.185  10.638 -0.0120 -0.8709  0.2449
  165SOPE    HS18512   5.298   0.266  10.628 -1.1188  0.4253  2.1245
  165SOPE   O2118513   5.131   0.182  10.528  0.2516 -0.0061 -0.5382
  165SOPE   C2118514   5.096   0.302  10.482 -0.0136 -0.6313 -0.1247
  165SOPE   O2218515   5.141   0.409  10.517 -1.1462 -0.6882  0.1215
  165SOPE   C2218516   4.982   0.285  10.380 -0.7450 -0.1819 -0.5100
  165SOPE   H2R18517   4.905   0.359  10.411  0.0574 -0.2178  1.6335
  165SOPE   H2S18518   4.940   0.183  10.392  0.1280 -0.2815  1.7963
  165SOPE    C318519   5.301   0.042  10.648  0.5805  1.1690 -0.1546
  165SOPE    HX18520   5.215  -0.025  10.624 -0.6764  1.5290  3.0513
  165SOPE    HY18521   5.348   0.031  10.748 -0.0820  1.8602  0.2416
  165SOPE   O3118522   5.403   0.039  10.548  0.1425 -0.5324 -0.0988
  165SOPE   C3118523   5.398  -0.025  10.433  0.0455 -0.1807  0.2258
  165SOPE   O3218524   5.299  -0.092  10.405 -0.2732  0.1763 -0.4965
  165SOPE   C3218525   5.522  -0.024  10.350  0.7415  0.5059 -0.7011
  165SOPE   H2X18526   5.588  -0.102  10.393 -1.3067  0.4995  2.6253
  165SOPE   H2Y18527   5.578   0.072  10.346  1.2445  0.3002  0.9888
  165SOPE   C2318528   5.031   0.297  10.235 -0.3596  0.0674  0.0499
  165SOPE   H3R18529   5.067   0.401  10.221 -2.6972  1.2055  1.9424
  165SOPE   H3S18530   4.938   0.287  10.175 -1.9508 -1.3772  2.6727
  165SOPE   C2418531   5.143   0.192  10.204  0.6043 -0.6756  0.7605
  165SOPE   H4R18532   5.231   0.209  10.270  0.9441  0.6090 -0.0034
  165SOPE   H4S18533   5.110   0.088  10.220  2.8189 -1.6564 -0.8953
  165SOPE   C2518534   5.211   0.214  10.061 -0.0374  0.0239 -0.4124
  165SOPE   H5R18535   5.255   0.316  10.069  0.0722 -0.0689  0.2007
  165SOPE   H5S18536   5.293   0.140  10.050  0.3672  0.4146 -0.0327
  165SOPE   C2618537   5.120   0.198   9.943  0.2243  0.0862  0.3641
  165SOPE   H6R18538   5.075   0.099   9.924 -1.5080  0.8549  0.3380
  165SOPE   H6S18539   5.036   0.270   9.955  0.4473  0.1626  1.6044
  165SOPE   C2718540   5.194   0.225   9.814 -0.1652 -0.2984  0.0653
  165SOPE   H7R18541   5.210   0.335   9.806  0.8364 -0.3114  1.6218
  165SOPE   H7S18542   5.291   0.172   9.818  0.2384  0.1139 -3.3186
  165SOPE   C2818543   5.108   0.198   9.692 -0.0033  0.4429  0.2316
  165SOPE   H8R18544   5.087   0.089   9.688 -2.4135  0.9197 -0.9105
  165SOPE   H8S18545   5.009   0.243   9.714 -0.0192 -0.4458  2.0860
  165SOPE   C2918546   5.162   0.228   9.557 -0.2087 -0.2453  0.0367
  165SOPE   H9118547   5.252   0.289   9.545 -0.0249 -0.8889 -2.2587
  165SOPE  C21018548   5.104   0.190   9.442  0.7732  0.4621 -0.1517
  165SOPE  H10118549   5.157   0.221   9.351  1.8108  1.0036  0.6304
  165SOPE  C21118550   4.975   0.124   9.408  0.3527  0.2780 -0.0243
  165SOPE  H11R18551   4.915   0.173   9.329  0.8543  2.9823  1.2135
  165SOPE  H11S18552   4.920   0.125   9.505  0.0807 -0.4503 -0.1650
  165SOPE  C21218553   4.991  -0.027   9.386 -0.4547  0.1230 -0.6414
  165SOPE  H12R18554   4.901  -0.087   9.411 -0.0910 -0.3254 -0.4054
  165SOPE  H12S18555   5.078  -0.068   9.442 -0.9979  2.5682  2.1173
  165SOPE  C21318556   5.035  -0.055   9.248 -0.5336  0.8042  0.9363
  165SOPE  H13R18557   5.075  -0.159   9.248  0.1984  1.0146 -2.7988
  165SOPE  H13S18558   5.121   0.010   9.223 -0.4219  0.0083 -0.8784
  165SOPE  C21418559   4.923  -0.035   9.143  0.0612  0.6859  0.6325
  165SOPE  H14R18560   4.890   0.071   9.140  1.7819  1.3031  1.9664
  165SOPE  H14S18561   4.838  -0.095   9.183 -0.2040  0.6346 -0.0104
  165SOPE  C21518562   4.972  -0.072   9.001 -0.0439 -0.2118  0.5777
  165SOPE  H15R18563   4.974  -0.182   8.984  1.6897  0.1437 -1.7962
  165SOPE  H15S18564   5.077  -0.036   9.008 -0.0252 -0.1874  0.2252
  165SOPE  C21618565   4.889   0.010   8.897 -0.7003 -0.2777  0.4764
  165SOPE  H16R18566   4.927  -0.011   8.795  0.3093  1.0656  0.5632
  165SOPE  H16S18567   4.893   0.119   8.913 -1.3512 -0.5299  2.5068
  165SOPE  C21718568   4.749  -0.044   8.889 -0.3958  0.4434 -0.2827
  165SOPE  H17R18569   4.682  -0.009   8.970 -2.3793 -1.7257 -0.9255
  165SOPE  H17S18570   4.751  -0.153   8.910  0.8602  0.5305  0.0640
  165SOPE  C21818571   4.689  -0.042   8.746 -0.3277 -0.0910 -0.6784
  165SOPE  H18R18572   4.686   0.052   8.686  1.9802 -0.8973 -2.1015
  165SOPE  H18S18573   4.586  -0.083   8.756  0.8550 -2.8632  0.5866
  165SOPE  H18T18574   4.753  -0.116   8.694 -0.0156 -1.0796  1.0636
  165SOPE   C3318575   5.489  -0.063  10.205 -0.3380 -0.1916  0.2333
  165SOPE   H3X18576   5.422   0.016  10.166 -0.0180 -0.7894 -1.5567
  165SOPE   H3Y18577   5.459  -0.170  10.202  2.8165 -1.1374  0.8428
  165SOPE   C3418578   5.620  -0.066  10.128  0.2755 -1.0791  0.0758
  165SOPE   H4X18579   5.687  -0.146  10.166  1.3348 -0.4727 -0.5005
  165SOPE   H4Y18580   5.682   0.025  10.138  0.4097 -1.2604  0.9184
  165SOPE   C3518581   5.600  -0.077   9.974 -0.4552  0.0040  0.3033
  165SOPE   H5X18582   5.533   0.004   9.938  0.8145  0.7052 -0.5164
  165SOPE   H5Y18583   5.551  -0.177   9.968 -1.8258  0.6514  0.5055
  165SOPE   C3618584   5.726  -0.086   9.882 -0.6652  0.3701 -0.4421
  165SOPE   H6X18585   5.791  -0.169   9.917 -1.5764 -1.3503 -2.6804
  165SOPE   H6Y18586   5.780   0.010   9.873  0.1037  0.0476  0.5390
  165SOPE   C3718587   5.692  -0.131   9.739 -0.1659 -0.3204  0.7204
  165SOPE   H7X18588   5.622  -0.217   9.737  0.0164 -0.4500 -2.5898
  165SOPE   H7Y18589   5.789  -0.156   9.691 -0.2962 -0.2494  0.4202
  165SOPE   C3818590   5.634  -0.013   9.655 -0.0534 -1.0449  0.2330
  165SOPE   H8X18591   5.708   0.070   9.656 -1.3732  0.2039 -2.7550
  165SOPE   H8Y18592   5.541   0.029   9.699 -0.2681 -1.0265 -0.2407
  165SOPE   C3918593   5.598  -0.050   9.506 -0.2850 -0.4644 -0.1952
  165SOPE   H9X18594   5.567  -0.157   9.502 -0.1284 -0.5720  1.4180
  165SOPE   H9Y18595   5.698  -0.043   9.458  0.4044 -0.4000  1.2449
  165SOPE  C31018596   5.508   0.041   9.429  0.1694  0.0756 -0.8939
  165SOPE  H10X18597   5.548   0.144   9.431 -2.6460  1.2309 -1.8404
  165SOPE  H10Y18598   5.401   0.045   9.457  0.4285 -2.3517  0.6282
  165SOPE  C31118599   5.504  -0.006   9.284  0.1536  0.1391  0.0948
  165SOPE  H11X18600   5.455  -0.104   9.263 -1.0624  0.7341  0.1132
  165SOPE  H11Y18601   5.611  -0.022   9.257  0.5103 -0.1081  1.6299
  165SOPE  C31218602   5.443   0.086   9.175  0.5750  0.2260 -0.0520
  165SOPE  H12X18603   5.488   0.187   9.178  0.0065  0.5074 -0.8020
  165SOPE  H12Y18604   5.336   0.100   9.203  0.4920 -2.1477  0.9914
  165SOPE  C31318605   5.436   0.018   9.038 -0.1170 -0.4339  0.6396
  165SOPE  H13X18606   5.388  -0.081   9.049 -0.4285 -0.5089 -1.1986
  165SOPE  H13Y18607   5.535  -0.008   8.993 -1.0859 -3.1742  0.0332
  165SOPE  C31418608   5.362   0.103   8.931  0.2746  0.0096 -0.1176
  165SOPE  H14X18609   5.422   0.194   8.911 -0.2307  0.1261 -1.1481
  165SOPE  H14Y18610   5.261   0.136   8.964  0.2155  0.8921 -1.1587
  165SOPE  C31518611   5.349   0.026   8.798  0.1642  0.2493  0.4443
  165SOPE  H15X18612   5.329  -0.081   8.821 -3.1661  1.0507  1.4219
  165SOPE  H15Y18613   5.437   0.039   8.731  0.3123 -1.7979  0.2149
  165SOPE  C31618614   5.223   0.076   8.713  0.4587  0.0214 -0.3104
  165SOPE  H16X18615   5.230   0.186   8.699 -3.8267  0.5571  0.8820
  165SOPE  H16Y18616   5.127   0.062   8.769 -0.4360  1.4316 -1.4691
  165SOPE  C31718617   5.222   0.004   8.574  1.0330  0.1001  0.1589
  165SOPE  H17X18618   5.321   0.018   8.525  0.7695  1.2993 -0.0361
  165SOPE  H17Y18619   5.152   0.063   8.512  0.5306 -0.3593  0.2852
  165SOPE  C31818620   5.185  -0.149   8.560 -0.4283 -0.1735  0.0288
  165SOPE  H18X18621   5.095  -0.167   8.621 -0.8649 -3.5666 -1.4766
  165SOPE  H18Y18622   5.267  -0.211   8.604  0.3845  1.6194  1.0716
  165SOPE  H18Z18623   5.166  -0.168   8.452  3.1512 -0.1492 -0.6622
  166SOPE     N18624   1.692   0.808  11.339  0.5694 -0.4822 -0.1657
  166SOPE   HN118625   1.737   0.890  11.294 -0.3642 -0.0714 -0.3726
  166SOPE   HN218626   1.637   0.854  11.415  0.7913 -1.4783  0.6104
  166SOPE   HN318627   1.768   0.755  11.387  0.2899 -0.5808  0.1723
  166SOPE   C1218628   1.601   0.730  11.245 -0.1342 -0.0306  0.5849
  166SOPE  H12A18629   1.529   0.804  11.204  0.3738 -0.4097 -1.0062
  166SOPE  H12B18630   1.548   0.649  11.300 -0.5889  1.7535  2.8666
  166SOPE   C1118631   1.673   0.682  11.118 -0.4785 -0.7244 -0.0961
  166SOPE  H11A18632   1.600   0.632  11.051  0.6089 -0.7643 -1.2874
  166SOPE  H11B18633   1.762   0.618  11.136 -0.0277 -0.1907 -0.4144
  166SOPE     P18634   1.856   0.797  10.968  0.3083 -0.0672 -0.0649
  166SOPE   O1318635   1.948   0.688  11.016  0.4651  0.6624  0.0629
  166SOPE   O1418636   1.903   0.939  10.972  0.1085 -0.0773 -0.1373
  166SOPE   O1218637   1.717   0.796  11.045 -0.0045  0.3059 -0.2139
  166SOPE   O1118638   1.827   0.765  10.817 -0.1378 -0.0285  0.4722
  166SOPE    C118639   1.706   0.697  10.776  1.3775 -0.3649  0.5576
  166SOPE    HA18640   1.633   0.770  10.735 -1.8587 -2.6145  2.1018
  166SOPE    HB18641   1.649   0.644  10.855  0.7683  2.0291  1.7486
  166SOPE    C218642   1.730   0.607  10.656  0.2979 -0.4566 -0.0232
  166SOPE    HS18643   1.805   0.540  10.704 -0.6221 -0.8237  0.8994
  166SOPE   O2118644   1.770   0.688  10.546  0.0210  0.2801 -0.4592
  166SOPE   C2118645   1.866   0.627  10.478 -0.1583 -0.0151 -0.1015
  166SOPE   O2218646   1.917   0.520  10.502 -0.1212  0.7312 -0.5192
  166SOPE   C2218647   1.895   0.696  10.353 -0.0302  0.0106  0.3005
  166SOPE   H2R18648   1.983   0.764  10.361  0.9846 -1.0805 -1.2519
  166SOPE   H2S18649   1.806   0.758  10.327 -0.6580 -0.6326  0.8930
  166SOPE    C318650   1.599   0.523  10.607  0.0584  0.6313 -0.2855
  166SOPE    HX18651   1.522   0.589  10.562  1.8094  0.3405 -3.8043
  166SOPE    HY18652   1.556   0.477  10.699 -0.5832 -0.2994 -1.0517
  166SOPE   O3118653   1.632   0.419  10.511  0.6377  0.8570  0.2594
  166SOPE   C3118654   1.682   0.305  10.572  0.0885 -0.0596 -0.1242
  166SOPE   O3218655   1.688   0.284  10.691 -0.0513  0.0579 -0.0823
  166SOPE   C3218656   1.756   0.222  10.467 -0.0289  0.4846 -0.7710
  166SOPE   H2X18657   1.780   0.130  10.524  2.5252  2.3238  1.2702
  166SOPE   H2Y18658   1.851   0.276  10.446 -0.3736  1.8606  1.0873
  166SOPE   C2318659   1.913   0.595  10.233  0.3677  0.3268 -0.0006
  166SOPE   H3R18660   1.900   0.655  10.140 -1.7317  0.3053  0.2384
  166SOPE   H3S18661   1.829   0.522  10.219  0.9844 -0.2314 -0.8727
  166SOPE   C2418662   2.047   0.535  10.239 -0.1015  0.2495  0.3477
  166SOPE   H4R18663   2.125   0.601  10.284  0.9381 -0.3081 -0.6072
  166SOPE   H4S18664   2.052   0.451  10.312 -0.2537 -3.3354 -3.6167
  166SOPE   C2518665   2.098   0.489  10.096  0.9644 -0.3111 -0.0238
  166SOPE   H5R18666   2.016   0.420  10.063  0.8412  0.2534 -0.9234
  166SOPE   H5S18667   2.117   0.576  10.030  0.2955  1.1086  1.6434
  166SOPE   C2618668   2.228   0.411  10.102 -0.3724  0.1838 -0.7428
  166SOPE   H6R18669   2.303   0.474  10.155  1.3730 -1.1770 -1.5489
  166SOPE   H6S18670   2.210   0.321  10.164 -0.8190  0.3769 -0.5927
  166SOPE   C2718671   2.283   0.380   9.964 -0.4454 -0.5455 -0.2406
  166SOPE   H7R18672   2.203   0.336   9.901  0.3820 -0.0060 -1.6882
  166SOPE   H7S18673   2.317   0.475   9.916 -0.6835 -0.8399 -0.9952
  166SOPE   C2818674   2.409   0.296   9.973 -0.0998  0.1240 -0.3306
  166SOPE   H8R18675   2.477   0.332   9.893  0.3003  2.7063  1.1077
  166SOPE   H8S18676   2.470   0.308  10.065 -1.0897 -1.9241  0.6176
  166SOPE   C2918677   2.361   0.159   9.951 -0.4533 -0.4357 -0.1386
  166SOPE   H9118678   2.300   0.122  10.035 -0.2359 -0.3930  0.0412
  166SOPE  C21018679   2.375   0.088   9.839  0.5087  0.4286  0.2582
  166SOPE  H10118680   2.330  -0.013   9.837 -1.2882  1.1018  3.2163
  166SOPE  C21118681   2.453   0.130   9.721  0.0457  1.1950 -0.1952
  166SOPE  H11R18682   2.472   0.042   9.657 -1.9849 -0.0185  0.8118
  166SOPE  H11S18683   2.551   0.176   9.745  1.2202 -1.4551  0.1901
  166SOPE  C21218684   2.387   0.234   9.632  0.7072  0.8236  0.0198
  166SOPE  H12R18685   2.454   0.275   9.553  1.6802  1.6501  1.2529
  166SOPE  H12S18686   2.358   0.320   9.697  0.9124 -0.6548  2.1395
  166SOPE  C21318687   2.261   0.174   9.570  0.1191 -0.2890  0.1113
  166SOPE  H13R18688   2.205   0.134   9.656 -0.9811  1.1715  0.0970
  166SOPE  H13S18689   2.306   0.104   9.497  2.2640  1.7836 -0.6311
  166SOPE  C21418690   2.168   0.279   9.502  0.6204  0.1161 -0.2844
  166SOPE  H14R18691   2.101   0.221   9.436  0.0620 -0.5223  0.8222
  166SOPE  H14S18692   2.243   0.335   9.441 -0.2939  2.1353  0.3805
  166SOPE  C21518693   2.096   0.373   9.598 -0.1896 -0.2038  0.6696
  166SOPE  H15R18694   2.168   0.420   9.669  0.5583 -1.4220  0.7291
  166SOPE  H15S18695   2.030   0.308   9.660 -0.5917  1.7710  2.3849
  166SOPE  C21618696   2.015   0.485   9.531  0.2301 -0.9363  0.0968
  166SOPE  H16R18697   1.947   0.440   9.456  0.3097  1.0315 -1.1962
  166SOPE  H16S18698   2.082   0.557   9.479  0.0909  0.1923  1.4481
  166SOPE  C21718699   1.925   0.557   9.634 -0.0789 -0.2474 -0.6870
  166SOPE  H17R18700   1.867   0.637   9.583  0.3456 -0.8021 -2.0807
  166SOPE  H17S18701   1.986   0.614   9.706  0.2735  1.4253 -2.2723
  166SOPE  C21818702   1.824   0.476   9.710  0.6511  0.1821  0.2875
  166SOPE  H18R18703   1.755   0.546   9.761  1.6561  0.6259  1.0632
  166SOPE  H18S18704   1.872   0.400   9.776 -1.7721 -1.6524 -0.0048
  166SOPE  H18T18705   1.762   0.413   9.643  4.8219 -1.1981 -2.5000
  166SOPE   C3318706   1.675   0.184  10.338  0.1330 -0.2857 -0.6051
  166SOPE   H3X18707   1.629   0.277  10.300  0.9000 -0.5286 -2.1758
  166SOPE   H3Y18708   1.588   0.124  10.371 -0.5885  0.8520 -0.4143
  166SOPE   C3418709   1.753   0.116  10.225 -0.0795  0.1560 -0.5214
  166SOPE   H4X18710   1.670   0.083  10.159 -0.3419  0.4726 -0.3481
  166SOPE   H4Y18711   1.815   0.041  10.279  0.3809 -0.2132 -1.5350
  166SOPE   C3518712   1.846   0.209  10.151 -0.2473 -0.3338 -0.2293
  166SOPE   H5X18713   1.923   0.251  10.220  1.4490 -1.3859 -1.4279
  166SOPE   H5Y18714   1.783   0.290  10.108 -1.7439 -1.9058 -1.0255
  166SOPE   C3618715   1.911   0.132  10.032 -0.0553  0.5044 -0.4764
  166SOPE   H6X18716   1.960   0.047  10.085  0.3749  1.5287  0.8081
  166SOPE   H6Y18717   1.994   0.194   9.993  0.3689  0.1431 -0.1548
  166SOPE   C3718718   1.820   0.092   9.914 -0.4717 -0.4225  0.3459
  166SOPE   H7X18719   1.743   0.169   9.894  2.0851  1.7329 -1.6461
  166SOPE   H7Y18720   1.764   0.007   9.957 -1.6226  0.2385  0.1816
  166SOPE   C3818721   1.900   0.058   9.787  0.6537 -0.1177 -0.9120
  166SOPE   H8X18722   1.964  -0.029   9.814 -0.3606 -0.7421 -0.4773
  166SOPE   H8Y18723   1.963   0.136   9.740  0.5220 -0.4600 -1.6523
  166SOPE   C3918724   1.816   0.013   9.667 -0.1281  0.0237  0.3820
  166SOPE   H9X18725   1.746   0.090   9.628 -1.6982 -1.7794 -0.4515
  166SOPE   H9Y18726   1.748  -0.068   9.703  0.6771 -1.4190 -1.2849
  166SOPE  C31018727   1.893  -0.037   9.543  0.1238 -0.9463 -0.1022
  166SOPE  H10X18728   1.965  -0.116   9.574 -0.6354 -1.7112 -0.2555
  166SOPE  H10Y18729   1.947   0.049   9.500 -0.3231 -1.1198 -1.0156
  166SOPE  C31118730   1.800  -0.096   9.444 -0.0844 -0.4966  0.6413
  166SOPE  H11X18731   1.702  -0.043   9.444 -0.3784 -0.9390 -2.5934
  166SOPE  H11Y18732   1.798  -0.200   9.483  2.1246 -0.1745  1.6863
  166SOPE  C31218733   1.862  -0.101   9.312  0.2715 -0.4081 -0.6133
  166SOPE  H12X18734   1.963  -0.146   9.310 -0.0033 -1.0036 -1.8215
  166SOPE  H12Y18735   1.876   0.003   9.276  1.5755  0.2441  1.7073
  166SOPE  C31318736   1.777  -0.155   9.204  0.2747  0.0368 -0.0837
  166SOPE  H13X18737   1.691  -0.085   9.198 -1.3385 -1.9656 -0.7464
  166SOPE  H13Y18738   1.728  -0.249   9.238  1.5665 -0.6345 -0.0517
  166SOPE  C31418739   1.854  -0.158   9.071 -0.0465 -0.0949  0.3140
  166SOPE  H14X18740   1.938  -0.228   9.090  0.9136  1.6672  2.8740
  166SOPE  H14Y18741   1.892  -0.056   9.047  0.6249 -0.9610 -2.4678
  166SOPE  C31518742   1.774  -0.212   8.954 -0.3805  0.0494  0.8007
  166SOPE  H15X18743   1.685  -0.150   8.931 -0.4716  0.2147  1.5878
  166SOPE  H15Y18744   1.744  -0.317   8.974 -1.5185  0.3558  0.7251
  166SOPE  C31618745   1.848  -0.234   8.825  0.0116  0.1528  0.2048
  166SOPE  H16X18746   1.941  -0.294   8.830 -0.7275 -0.9764  0.7787
  166SOPE  H16Y18747   1.897  -0.141   8.791  0.6341 -0.5692 -0.8875
  166SOPE  C31718748   1.753  -0.277   8.708  0.2535 -0.2474  0.3340
  166SOPE  H17X18749   1.684  -0.194   8.682  0.8376  0.0606 -0.2631
  166SOPE  H17Y18750   1.689  -0.366   8.729  1.0463 -1.0460 -0.5820
  166SOPE  C31818751   1.837  -0.291   8.578  1.3025 -0.4835 -0.0982
  166SOPE  H18X18752   1.902  -0.206   8.548  2.2303 -1.0842  0.1906
  166SOPE  H18Y18753   1.772  -0.309   8.489 -1.7376  0.8230  1.7846
  166SOPE  H18Z18754   1.898  -0.382   8.593 -1.1374 -1.8481  1.9264
  167SOPE     N18755   3.015   5.527   6.277  1.0548  0.9980 -0.7363
  167SOPE   HN118756   2.969   5.584   6.204  0.0732  1.1103 -0.0467
  167SOPE   HN218757   3.096   5.488   6.226 -0.6289  2.0669 -4.3395
  167SOPE   HN318758   2.953   5.448   6.306  1.6473  1.2373  1.2475
  167SOPE   C1218759   3.071   5.605   6.393 -0.7467 -0.4493  0.2736
  167SOPE  H12A18760   3.130   5.529   6.450 -0.0342 -0.6248 -0.6878
  167SOPE  H12B18761   2.985   5.648   6.449  0.3175  1.7610  0.2735
  167SOPE   C1118762   3.174   5.713   6.349 -0.4104 -0.2169  0.0137
  167SOPE  H11A18763   3.224   5.748   6.442 -1.9770  0.2716  0.7013
  167SOPE  H11B18764   3.138   5.814   6.317  0.6072  0.4715  1.0111
  167SOPE     P18765   3.421   5.710   6.259 -0.3657 -0.2827 -0.2379
  167SOPE   O1318766   3.404   5.856   6.232  0.2706 -0.0348 -0.5504
  167SOPE   O1418767   3.493   5.633   6.154 -0.4682 -0.5600  0.4247
  167SOPE   O1218768   3.272   5.654   6.258  0.3930 -0.0551 -0.5344
  167SOPE   O1118769   3.482   5.675   6.408  0.0277  0.1095 -0.7469
  167SOPE    C118770   3.448   5.537   6.447  0.0978  0.0935  0.2278
  167SOPE    HA18771   3.495   5.467   6.374  1.5826 -0.2375  1.4522
  167SOPE    HB18772   3.340   5.511   6.445  0.4180 -1.2490 -2.6966
  167SOPE    C218773   3.509   5.502   6.586 -0.0937  0.1782 -0.7747
  167SOPE    HS18774   3.484   5.395   6.602 -0.3444  0.1138 -1.5914
  167SOPE   O2118775   3.447   5.583   6.677  0.3558  0.6878 -0.3717
  167SOPE   C2118776   3.322   5.548   6.712  0.4106 -0.4688 -0.0161
  167SOPE   O2218777   3.262   5.456   6.667  0.7985  0.4005  0.0255
  167SOPE   C2218778   3.275   5.665   6.792  0.0094 -0.1481 -1.0281
  167SOPE   H2R18779   3.292   5.757   6.733  2.6603  1.9406  2.7457
  167SOPE   H2S18780   3.342   5.664   6.881  0.6385  1.4341 -1.4622
  167SOPE    C318781   3.660   5.542   6.581 -0.0972  0.1430 -0.2120
  167SOPE    HX18782   3.687   5.648   6.563 -0.6761  0.2680 -0.3452
  167SOPE    HY18783   3.708   5.495   6.491  0.0196  0.0994 -0.1284
  167SOPE   O3118784   3.725   5.491   6.703  0.0530  0.3984 -0.5274
  167SOPE   C3118785   3.837   5.551   6.736 -0.2475  0.0275 -0.4259
  167SOPE   O3218786   3.895   5.638   6.674  0.0022  0.2742 -0.3121
  167SOPE   C3218787   3.871   5.500   6.877  0.4052  0.0070  0.3950
  167SOPE   H2X18788   3.890   5.391   6.861  0.5628  0.6662 -4.8830
  167SOPE   H2Y18789   3.781   5.510   6.941  0.1993 -0.8321  0.2413
  167SOPE   C2318790   3.129   5.641   6.825  0.0349 -0.4767  0.1366
  167SOPE   H3R18791   3.110   5.539   6.864  0.3204 -0.2925  0.7551
  167SOPE   H3S18792   3.066   5.643   6.733  0.2727 -1.4492 -0.0548
  167SOPE   C2418793   3.080   5.731   6.930 -0.3779 -0.1289 -0.2374
  167SOPE   H4R18794   3.150   5.730   7.016 -0.2912  0.9925 -0.2954
  167SOPE   H4S18795   3.076   5.836   6.894 -3.5196  0.2916  1.1266
  167SOPE   C2518796   2.949   5.677   6.988 -0.0176  0.1847  0.3200
  167SOPE   H5R18797   2.878   5.667   6.903  0.3449  1.3192 -0.1310
  167SOPE   H5S18798   2.954   5.575   7.031  0.2466  0.2348  0.4100
  167SOPE   C2618799   2.878   5.781   7.076 -0.0280  0.5506  0.4557
  167SOPE   H6R18800   2.937   5.809   7.166 -2.4308  1.7982  1.7113
  167SOPE   H6S18801   2.878   5.875   7.017 -0.8471  1.9023  2.5631
  167SOPE   C2718802   2.739   5.748   7.126 -0.3561 -0.6227 -0.4247
  167SOPE   H7R18803   2.688   5.844   7.147  0.8436  0.1970 -1.1905
  167SOPE   H7S18804   2.682   5.709   7.040 -1.8403  1.4263 -0.4115
  167SOPE   C2818805   2.736   5.667   7.260  0.3963  0.5013 -0.2854
  167SOPE   H8R18806   2.641   5.609   7.261  1.5771 -1.4749 -0.1343
  167SOPE   H8S18807   2.809   5.585   7.250  0.3455  0.6083 -1.5733
  167SOPE   C2918808   2.744   5.750   7.389 -0.1251 -0.2716 -0.6900
  167SOPE   H9118809   2.685   5.843   7.390 -1.7169 -1.2200 -2.2196
  167SOPE  C21018810   2.805   5.704   7.502  0.3015 -0.1235  0.8953
  167SOPE  H10118811   2.826   5.775   7.583 -0.9220  0.5783  0.6064
  167SOPE  C21118812   2.878   5.570   7.529 -0.0242 -0.0314 -0.4009
  167SOPE  H11R18813   2.969   5.584   7.591  0.9216  1.5543 -2.0906
  167SOPE  H11S18814   2.904   5.519   7.434  1.3709  2.2282 -1.2914
  167SOPE  C21218815   2.784   5.498   7.615  0.1373 -0.2446 -0.6697
  167SOPE  H12R18816   2.691   5.470   7.561 -0.4141 -0.9275  0.6018
  167SOPE  H12S18817   2.748   5.549   7.707  0.4164  0.6448 -1.0470
  167SOPE  C21318818   2.853   5.368   7.669  0.8000 -0.4936  0.0407
  167SOPE  H13R18819   2.939   5.391   7.736  0.3900 -2.0786  1.1465
  167SOPE  H13S18820   2.893   5.319   7.578  0.8422  0.2981 -0.3735
  167SOPE  C21418821   2.753   5.272   7.737 -0.1525 -0.4166  0.6115
  167SOPE  H14R18822   2.817   5.198   7.789 -0.5212 -0.5333  0.8988
  167SOPE  H14S18823   2.692   5.224   7.658  0.0907 -0.5839  0.5256
  167SOPE  C21518824   2.664   5.339   7.848  0.5708 -0.7156  0.0882
  167SOPE  H15R18825   2.586   5.269   7.885 -0.8848  1.3819  1.1098
  167SOPE  H15S18826   2.605   5.422   7.804  1.8155  0.5109  0.6997
  167SOPE  C21618827   2.753   5.378   7.969  0.6709 -0.4957  0.1584
  167SOPE  H16R18828   2.835   5.441   7.928  0.3473 -0.3552 -0.2775
  167SOPE  H16S18829   2.810   5.294   8.014  1.6981 -0.1514 -0.4658
  167SOPE  C21718830   2.674   5.459   8.066  0.4321  0.2369  0.3594
  167SOPE  H17R18831   2.737   5.458   8.158 -0.6663  0.4538  1.1260
  167SOPE  H17S18832   2.582   5.404   8.097 -0.2227  2.4602  2.5123
  167SOPE  C21818833   2.647   5.604   8.023 -0.4081 -0.0720 -0.1272
  167SOPE  H18R18834   2.742   5.631   7.972 -1.3029 -2.4750 -3.2195
  167SOPE  H18S18835   2.648   5.664   8.116 -1.4223 -1.8075  1.0471
  167SOPE  H18T18836   2.556   5.621   7.963  0.9311  0.4453 -2.0581
  167SOPE   C3318837   3.997   5.565   6.940  0.4478  0.3903  0.2521
  167SOPE   H3X18838   4.044   5.620   6.856  1.6814  0.6879  1.1288
  167SOPE   H3Y18839   4.065   5.484   6.974  0.5453  0.7612  0.9623
  167SOPE   C3418840   3.980   5.665   7.049  0.7629 -0.1231 -0.3912
  167SOPE   H4X18841   3.888   5.720   7.020  0.4186 -0.7982 -0.5617
  167SOPE   H4Y18842   4.056   5.746   7.050  1.9743 -1.2484 -0.5773
  167SOPE   C3518843   3.976   5.613   7.194  0.2261  0.3706  0.2573
  167SOPE   H5X18844   4.081   5.601   7.227 -0.0353 -2.4304  0.1645
  167SOPE   H5Y18845   3.929   5.513   7.200 -0.8056  0.9335  1.9574
  167SOPE   C3618846   3.894   5.707   7.284  0.9627  0.3775 -0.2321
  167SOPE   H6X18847   3.806   5.741   7.226  1.2745 -0.7947 -1.4208
  167SOPE   H6Y18848   3.947   5.803   7.306 -2.2455  1.8453  1.4007
  167SOPE   C3718849   3.844   5.637   7.415 -0.1202 -0.2014 -0.1107
  167SOPE   H7X18850   3.763   5.565   7.392 -1.4613  0.4123  2.4836
  167SOPE   H7Y18851   3.811   5.723   7.476  1.2164  0.3341 -0.1159
  167SOPE   C3818852   3.968   5.572   7.489  0.0104  0.6912 -0.5913
  167SOPE   H8X18853   4.050   5.645   7.476  0.2089  0.5648 -0.0708
  167SOPE   H8Y18854   3.988   5.475   7.439 -0.2165  0.0356  0.5746
  167SOPE   C3918855   3.949   5.543   7.640 -0.7557  0.2337 -0.4108
  167SOPE   H9X18856   3.864   5.473   7.646 -0.2935 -0.3937 -1.1368
  167SOPE   H9Y18857   3.922   5.641   7.685  1.4437 -0.0569  1.6082
  167SOPE  C31018858   4.073   5.496   7.716 -0.4393  0.1353 -0.2458
  167SOPE  H10X18859   4.151   5.575   7.722 -1.8037  1.3687  2.0635
  167SOPE  H10Y18860   4.116   5.406   7.667 -1.1302 -0.6428  0.5420
  167SOPE  C31118861   4.042   5.474   7.866 -0.0896 -0.4814 -0.4076
  167SOPE  H11X18862   3.962   5.397   7.868  0.6936 -1.3384 -1.3696
  167SOPE  H11Y18863   3.999   5.573   7.893 -1.0514 -0.3851 -2.1860
  167SOPE  C31218864   4.173   5.452   7.948 -0.1058  0.5457  0.0321
  167SOPE  H12X18865   4.242   5.539   7.936  1.5658 -0.6586  0.8749
  167SOPE  H12Y18866   4.217   5.360   7.906 -3.3380 -1.1263  0.1611
  167SOPE  C31318867   4.145   5.434   8.098 -0.2980  0.1865  0.0440
  167SOPE  H13X18868   4.051   5.374   8.104 -0.7657  1.0205  1.1841
  167SOPE  H13Y18869   4.117   5.538   8.126  0.7108  0.4942 -0.0786
  167SOPE  C31418870   4.261   5.360   8.176 -0.0109 -0.0437  0.5906
  167SOPE  H14X18871   4.354   5.421   8.175 -0.5627  0.8018 -0.8502
  167SOPE  H14Y18872   4.275   5.269   8.114 -3.0635  0.1469 -0.4735
  167SOPE  C31518873   4.223   5.322   8.316 -0.1265 -0.0509 -0.7062
  167SOPE  H15X18874   4.126   5.268   8.312  0.2098 -0.8303  1.1236
  167SOPE  H15Y18875   4.200   5.410   8.381 -0.1684  0.6373 -1.6459
  167SOPE  C31618876   4.310   5.225   8.386  0.2354 -0.3201 -0.5292
  167SOPE  H16X18877   4.406   5.273   8.414  0.6717 -3.2677  3.4724
  167SOPE  H16Y18878   4.341   5.141   8.319 -0.8683 -1.2160  0.0539
  167SOPE  C31718879   4.251   5.155   8.515 -0.2355  0.2191  0.2848
  167SOPE  H17X18880   4.146   5.121   8.503 -0.9968  2.5116  0.1390
  167SOPE  H17Y18881   4.256   5.229   8.598  0.0105  0.6295 -0.0918
  167SOPE  C31818882   4.324   5.032   8.564 -0.4893  0.1358  0.5559
  167SOPE  H18X18883   4.277   4.945   8.512  0.4904  1.7808 -3.2273
  167SOPE  H18Y18884   4.312   5.007   8.672 -1.0844 -0.6099  0.3277
  167SOPE  H18Z18885   4.432   5.036   8.540 -0.8685  0.9674 -1.0983
  168SOPE     N18886   3.533   1.620   6.346  0.0145 -0.3084 -0.0550
  168SOPE   HN118887   3.612   1.552   6.352  0.0538 -0.2245  0.3250
  168SOPE   HN218888   3.556   1.702   6.286  0.8534 -0.9290 -0.5937
  168SOPE   HN318889   3.504   1.656   6.439 -0.0650 -1.0237  0.2000
  168SOPE   C1218890   3.428   1.551   6.264  0.3674  0.5073 -0.1747
  168SOPE  H12A18891   3.395   1.463   6.322  2.0360  0.3315  0.5412
  168SOPE  H12B18892   3.474   1.513   6.169 -3.2583 -3.1377 -0.6190
  168SOPE   C1118893   3.310   1.642   6.236  0.1964  0.1574 -0.1737
  168SOPE  H11A18894   3.245   1.577   6.174 -0.0978  0.8898 -0.6402
  168SOPE  H11B18895   3.353   1.726   6.177  2.5711 -0.0268  1.2044
  168SOPE     P18896   3.160   1.791   6.383  0.5634 -0.2764  0.3330
  168SOPE   O1318897   3.107   1.834   6.253 -0.1021 -0.2487  0.1467
  168SOPE   O1418898   3.213   1.901   6.467  0.0618  0.1259  0.2101
  168SOPE   O1218899   3.258   1.676   6.365 -0.1049  0.0966 -0.1902
  168SOPE   O1118900   3.037   1.732   6.450  0.1382 -0.1161  0.6535
  168SOPE    C118901   3.037   1.690   6.588 -0.0280 -0.1880  0.7399
  168SOPE    HA18902   3.127   1.634   6.621 -0.1924 -0.3716  0.8793
  168SOPE    HB18903   2.954   1.617   6.599 -0.0775 -0.3252 -0.4579
  168SOPE    C218904   3.015   1.803   6.686  0.0636 -0.2082  0.1597
  168SOPE    HS18905   3.107   1.864   6.703 -0.3778 -0.0507  2.0897
  168SOPE   O2118906   2.979   1.747   6.812  0.0797  0.2613  0.7862
  168SOPE   C2118907   3.018   1.810   6.920 -0.0693  0.3156  0.2859
  168SOPE   O2218908   3.093   1.905   6.927 -0.2993 -0.2365 -0.2051
  168SOPE   C2218909   2.951   1.743   7.038  0.1383 -0.1509 -0.3852
  168SOPE   H2R18910   2.958   1.634   7.021  2.1676 -0.0667 -0.1647
  168SOPE   H2S18911   2.845   1.778   7.035 -0.2327 -1.1493  0.7618
  168SOPE    C318912   2.904   1.903   6.643  1.3117 -0.1990 -0.4332
  168SOPE    HX18913   2.809   1.846   6.645  0.3139  1.4627  0.4241
  168SOPE    HY18914   2.918   1.940   6.539 -0.2188  1.5283 -0.0440
  168SOPE   O3118915   2.884   2.010   6.734  0.1760  0.0005  0.5977
  168SOPE   C3118916   2.925   2.129   6.704  0.0300 -0.6315 -0.2502
  168SOPE   O3218917   2.959   2.160   6.591 -0.0238  0.0049 -0.2287
  168SOPE   C3218918   2.916   2.222   6.820 -0.2690  0.1477  0.0823
  168SOPE   H2X18919   3.019   2.238   6.857  0.3377 -1.8573 -0.6890
  168SOPE   H2Y18920   2.856   2.172   6.900  0.1658  0.5450  0.6656
  168SOPE   C2318921   3.010   1.787   7.172  0.0070  0.1414 -0.3053
  168SOPE   H3R18922   3.112   1.830   7.170  0.8131 -1.4403  3.2818
  168SOPE   H3S18923   3.008   1.697   7.237  0.7584  1.6584  1.8671
  168SOPE   C2418924   2.919   1.891   7.250  0.5371 -0.2057 -0.4505
  168SOPE   H4R18925   2.981   1.913   7.339  0.6493  3.9185 -1.4455
  168SOPE   H4S18926   2.909   1.986   7.193  0.1157  0.1714  0.2402
  168SOPE   C2518927   2.776   1.840   7.290  1.1093 -0.2806  0.0665
  168SOPE   H5R18928   2.715   1.920   7.337  0.7718  0.0742 -0.9554
  168SOPE   H5S18929   2.721   1.820   7.195  0.6886 -0.1493  0.2805
  168SOPE   C2618930   2.768   1.713   7.365  0.2968  0.1214 -1.1429
  168SOPE   H6R18931   2.659   1.692   7.377  0.0947  1.9785  0.4088
  168SOPE   H6S18932   2.814   1.625   7.314 -1.5653 -2.0241  0.7396
  168SOPE   C2718933   2.833   1.714   7.506  0.1491 -0.2162  0.2922
  168SOPE   H7R18934   2.824   1.618   7.562  0.8371 -0.0262  0.7283
  168SOPE   H7S18935   2.942   1.733   7.503  0.4813 -1.9018  0.9967
  168SOPE   C2818936   2.779   1.814   7.606 -1.3662  0.4899 -0.3377
  168SOPE   H8R18937   2.834   1.803   7.702 -1.2510 -0.1253 -0.4775
  168SOPE   H8S18938   2.824   1.912   7.576  0.8362 -0.1117  0.9143
  168SOPE   C2918939   2.635   1.823   7.640 -0.8509 -0.3018 -0.1438
  168SOPE   H9118940   2.569   1.871   7.566 -2.0674 -0.8770  0.5698
  168SOPE  C21018941   2.577   1.761   7.744  1.0279 -0.3779 -0.0581
  168SOPE  H10118942   2.468   1.763   7.754  1.0937  2.3198  0.5033
  168SOPE  C21118943   2.648   1.667   7.842  0.3024 -0.2232 -0.1546
  168SOPE  H11R18944   2.753   1.644   7.813 -0.0874 -0.3134 -1.5175
  168SOPE  H11S18945   2.586   1.575   7.832 -1.4722  1.0818 -1.3753
  168SOPE  C21218946   2.648   1.708   7.983  0.5933  0.4074  0.1235
  168SOPE  H12R18947   2.552   1.688   8.036 -0.8263  1.5988 -1.9246
  168SOPE  H12S18948   2.667   1.815   8.001 -1.7624  0.8434  0.2814
  168SOPE  C21318949   2.751   1.624   8.058  0.4046  0.6584  0.2368
  168SOPE  H13R18950   2.845   1.644   8.002  0.5010  0.5099  0.3464
  168SOPE  H13S18951   2.744   1.514   8.046 -1.5091  0.6774  1.1078
  168SOPE  C21418952   2.769   1.650   8.205  0.2308  0.8698  0.1777
  168SOPE  H14R18953   2.718   1.742   8.240 -0.7370  0.4061  0.0108
  168SOPE  H14S18954   2.878   1.663   8.221  0.5596  0.3550 -1.5166
  168SOPE  C21518955   2.722   1.534   8.289  0.0095 -0.3070  0.3318
  168SOPE  H15R18956   2.778   1.449   8.242  1.1836 -0.6080  2.2178
  168SOPE  H15S18957   2.612   1.525   8.283 -0.1309  1.5068 -0.0039
  168SOPE  C21618958   2.765   1.539   8.437 -0.0971 -0.0786  0.0328
  168SOPE  H16R18959   2.697   1.477   8.499  1.3379  0.1204  1.8141
  168SOPE  H16S18960   2.745   1.644   8.469  1.5148  0.0865  0.5516
  168SOPE  C21718961   2.904   1.490   8.481  0.2142  0.6551  0.0207
  168SOPE  H17R18962   2.984   1.562   8.452  1.0335 -0.6586 -1.0379
  168SOPE  H17S18963   2.925   1.405   8.412  2.0994  0.8783  0.2788
  168SOPE  C21818964   2.907   1.450   8.629 -0.0888  0.1911 -0.1804
  168SOPE  H18R18965   2.871   1.540   8.683 -2.4316  0.5459 -2.2456
  168SOPE  H18S18966   3.011   1.432   8.663 -0.2173 -0.6990 -0.2429
  168SOPE  H18T18967   2.841   1.363   8.650 -1.3813  1.1022 -0.4425
  168SOPE   C3318968   2.854   2.367   6.784 -0.1174  0.0711  0.4736
  168SOPE   H3X18969   2.761   2.368   6.724 -0.2238  1.3748  0.6464
  168SOPE   H3Y18970   2.924   2.441   6.738 -1.6895  0.7044 -0.9371
  168SOPE   C3418971   2.812   2.442   6.910  0.0473 -0.3190  0.0458
  168SOPE   H4X18972   2.759   2.527   6.862  0.7213  1.3007  2.0624
  168SOPE   H4Y18973   2.898   2.480   6.970 -1.0910  2.0643  0.2497
  168SOPE   C3518974   2.717   2.368   7.007 -1.7368 -0.1183  0.3226
  168SOPE   H5X18975   2.764   2.290   7.071  1.0425 -0.3439 -1.8819
  168SOPE   H5Y18976   2.642   2.316   6.944 -0.2555 -0.6598 -1.0310
  168SOPE   C3618977   2.651   2.477   7.100  0.8781  0.1494  0.3435
  168SOPE   H6X18978   2.610   2.553   7.031 -1.8213 -0.5354  1.1280
  168SOPE   H6Y18979   2.722   2.531   7.167  0.3606 -0.3763  1.3347
  168SOPE   C3718980   2.539   2.418   7.194  0.6017  0.4214  0.1291
  168SOPE   H7X18981   2.545   2.307   7.191 -0.1058  0.3971 -0.3548
  168SOPE   H7Y18982   2.432   2.438   7.170  0.6405 -2.5300 -2.9589
  168SOPE   C3818983   2.565   2.465   7.342 -0.3983  0.5139 -0.2732
  168SOPE   H8X18984   2.484   2.426   7.408  0.8816 -0.6320  0.6687
  168SOPE   H8Y18985   2.575   2.575   7.337 -0.0600  0.4730 -0.5250
  168SOPE   C3918986   2.691   2.389   7.405 -0.1709 -0.6908  0.0576
  168SOPE   H9X18987   2.698   2.440   7.504 -2.3071  0.6926 -0.4608
  168SOPE   H9Y18988   2.784   2.406   7.348 -0.1391 -0.3607  0.2090
  168SOPE  C31018989   2.687   2.236   7.422 -0.1525 -1.1323  0.7302
  168SOPE  H10X18990   2.759   2.201   7.345 -1.4535  0.2831 -1.1769
  168SOPE  H10Y18991   2.584   2.198   7.405 -0.7651 -0.4372  2.7985
  168SOPE  C31118992   2.747   2.192   7.555  0.5407  0.7259 -0.3798
  168SOPE  H11X18993   2.858   2.204   7.561  0.7550 -1.5913  1.2531
  168SOPE  H11Y18994   2.725   2.083   7.558  1.0359  0.6460  0.6110
  168SOPE  C31218995   2.671   2.238   7.679 -0.3251 -0.1990 -0.5258
  168SOPE  H12X18996   2.684   2.348   7.691  0.1871 -0.3068 -0.0902
  168SOPE  H12Y18997   2.712   2.194   7.773 -2.2871 -0.6115  0.1772
  168SOPE  C31318998   2.523   2.206   7.683  0.1516  0.2563  0.0099
  168SOPE  H13X18999   2.513   2.096   7.666  0.0272  0.2489  0.1234
  168SOPE  H13Y19000   2.467   2.254   7.600 -0.4656 -0.3116  0.0914
  168SOPE  C31419001   2.440   2.240   7.812  0.1161 -1.0284 -0.1598
  168SOPE  H14X19002   2.351   2.176   7.830 -1.7401  1.3109 -0.7551
  168SOPE  H14Y19003   2.416   2.348   7.819 -0.7396 -1.3001  1.4964
  168SOPE  C31519004   2.522   2.194   7.933 -0.0562 -0.4142 -0.5831
  168SOPE  H15X19005   2.605   2.263   7.960 -0.5878  0.2469 -0.6341
  168SOPE  H15Y19006   2.564   2.094   7.911 -0.8613 -1.4017  2.2104
  168SOPE  C31619007   2.450   2.195   8.065  0.4946  0.0340  0.0247
  168SOPE  H16X19008   2.378   2.112   8.082  1.0072 -0.6149 -0.9397
  168SOPE  H16Y19009   2.388   2.286   8.080 -0.1204 -0.8256  3.1148
  168SOPE  C31719010   2.545   2.162   8.187  0.2726 -0.3169  0.5947
  168SOPE  H17X19011   2.625   2.238   8.201 -0.2647  0.4825 -0.5926
  168SOPE  H17Y19012   2.598   2.065   8.172 -1.9006 -1.4607  0.1016
  168SOPE  C31819013   2.482   2.145   8.335 -0.4495 -0.1914  0.2641
  168SOPE  H18X19014   2.401   2.070   8.338 -0.9830  0.4025  1.2751
  168SOPE  H18Y19015   2.444   2.249   8.347  0.2936  0.4515 -2.6688
  168SOPE  H18Z19016   2.552   2.114   8.416 -0.8315 -0.4899  0.4771
  169SOPE     N19017   5.150   4.233   6.409  0.9352  0.4083 -0.1644
  169SOPE   HN119018   5.084   4.300   6.365 -1.5116 -1.7631  0.1290
  169SOPE   HN219019   5.103   4.144   6.432  1.0077  0.8119  1.5627
  169SOPE   HN319020   5.184   4.258   6.504  0.9685 -0.5895  0.0867
  169SOPE   C1219021   5.271   4.191   6.331  0.6519 -0.7451  0.1581
  169SOPE  H12A19022   5.330   4.279   6.299 -1.5885  0.8012  0.1427
  169SOPE  H12B19023   5.225   4.153   6.237  1.3051 -0.6280 -0.2102
  169SOPE   C1119024   5.360   4.083   6.395  0.2454  0.1853 -0.0322
  169SOPE  H11A19025   5.409   4.112   6.490  0.3413 -1.7989  0.5489
  169SOPE  H11B19026   5.431   4.051   6.317  1.2433  1.2811  0.4055
  169SOPE     P19027   5.321   3.824   6.445 -0.1167 -0.1188 -0.1604
  169SOPE   O1319028   5.389   3.784   6.320  0.0644  0.1935 -0.6151
  169SOPE   O1419029   5.201   3.741   6.480  0.1411 -0.1744  0.0410
  169SOPE   O1219030   5.282   3.971   6.435 -0.4881 -0.3878 -0.8388
  169SOPE   O1119031   5.431   3.829   6.557  0.4023 -0.1051  0.5910
  169SOPE    C119032   5.448   3.732   6.660  0.4253  1.1046 -0.3311
  169SOPE    HA19033   5.549   3.688   6.664 -0.5817 -1.6389 -3.0371
  169SOPE    HB19034   5.370   3.653   6.658  1.1005  0.4196  0.4838
  169SOPE    C219035   5.417   3.805   6.796 -0.6804 -0.7970 -0.0122
  169SOPE    HS19036   5.512   3.852   6.829  0.2559 -2.6308 -0.0825
  169SOPE   O2119037   5.388   3.700   6.888 -0.2696 -0.0381  0.0115
  169SOPE   C2119038   5.484   3.620   6.921 -0.0788  0.4137 -0.3433
  169SOPE   O2219039   5.596   3.632   6.882 -0.0985 -0.0456  0.2714
  169SOPE   C2219040   5.436   3.520   7.019  0.1740  0.3166  0.5656
  169SOPE   H2R19041   5.486   3.425   6.992 -2.5227 -1.4521  1.6370
  169SOPE   H2S19042   5.327   3.498   7.014  0.4886 -1.9723  2.8183
  169SOPE    C319043   5.304   3.908   6.795 -0.6482  0.1056 -0.0115
  169SOPE    HX19044   5.213   3.857   6.756 -0.3963 -0.3308 -0.0375
  169SOPE    HY19045   5.324   3.990   6.723  0.6646 -0.0797  0.1419
  169SOPE   O3119046   5.283   3.955   6.930  0.3082 -0.3911 -0.3470
  169SOPE   C3119047   5.328   4.077   6.961 -0.3459 -0.6994  0.1472
  169SOPE   O3219048   5.383   4.154   6.883 -0.5770 -0.2556  0.0238
  169SOPE   C3219049   5.301   4.102   7.111  0.2221  0.1473  0.1650
  169SOPE   H2X19050   5.337   4.018   7.174 -0.8597 -0.7878 -0.4323
  169SOPE   H2Y19051   5.193   4.105   7.135  0.2504  1.0352  0.1951
  169SOPE   C2319052   5.464   3.579   7.158  0.4029 -0.0519  0.2569
  169SOPE   H3R19053   5.408   3.674   7.174  2.1257  1.0132  0.0184
  169SOPE   H3S19054   5.573   3.596   7.161  0.4268 -0.3456  1.1825
  169SOPE   C2419055   5.422   3.479   7.264  0.1439  0.8105 -0.4365
  169SOPE   H4R19056   5.311   3.479   7.269  0.1599 -0.0898  0.0572
  169SOPE   H4S19057   5.457   3.378   7.232 -0.5439  0.0198  1.2323
  169SOPE   C2519058   5.471   3.509   7.407  0.1845 -0.1642 -0.0323
  169SOPE   H5R19059   5.582   3.512   7.414  0.1973 -0.8246  0.1533
  169SOPE   H5S19060   5.429   3.608   7.433  1.6460  0.4669 -0.0318
  169SOPE   C2619061   5.431   3.402   7.505 -0.0532  0.4756 -0.0260
  169SOPE   H6R19062   5.323   3.381   7.490  0.0473 -0.5963  0.7113
  169SOPE   H6S19063   5.479   3.306   7.479  0.6939  0.8507 -0.0594
  169SOPE   C2719064   5.484   3.441   7.648 -0.0075  0.1309  0.2710
  169SOPE   H7R19065   5.594   3.450   7.639 -0.3899  2.6891 -2.6904
  169SOPE   H7S19066   5.451   3.541   7.684  1.7059  0.2065  1.7113
  169SOPE   C2819067   5.459   3.336   7.762 -0.1529 -0.4227 -0.0351
  169SOPE   H8R19068   5.349   3.338   7.777 -0.1633  1.2451 -0.2107
  169SOPE   H8S19069   5.480   3.239   7.712  0.7221  0.2297 -0.9574
  169SOPE   C2919070   5.528   3.353   7.892 -0.3103  0.9206 -0.4856
  169SOPE   H9119071   5.636   3.362   7.876 -0.2685 -1.6851 -1.8516
  169SOPE  C21019072   5.480   3.356   8.014  0.7167 -0.4994 -0.5143
  169SOPE  H10119073   5.545   3.366   8.102 -0.9479  0.2735  0.6706
  169SOPE  C21119074   5.333   3.340   8.053  0.1275  0.3108 -0.0733
  169SOPE  H11R19075   5.273   3.274   7.986 -0.7991  1.1821 -0.1082
  169SOPE  H11S19076   5.270   3.430   8.072  1.2117  0.1851  4.9401
  169SOPE  C21219077   5.328   3.262   8.188  0.5182 -0.5341 -0.0238
  169SOPE  H12R19078   5.218   3.254   8.203  0.6462  0.2611  1.3330
  169SOPE  H12S19079   5.362   3.311   8.281 -0.2919  0.4925 -0.2586
  169SOPE  C21319080   5.384   3.122   8.178  0.5229  0.6683 -0.8718
  169SOPE  H13R19081   5.490   3.123   8.145  0.9363  1.1209  0.4537
  169SOPE  H13S19082   5.346   3.064   8.091 -2.3498  0.0544  0.7084
  169SOPE  C21419083   5.355   3.021   8.295  0.5345 -0.2131  0.2551
  169SOPE  H14R19084   5.244   3.018   8.293  0.5175  0.3272 -3.1894
  169SOPE  H14S19085   5.390   3.069   8.389 -0.6593  1.4658 -0.1179
  169SOPE  C21519086   5.416   2.884   8.273 -0.2550 -0.1876  0.4034
  169SOPE  H15R19087   5.524   2.900   8.258 -0.1926  0.2337  1.2479
  169SOPE  H15S19088   5.377   2.844   8.177  0.9796 -0.5526  0.0477
  169SOPE  C21619089   5.389   2.791   8.396  0.2520 -0.1137  0.5423
  169SOPE  H16R19090   5.342   2.697   8.359 -0.4969 -0.2775  1.8654
  169SOPE  H16S19091   5.319   2.836   8.470 -2.0604  0.1633 -1.7112
  169SOPE  C21719092   5.521   2.764   8.466  0.3259 -1.3977  0.4839
  169SOPE  H17R19093   5.529   2.842   8.545  0.1691 -1.3517  0.4548
  169SOPE  H17S19094   5.603   2.772   8.391 -0.6283 -3.2124 -0.7758
  169SOPE  C21819095   5.534   2.628   8.532  0.0232  0.2010  0.0224
  169SOPE  H18R19096   5.470   2.602   8.618  0.2154 -3.0520 -0.7286
  169SOPE  H18S19097   5.640   2.617   8.564  0.0087 -0.1698 -0.0593
  169SOPE  H18T19098   5.519   2.545   8.459  1.0735 -0.4016  0.4777
  169SOPE   C3319099   5.349   4.233   7.164  0.0570  0.3177  0.5381
  169SOPE   H3X19100   5.282   4.314   7.127 -3.1361 -1.9822  1.0764
  169SOPE   H3Y19101   5.451   4.242   7.123 -1.2839  2.3343 -2.5472
  169SOPE   C3419102   5.348   4.246   7.314 -0.1723  0.3220  0.3140
  169SOPE   H4X19103   5.426   4.320   7.343 -0.0885  0.0941  0.6701
  169SOPE   H4Y19104   5.381   4.158   7.373 -1.6787 -0.9116 -0.6499
  169SOPE   C3519105   5.211   4.286   7.379  0.2506  0.1162 -0.2889
  169SOPE   H5X19106   5.127   4.218   7.354 -1.4347  2.6028 -1.6877
  169SOPE   H5Y19107   5.194   4.384   7.328  1.0272  1.4127  1.8784
  169SOPE   C3619108   5.215   4.285   7.532 -0.2133 -0.3203 -0.3878
  169SOPE   H6X19109   5.134   4.351   7.569 -2.4007 -2.1196 -1.8379
  169SOPE   H6Y19110   5.317   4.316   7.565 -0.3781  1.4424 -1.4803
  169SOPE   C3719111   5.187   4.138   7.585 -0.0299 -0.2452  0.0863
  169SOPE   H7X19112   5.247   4.069   7.522  0.2438  0.4520 -0.4221
  169SOPE   H7Y19113   5.078   4.126   7.571 -0.5799  1.8157  2.3058
  169SOPE   C3819114   5.209   4.136   7.734  0.1838  0.4974 -0.4716
  169SOPE   H8X19115   5.196   4.031   7.769 -0.1537  1.2173  1.6037
  169SOPE   H8Y19116   5.313   4.166   7.759  0.5554 -1.9879  1.2346
  169SOPE   C3919117   5.117   4.231   7.811  0.8248 -0.8080 -0.3798
  169SOPE   H9X19118   5.012   4.205   7.786  1.4835  0.7471 -5.3424
  169SOPE   H9Y19119   5.120   4.335   7.772  0.3835  0.0256  1.7649
  169SOPE  C31019120   5.152   4.226   7.961 -0.0335 -0.4333 -0.1687
  169SOPE  H10X19121   5.243   4.291   7.963 -0.9343  0.8770 -0.6091
  169SOPE  H10Y19122   5.173   4.120   7.984  0.7539 -0.6788 -1.9339
  169SOPE  C31119123   5.052   4.289   8.063 -0.7430 -0.7108 -1.2651
  169SOPE  H11X19124   4.956   4.233   8.056  0.2326 -3.0329  2.4672
  169SOPE  H11Y19125   5.028   4.395   8.039 -1.6423 -0.3788  0.9774
  169SOPE  C31219126   5.101   4.298   8.205 -0.2830  0.5917  0.0469
  169SOPE  H12X19127   5.201   4.346   8.209 -1.0895  2.1806  1.5696
  169SOPE  H12Y19128   5.126   4.196   8.242 -0.7379 -0.3492 -2.1551
  169SOPE  C31319129   5.007   4.357   8.312 -0.0507 -0.0708 -0.2987
  169SOPE  H13X19130   4.918   4.295   8.336  1.2102 -1.3982  0.9764
  169SOPE  H13Y19131   4.986   4.455   8.262 -0.7663  0.0543  0.2327
  169SOPE  C31419132   5.072   4.392   8.445 -0.2957  0.3954 -0.4861
  169SOPE  H14X19133   5.005   4.455   8.507  1.8774  1.0381  1.2686
  169SOPE  H14Y19134   5.159   4.457   8.423  0.6687 -0.8038 -0.3244
  169SOPE  C31519135   5.130   4.273   8.514  0.3297 -0.3335  0.5061
  169SOPE  H15X19136   5.190   4.313   8.598 -0.6750 -1.5367  1.8286
  169SOPE  H15Y19137   5.203   4.237   8.438  0.4955  1.0420 -0.0033
  169SOPE  C31619138   5.022   4.176   8.569  0.4262 -0.4176  0.3681
  169SOPE  H16X19139   5.102   4.118   8.620  2.2283  0.0429 -1.8698
  169SOPE  H16Y19140   4.973   4.117   8.488 -1.3937  1.4952  0.0290
  169SOPE  C31719141   4.918   4.230   8.661 -0.2503 -0.0438 -0.2840
  169SOPE  H17X19142   4.828   4.256   8.602 -0.3573 -0.5757 -0.3553
  169SOPE  H17Y19143   4.969   4.322   8.699 -1.6879  0.9176 -0.6321
  169SOPE  C31819144   4.878   4.143   8.777  0.2270 -0.3180  0.3838
  169SOPE  H18X19145   4.857   4.046   8.726  0.3746  0.8849 -2.0536
  169SOPE  H18Y19146   4.783   4.179   8.821 -0.2673 -0.1610 -0.7704
  169SOPE  H18Z19147   4.956   4.137   8.856  1.3642 -0.3260 -0.7229
  170SOPE     N19148   5.720   2.026   6.445 -0.3483  0.4103  0.1946
  170SOPE   HN119149   5.618   2.010   6.439 -0.4625  0.9882  0.6355
  170SOPE   HN219150   5.767   1.967   6.373 -0.5250 -1.3639  1.4777
  170SOPE   HN319151   5.752   1.983   6.534  0.4229 -0.1644 -0.3475
  170SOPE   C1219152   5.735   2.175   6.455 -0.0411  0.5756 -0.6050
  170SOPE  H12A19153   5.637   2.213   6.493 -1.4396 -3.6816  0.3109
  170SOPE  H12B19154   5.772   2.207   6.355  2.1915 -0.7751 -0.2392
  170SOPE   C1119155   5.841   2.213   6.561  0.5230 -0.0320 -0.9787
  170SOPE  H11A19156   5.798   2.195   6.662 -2.0948 -3.0570 -2.5647
  170SOPE  H11B19157   5.866   2.321   6.554  1.1260 -0.0152  0.9967
  170SOPE     P19158   6.091   2.174   6.462  0.0121  0.4141  0.1094
  170SOPE   O1319159   6.058   2.241   6.333 -0.1286 -0.2214  0.0520
  170SOPE   O1419160   6.184   2.060   6.458 -0.4236  0.5856  0.3152
  170SOPE   O1219161   5.959   2.136   6.545 -0.4272  0.3995 -0.8005
  170SOPE   O1119162   6.152   2.276   6.559  0.6788 -0.5691  0.4262
  170SOPE    C119163   6.172   2.238   6.698  0.6452  0.2072  0.0946
  170SOPE    HA19164   6.265   2.177   6.703  0.6017  0.2508  1.6970
  170SOPE    HB19165   6.084   2.194   6.750  0.1547  0.1540 -0.7844
  170SOPE    C219166   6.206   2.360   6.782 -0.7507 -0.2905 -0.1173
  170SOPE    HS19167   6.293   2.415   6.740 -0.6437  0.1974  0.7292
  170SOPE   O2119168   6.238   2.314   6.920  0.4413 -0.1529 -0.3562
  170SOPE   C2119169   6.313   2.395   6.990 -0.3604  0.0070  0.3910
  170SOPE   O2219170   6.337   2.513   6.953 -0.0250 -0.4153 -0.7732
  170SOPE   C2219171   6.334   2.339   7.133  0.7355 -0.0645  0.3432
  170SOPE   H2R19172   6.234   2.304   7.167  0.0480  0.6164 -0.9401
  170SOPE   H2S19173   6.358   2.424   7.201  1.4170  0.2372 -0.2732
  170SOPE    C319174   6.084   2.459   6.783 -0.0626 -0.5656  0.5692
  170SOPE    HX19175   6.068   2.477   6.675  0.0642 -1.5048  0.3887
  170SOPE    HY19176   6.103   2.560   6.825  1.5474 -0.6646  0.1108
  170SOPE   O3119177   5.961   2.399   6.827  0.1435 -0.1357 -0.2328
  170SOPE   C3119178   5.853   2.478   6.827  0.5866 -0.4616 -0.1087
  170SOPE   O3219179   5.848   2.594   6.795 -0.2309  0.2073  0.2154
  170SOPE   C3219180   5.740   2.410   6.908 -0.3782 -0.4778  0.3539
  170SOPE   H2X19181   5.783   2.405   7.010  0.4230 -0.0140  0.0440
  170SOPE   H2Y19182   5.735   2.307   6.865 -2.4305  0.0781 -0.8391
  170SOPE   C2319183   6.444   2.232   7.142 -0.6474 -0.4605 -0.0133
  170SOPE   H3R19184   6.486   2.219   7.244  2.3951  1.7255 -0.9146
  170SOPE   H3S19185   6.532   2.280   7.093 -0.7292 -1.5889 -1.3080
  170SOPE   C2419186   6.400   2.099   7.089  0.1554  1.0300  0.6933
  170SOPE   H4R19187   6.306   2.061   7.134  1.2437  0.3883  2.4844
  170SOPE   H4S19188   6.387   2.096   6.979  1.5680 -1.5324  0.5373
  170SOPE   C2519189   6.510   1.978   7.105  0.7093  0.3911 -0.1144
  170SOPE   H5R19190   6.594   1.995   7.035  1.6954 -3.0432  0.1521
  170SOPE   H5S19191   6.539   1.988   7.211 -0.8389  0.1345  0.3414
  170SOPE   C2619192   6.448   1.843   7.076 -0.2498  0.6006  0.4091
  170SOPE   H6R19193   6.351   1.824   7.128  0.4672  0.6767  1.7950
  170SOPE   H6S19194   6.412   1.856   6.972  0.5999  0.6508  0.1229
  170SOPE   C2719195   6.541   1.725   7.080  0.0398 -0.1349 -0.4427
  170SOPE   H7R19196   6.622   1.747   7.006 -0.5529  0.3156 -0.9708
  170SOPE   H7S19197   6.585   1.723   7.182 -2.7519 -2.3417  0.7842
  170SOPE   C2819198   6.482   1.587   7.035  0.4645 -0.3806  0.4104
  170SOPE   H8R19199   6.455   1.598   6.928 -1.5280  1.2965  1.0651
  170SOPE   H8S19200   6.559   1.507   7.044  1.6996  0.6368 -0.9866
  170SOPE   C2919201   6.358   1.534   7.108 -0.0986  0.1958 -0.4317
  170SOPE   H9119202   6.268   1.578   7.062  0.8134  2.7124  0.1108
  170SOPE  C21019203   6.349   1.460   7.216 -0.3545 -0.1695  0.1398
  170SOPE  H10119204   6.251   1.431   7.258 -1.4722  1.5776 -1.2107
  170SOPE  C21119205   6.477   1.422   7.297  0.2028 -0.3597  0.4082
  170SOPE  H11R19206   6.562   1.492   7.285 -0.3218  0.2909  0.4779
  170SOPE  H11S19207   6.513   1.325   7.257  2.9526  1.6152 -2.0643
  170SOPE  C21219208   6.460   1.407   7.451 -0.1996 -0.3360 -0.6400
  170SOPE  H12R19209   6.546   1.353   7.497 -0.0326  0.0225 -0.5267
  170SOPE  H12S19210   6.369   1.347   7.468 -0.6696  0.9664  1.5685
  170SOPE  C21319211   6.424   1.538   7.528  0.6628 -0.7813 -0.5318
  170SOPE  H13R19212   6.331   1.578   7.483  0.5118 -0.5887 -0.0524
  170SOPE  H13S19213   6.494   1.624   7.516 -0.5803  0.0781 -1.7980
  170SOPE  C21419214   6.391   1.524   7.681  1.0706  0.3108 -0.5315
  170SOPE  H14R19215   6.482   1.506   7.742 -0.7525 -0.0562  2.1897
  170SOPE  H14S19216   6.328   1.434   7.700  0.2643  1.5364  3.0846
  170SOPE  C21519217   6.312   1.647   7.731 -0.6440 -0.9365 -0.7307
  170SOPE  H15R19218   6.209   1.649   7.689 -0.9797  0.3072  0.1290
  170SOPE  H15S19219   6.366   1.740   7.703 -0.6158 -1.0596 -1.0811
  170SOPE  C21619220   6.300   1.654   7.881 -0.4173  0.7889 -0.3766
  170SOPE  H16R19221   6.295   1.553   7.926 -0.3930  1.4934  1.2625
  170SOPE  H16S19222   6.211   1.711   7.916 -0.2396  0.9832 -0.2389
  170SOPE  C21719223   6.421   1.722   7.939  0.0169  1.0797  0.2798
  170SOPE  H17R19224   6.440   1.823   7.896  0.0198  1.3764  0.9682
  170SOPE  H17S19225   6.510   1.663   7.906 -0.7474 -1.1238  2.0456
  170SOPE  C21819226   6.415   1.739   8.094  0.1389  0.4419 -0.1212
  170SOPE  H18R19227   6.335   1.813   8.118  1.1141  1.5778 -0.3196
  170SOPE  H18S19228   6.508   1.785   8.133  0.9963 -0.5925 -0.9268
  170SOPE  H18T19229   6.390   1.645   8.149  0.9649  0.2332 -0.0930
  170SOPE   C3319230   5.609   2.490   6.922 -0.5286 -0.1026  0.4993
  170SOPE   H3X19231   5.571   2.519   6.821  0.7483 -0.5925 -0.1332
  170SOPE   H3Y19232   5.638   2.592   6.954  4.2118 -0.3109 -2.6022
  170SOPE   C3419233   5.509   2.409   7.004 -0.3374 -0.4437 -0.0752
  170SOPE   H4X19234   5.507   2.301   6.978  0.7446 -0.8110  1.2713
  170SOPE   H4Y19235   5.412   2.462   6.997 -0.9395 -1.3016  1.5253
  170SOPE   C3519236   5.535   2.408   7.155  0.5270  0.3840  0.7017
  170SOPE   H5X19237   5.639   2.370   7.158  0.5891  0.5697  0.8972
  170SOPE   H5Y19238   5.469   2.327   7.193 -0.7186  0.6531 -0.8243
  170SOPE   C3619239   5.508   2.547   7.218  0.0990 -0.0022 -0.7133
  170SOPE   H6X19240   5.398   2.543   7.237  0.2779 -1.5773  0.1212
  170SOPE   H6Y19241   5.540   2.622   7.142 -1.3523 -0.0548 -1.4014
  170SOPE   C3719242   5.582   2.575   7.346 -0.1410  0.3340 -0.1027
  170SOPE   H7X19243   5.519   2.649   7.400 -1.2106  0.2882 -1.2667
  170SOPE   H7Y19244   5.683   2.618   7.325  0.5758 -1.0853  0.3901
  170SOPE   C3819245   5.589   2.449   7.437  0.0707  0.2633  0.8046
  170SOPE   H8X19246   5.643   2.360   7.396 -2.2763 -0.8865  0.1072
  170SOPE   H8Y19247   5.483   2.420   7.452 -0.1122  1.7741  2.7382
  170SOPE   C3919248   5.638   2.492   7.574  0.3729 -0.5103  0.0193
  170SOPE   H9X19249   5.578   2.575   7.618  1.1315  0.3974 -0.6501
  170SOPE   H9Y19250   5.743   2.528   7.565  0.3809 -0.5370  0.0074
  170SOPE  C31019251   5.641   2.377   7.676  0.3898 -0.0737 -0.2806
  170SOPE  H10X19252   5.675   2.284   7.626 -1.3037 -0.5122 -0.6670
  170SOPE  H10Y19253   5.536   2.353   7.704  0.5063 -0.5138 -0.2242
  170SOPE  C31119254   5.732   2.400   7.799  0.4963 -0.2213  0.7221
  170SOPE  H11X19255   5.677   2.467   7.869 -0.5416  0.3993 -0.6697
  170SOPE  H11Y19256   5.824   2.456   7.770 -0.1772 -0.4110 -1.9003
  170SOPE  C31219257   5.765   2.276   7.884 -0.0070 -0.0102 -0.1804
  170SOPE  H12X19258   5.813   2.196   7.823  1.2975  1.7363 -1.4944
  170SOPE  H12Y19259   5.676   2.240   7.940  1.5623 -0.6391  2.0065
  170SOPE  C31319260   5.867   2.291   7.987 -0.8937  0.5800 -0.0524
  170SOPE  H13X19261   5.968   2.333   7.967 -0.2150 -0.7895  0.4897
  170SOPE  H13Y19262   5.891   2.190   8.025 -0.4872  0.9548  0.6859
  170SOPE  C31419263   5.823   2.363   8.111 -0.0331  0.1622 -0.4298
  170SOPE  H14X19264   5.729   2.319   8.153 -0.6092 -1.2015 -3.0609
  170SOPE  H14Y19265   5.815   2.470   8.082 -0.5631  0.0981 -0.5321
  170SOPE  C31519266   5.929   2.364   8.224 -0.5937 -0.1323  0.9423
  170SOPE  H15X19267   5.998   2.449   8.205  0.9797 -1.5773  0.0725
  170SOPE  H15Y19268   5.976   2.264   8.237  0.1213 -0.1225 -1.3920
  170SOPE  C31619269   5.852   2.385   8.356  0.3944 -0.0792 -0.0230
  170SOPE  H16X19270   5.775   2.307   8.376 -1.7932  1.6331 -1.4711
  170SOPE  H16Y19271   5.787   2.476   8.353  1.0710  0.4527  0.9508
  170SOPE  C31719272   5.945   2.385   8.476 -0.0974  0.5371  0.4727
  170SOPE  H17X19273   6.028   2.455   8.456  2.4299 -2.4409  0.0461
  170SOPE  H17Y19274   5.971   2.280   8.502 -2.6449 -0.1496  0.3844
  170SOPE  C31819275   5.863   2.439   8.596 -0.7126 -0.1733  0.1179
  170SOPE  H18X19276   5.840   2.544   8.567  0.0669 -0.5233 -1.8444
  170SOPE  H18Y19277   5.929   2.425   8.684 -1.4649 -0.0717  0.7114
  170SOPE  H18Z19278   5.764   2.392   8.617 -0.6652 -0.9333 -1.3590
  171SOPE     N19279   6.185   6.453   6.319 -0.5486  0.0057 -0.0198
  171SOPE   HN119280   6.214   6.357   6.291 -1.9534 -0.9619  1.7067
  171SOPE   HN219281   6.083   6.470   6.311 -1.2993 -3.4689  1.1829
  171SOPE   HN319282   6.237   6.517   6.256 -0.1669 -2.9053 -2.7988
  171SOPE   C1219283   6.212   6.487   6.463  0.3572  0.9152 -0.0487
  171SOPE  H12A19284   6.125   6.451   6.522 -0.5659  1.4257 -1.0696
  171SOPE  H12B19285   6.222   6.597   6.479 -2.9502  1.4403 -1.0911
  171SOPE   C1119286   6.342   6.420   6.517  0.1933 -0.2228  0.5317
  171SOPE  H11A19287   6.336   6.408   6.628 -2.0124  0.7633  0.5460
  171SOPE  H11B19288   6.422   6.494   6.495 -0.8952  1.3593  1.7591
  171SOPE     P19289   6.297   6.153   6.486 -0.6797  0.1823  0.2007
  171SOPE   O1319290   6.361   6.036   6.431 -0.1972 -0.1021  0.2572
  171SOPE   O1419291   6.158   6.175   6.449  0.0861  0.7863  0.8607
  171SOPE   O1219292   6.372   6.291   6.457 -0.2134  0.2790  0.4503
  171SOPE   O1119293   6.305   6.142   6.640 -0.5448 -0.6920 -0.0503
  171SOPE    C119294   6.435   6.144   6.694  0.0368  0.4502  0.5899
  171SOPE    HA19295   6.446   6.248   6.732 -0.1107  1.1326 -1.1671
  171SOPE    HB19296   6.518   6.124   6.623  1.1697 -0.5174  2.1566
  171SOPE    C219297   6.453   6.043   6.809 -0.3810  0.1066 -0.5378
  171SOPE    HS19298   6.404   5.949   6.776  0.8845 -0.4612 -0.8320
  171SOPE   O2119299   6.386   6.109   6.921  0.3510 -0.4679  0.5276
  171SOPE   C2119300   6.330   6.015   7.007  0.3412  0.4853  0.0718
  171SOPE   O2219301   6.285   5.909   6.974  0.3846 -0.0993 -0.9168
  171SOPE   C2219302   6.332   6.068   7.153  0.1803  0.2891 -0.3780
  171SOPE   H2R19303   6.281   6.165   7.136  0.7219  0.5620 -0.4766
  171SOPE   H2S19304   6.437   6.097   7.176 -0.5226  0.2360  3.0490
  171SOPE    C319305   6.597   5.999   6.839 -0.7863  0.1749 -0.0116
  171SOPE    HX19306   6.649   5.969   6.745  0.5766  1.8734  0.1780
  171SOPE    HY19307   6.581   5.916   6.911  1.5551  1.4885  2.1163
  171SOPE   O3119308   6.666   6.113   6.899 -0.2617 -0.0641  0.0497
  171SOPE   C3119309   6.777   6.077   6.975 -0.4581 -0.2424 -0.5504
  171SOPE   O3219310   6.822   5.962   6.977  0.4070  0.0559 -0.3944
  171SOPE   C3219311   6.834   6.184   7.061  0.6152 -0.1813  0.4232
  171SOPE   H2X19312   6.808   6.286   7.025  2.5770  1.1807  2.7310
  171SOPE   H2Y19313   6.945   6.181   7.054  0.5114 -1.3207 -1.1186
  171SOPE   C2319314   6.261   5.975   7.257  0.3114  0.3581  0.3444
  171SOPE   H3R19315   6.296   5.873   7.231 -0.2744  0.3712 -0.5115
  171SOPE   H3S19316   6.153   5.977   7.231  0.6670 -0.0245 -1.1549
  171SOPE   C2419317   6.288   6.012   7.396  0.6309 -0.1459 -1.0093
  171SOPE   H4R19318   6.398   6.011   7.416  0.4749  0.5313 -0.0696
  171SOPE   H4S19319   6.270   6.121   7.408  3.0723  0.0883  1.2349
  171SOPE   C2519320   6.226   5.928   7.505  0.0031 -0.2866  0.0474
  171SOPE   H5R19321   6.121   5.964   7.507 -0.0650 -0.2811 -2.1361
  171SOPE   H5S19322   6.227   5.820   7.483 -0.6529 -0.1700 -0.5799
  171SOPE   C2619323   6.292   5.946   7.644 -0.2922 -0.2224 -0.1516
  171SOPE   H6R19324   6.397   5.913   7.638 -0.2375 -0.2827  0.9567
  171SOPE   H6S19325   6.287   6.057   7.650 -4.0258 -0.3256  0.2973
  171SOPE   C2719326   6.210   5.882   7.761 -0.3630 -0.0605  0.1152
  171SOPE   H7R19327   6.110   5.928   7.748 -1.0984 -1.9227 -0.9816
  171SOPE   H7S19328   6.205   5.772   7.747 -0.3145  0.2211 -2.3483
  171SOPE   C2819329   6.262   5.935   7.887  0.0812 -0.3911 -0.2831
  171SOPE   H8R19330   6.367   5.902   7.902 -0.4459 -2.7241 -1.4653
  171SOPE   H8S19331   6.257   6.046   7.883 -0.4815 -0.4137 -0.2184
  171SOPE   C2919332   6.184   5.865   7.994  0.1900  0.1258 -0.3953
  171SOPE   H9119333   6.224   5.767   8.021 -0.1321  0.0553 -0.1708
  171SOPE  C21019334   6.067   5.906   8.047  0.4151 -0.6938 -0.2719
  171SOPE  H10119335   6.008   5.844   8.116 -1.0843 -0.6957 -1.5294
  171SOPE  C21119336   5.982   6.023   8.004  0.0670 -0.4481 -0.8376
  171SOPE  H11R19337   5.896   5.978   7.950  1.2524 -3.5613 -0.2280
  171SOPE  H11S19338   6.023   6.090   7.926  1.4920 -0.3343 -0.0047
  171SOPE  C21219339   5.936   6.121   8.114 -0.7745  0.5054 -0.2249
  171SOPE  H12R19340   6.018   6.145   8.184  0.3192 -2.0211 -0.5983
  171SOPE  H12S19341   5.853   6.089   8.181  0.3033 -0.4527  0.6616
  171SOPE  C21319342   5.904   6.250   8.047  0.9496  0.1637 -0.4508
  171SOPE  H13R19343   5.816   6.254   7.979  1.1704 -1.6641 -0.8583
  171SOPE  H13S19344   5.991   6.279   7.984  1.9365 -1.5840  0.0622
  171SOPE  C21419345   5.867   6.368   8.149 -0.3973  0.4327 -0.1597
  171SOPE  H14R19346   5.957   6.389   8.211 -0.5995 -0.3339  0.3994
  171SOPE  H14S19347   5.785   6.338   8.218 -0.5024  2.3014  0.5523
  171SOPE  C21519348   5.827   6.494   8.080 -0.3522 -0.4735  0.0509
  171SOPE  H15R19349   5.732   6.486   8.023  0.6481 -2.3448 -1.4256
  171SOPE  H15S19350   5.905   6.527   8.007  1.1491  1.6023  2.5031
  171SOPE  C21619351   5.823   6.617   8.169  0.1662 -0.4594  0.3869
  171SOPE  H16R19352   5.923   6.642   8.211 -0.7492  1.5421  1.4733
  171SOPE  H16S19353   5.756   6.587   8.252 -0.2908 -0.0982  0.1527
  171SOPE  C21719354   5.774   6.746   8.104 -0.6812 -0.7829  0.8725
  171SOPE  H17R19355   5.757   6.829   8.177  2.4078  2.2464 -1.6825
  171SOPE  H17S19356   5.670   6.736   8.067 -0.1150 -0.8101 -0.7239
  171SOPE  C21819357   5.868   6.798   7.989  0.1769  0.6987 -0.0641
  171SOPE  H18R19358   5.813   6.874   7.930  0.5942 -0.4024 -1.9385
  171SOPE  H18S19359   5.887   6.713   7.919 -1.0025 -0.7068  1.2748
  171SOPE  H18T19360   5.964   6.838   8.027  0.2865  0.3056  0.0821
  171SOPE   C3319361   6.797   6.178   7.212  0.0543  0.3987  0.1089
  171SOPE   H3X19362   6.692   6.143   7.215 -0.3535  1.5773 -0.1607
  171SOPE   H3Y19363   6.793   6.280   7.256 -0.2808  0.3730  0.1389
  171SOPE   C3419364   6.882   6.080   7.296  0.4054  0.3139 -0.1392
  171SOPE   H4X19365   6.979   6.133   7.312  0.2678  0.4695  0.1754
  171SOPE   H4Y19366   6.899   5.981   7.250  0.3701 -0.9249  2.4251
  171SOPE   C3519367   6.812   6.036   7.426 -0.2540  0.2939 -0.0094
  171SOPE   H5X19368   6.877   5.967   7.484 -0.0693 -0.0822 -0.6491
  171SOPE   H5Y19369   6.727   5.973   7.392 -0.5810  0.9259 -0.3822
  171SOPE   C3619370   6.772   6.150   7.517 -0.2917  0.4751 -0.0761
  171SOPE   H6X19371   6.675   6.189   7.480 -0.5845 -0.2128 -0.0521
  171SOPE   H6Y19372   6.851   6.228   7.518  1.5039 -1.3047  0.5040
  171SOPE   C3719373   6.750   6.101   7.667 -0.1268  0.5002  0.1564
  171SOPE   H7X19374   6.844   6.055   7.707 -0.8582 -0.8537  0.3471
  171SOPE   H7Y19375   6.679   6.017   7.655  1.0733 -0.4394 -0.5347
  171SOPE   C3819376   6.714   6.220   7.760  0.1217  0.0301 -0.4379
  171SOPE   H8X19377   6.615   6.267   7.748  1.5504  2.6319 -2.4746
  171SOPE   H8Y19378   6.787   6.300   7.739 -1.6407  1.5209 -0.9536
  171SOPE   C3919379   6.739   6.184   7.907 -0.0615  0.1206 -0.1553
  171SOPE   H9X19380   6.750   6.277   7.967  1.9546 -1.2655  1.6918
  171SOPE   H9Y19381   6.834   6.126   7.910 -0.5247 -0.6354  0.0568
  171SOPE  C31019382   6.631   6.100   7.970 -0.3347  0.0358 -1.0252
  171SOPE  H10X19383   6.612   6.011   7.906  1.2803 -1.4636  0.5331
  171SOPE  H10Y19384   6.532   6.152   7.973  0.0986  0.8676 -0.8305
  171SOPE  C31119385   6.673   6.051   8.112 -0.8566 -0.5610 -0.0556
  171SOPE  H11X19386   6.664   6.131   8.189 -0.0965  0.7177 -1.2592
  171SOPE  H11Y19387   6.779   6.024   8.091 -0.8344 -0.2254 -0.3868
  171SOPE  C31219388   6.607   5.923   8.156 -0.1119 -0.1144 -0.7887
  171SOPE  H12X19389   6.592   5.851   8.072 -2.3495 -1.1873  0.4835
  171SOPE  H12Y19390   6.508   5.956   8.195 -0.3634  0.9246 -2.2468
  171SOPE  C31319391   6.689   5.841   8.259  0.1279  0.4736 -0.1356
  171SOPE  H13X19392   6.673   5.890   8.357 -0.0789 -0.6597  0.4046
  171SOPE  H13Y19393   6.796   5.845   8.231  0.0715 -1.7025 -0.7612
  171SOPE  C31419394   6.646   5.697   8.276 -0.1606  0.3183 -0.5956
  171SOPE  H14X19395   6.696   5.649   8.362  1.2015  1.1379 -0.9060
  171SOPE  H14Y19396   6.666   5.635   8.186 -3.4414  0.2468 -1.3697
  171SOPE  C31519397   6.491   5.690   8.281  1.4830 -0.0750  0.0202
  171SOPE  H15X19398   6.437   5.710   8.186  0.7522 -0.9197  0.2533
  171SOPE  H15Y19399   6.459   5.768   8.353  1.6887  1.1591 -1.2030
  171SOPE  C31619400   6.437   5.551   8.333 -0.5598 -0.3201 -0.2009
  171SOPE  H16X19401   6.512   5.496   8.393  0.9294  1.0054 -0.7857
  171SOPE  H16Y19402   6.436   5.482   8.246  3.0692  2.3010 -2.5148
  171SOPE  C31719403   6.307   5.551   8.406  0.2286 -0.4923  0.2974
  171SOPE  H17X19404   6.310   5.609   8.501  3.8134 -0.0728  0.0073
  171SOPE  H17Y19405   6.270   5.449   8.429 -2.6564  0.4437  0.0202
  171SOPE  C31819406   6.191   5.614   8.321  0.3206  0.6368  0.4656
  171SOPE  H18X19407   6.213   5.719   8.290  0.4127 -0.1280 -2.2100
  171SOPE  H18Y19408   6.094   5.606   8.374  0.6181  0.0133  0.9134
  171SOPE  H18Z19409   6.181   5.556   8.227 -1.3107  0.4066  0.7733
  172SOPE     N19410   0.044   0.489   6.500  0.0054  0.0831  0.4464
  172SOPE   HN119411  -0.013   0.409   6.466  1.0535  0.1818 -1.6031
  172SOPE   HN219412  -0.023   0.544   6.556 -0.8225 -0.4394 -0.0303
  172SOPE   HN319413   0.080   0.548   6.422 -0.9279  1.7088  1.2183
  172SOPE   C1219414   0.153   0.436   6.596 -0.6465 -0.5079 -0.5352
  172SOPE  H12A19415   0.204   0.360   6.533 -1.1818 -0.4937 -0.9918
  172SOPE  H12B19416   0.101   0.392   6.683  1.0654 -1.6586 -0.0612
  172SOPE   C1119417   0.251   0.546   6.635 -0.2819 -0.0186  0.8427
  172SOPE  H11A19418   0.339   0.497   6.683  2.5937  2.8836 -1.2512
  172SOPE  H11B19419   0.203   0.609   6.712 -0.6667  0.9154 -0.1421
  172SOPE     P19420   0.230   0.773   6.502  0.0936 -0.1905 -0.0320
  172SOPE   O1319421   0.082   0.777   6.491 -0.0689  0.1618 -0.7208
  172SOPE   O1419422   0.309   0.826   6.390 -0.3433 -0.2806 -0.0091
  172SOPE   O1219423   0.281   0.625   6.521 -0.3500 -0.2102  0.1239
  172SOPE   O1119424   0.280   0.853   6.632  0.9629 -0.2087 -0.5657
  172SOPE    C119425   0.413   0.862   6.685  0.8320 -0.3776  0.4027
  172SOPE    HA19426   0.449   0.964   6.657  0.9859 -0.5919 -0.1929
  172SOPE    HB19427   0.485   0.801   6.626 -0.6320 -1.8117  0.0627
  172SOPE    C219428   0.415   0.853   6.839 -0.3820  0.1995 -0.0352
  172SOPE    HS19429   0.508   0.799   6.866 -0.9198 -0.3462  0.7401
  172SOPE   O2119430   0.300   0.784   6.895 -0.6421 -0.4555 -0.0912
  172SOPE   C2119431   0.189   0.858   6.902 -0.1572  0.4640 -0.4029
  172SOPE   O2219432   0.174   0.973   6.874  0.1295 -0.0332  0.1104
  172SOPE   C2219433   0.078   0.771   6.958  0.1028  0.9433  0.2647
  172SOPE   H2R19434   0.111   0.687   7.023 -1.6336 -0.3230 -0.4487
  172SOPE   H2S19435   0.035   0.716   6.872  1.0913 -0.7657  0.8392
  172SOPE    C319436   0.457   0.992   6.909  0.6263  0.6294  0.0904
  172SOPE    HX19437   0.388   1.077   6.888 -0.5376 -0.5659 -1.0778
  172SOPE    HY19438   0.557   1.016   6.867  1.0525  0.6996  1.1281
  172SOPE   O3119439   0.488   0.963   7.047  0.2522 -0.2913  0.3584
  172SOPE   C3119440   0.405   0.991   7.149 -0.1550  0.8376 -0.3609
  172SOPE   O3219441   0.314   1.062   7.142  0.3297 -0.0332  0.6788
  172SOPE   C3219442   0.471   0.936   7.272  0.4707 -0.0373  0.1407
  172SOPE   H2X19443   0.574   0.977   7.275  0.8826 -1.0676 -0.1342
  172SOPE   H2Y19444   0.487   0.827   7.258  0.6954 -0.1943  1.5472
  172SOPE   C2319445  -0.035   0.848   7.025 -0.0545 -0.4070  0.3263
  172SOPE   H3R19446  -0.113   0.775   7.053  0.4552 -1.8304 -1.8710
  172SOPE   H3S19447  -0.064   0.918   6.944  0.7545  1.2953  1.4713
  172SOPE   C2419448  -0.003   0.920   7.160 -0.2311 -0.2151 -0.5703
  172SOPE   H4R19449   0.060   1.011   7.146 -0.6207  0.1268 -0.1268
  172SOPE   H4S19450  -0.099   0.959   7.199 -0.7066 -1.8193 -0.1205
  172SOPE   C2519451   0.048   0.826   7.267  0.6347 -0.3737 -0.8278
  172SOPE   H5R19452   0.016   0.722   7.248  2.1563 -0.7701 -1.2780
  172SOPE   H5S19453   0.159   0.827   7.257  0.7189 -2.3393 -0.3002
  172SOPE   C2619454   0.004   0.868   7.404 -0.3598  0.5246  0.5889
  172SOPE   H6R19455   0.034   0.971   7.432 -0.7669  1.1427 -1.2152
  172SOPE   H6S19456  -0.107   0.868   7.407 -0.3658  2.8367  0.7587
  172SOPE   C2719457   0.050   0.778   7.516  0.0361  0.3193 -0.3951
  172SOPE   H7R19458   0.005   0.679   7.494  1.5110 -0.4185 -0.1675
  172SOPE   H7S19459   0.160   0.764   7.509  0.3027  0.7516  2.5563
  172SOPE   C2819460   0.026   0.824   7.664 -0.6275  0.0245 -0.3435
  172SOPE   H8R19461   0.067   0.927   7.668 -0.0004 -0.1387 -2.0853
  172SOPE   H8S19462  -0.082   0.823   7.692 -0.5824 -2.2056 -0.1487
  172SOPE   C2919463   0.090   0.733   7.765  0.0918  0.4482  0.4374
  172SOPE   H9119464   0.144   0.647   7.721  4.0367  2.2286  1.5935
  172SOPE  C21019465   0.106   0.764   7.894 -0.1764 -0.3846  1.0777
  172SOPE  H10119466   0.156   0.691   7.959  2.1100  0.7828  0.6529
  172SOPE  C21119467   0.041   0.887   7.957  0.0416 -0.5492  0.4620
  172SOPE  H11R19468  -0.043   0.929   7.899  1.9209  1.6850 -0.7390
  172SOPE  H11S19469   0.124   0.961   7.965  0.6229 -0.9921 -1.4060
  172SOPE  C21219470   0.012   0.841   8.108  0.1176  0.6049  0.3544
  172SOPE  H12R19471  -0.060   0.757   8.113  1.3087 -0.4397  0.1478
  172SOPE  H12S19472  -0.030   0.938   8.144 -1.9751  0.7929 -2.4360
  172SOPE  C21319473   0.129   0.811   8.201  0.1699 -0.1842  0.4550
  172SOPE  H13R19474   0.187   0.906   8.192  0.8598 -0.4373  1.9273
  172SOPE  H13S19475   0.193   0.726   8.170  0.8736  0.6402 -0.3891
  172SOPE  C21419476   0.096   0.796   8.347 -0.0820  0.0241  0.3511
  172SOPE  H14R19477   0.069   0.689   8.364 -1.1652  0.7203  3.4031
  172SOPE  H14S19478   0.009   0.860   8.374  1.0779  1.6838  0.1923
  172SOPE  C21519479   0.218   0.836   8.437  0.2876 -0.5319  0.2163
  172SOPE  H15R19480   0.263   0.934   8.408 -0.8054 -0.3117 -0.7524
  172SOPE  H15S19481   0.296   0.758   8.422  1.2791  0.3725  0.5409
  172SOPE  C21619482   0.179   0.835   8.581  0.2829 -0.1049 -0.1750
  172SOPE  H16R19483   0.156   0.728   8.602 -3.6756  0.1841 -2.5676
  172SOPE  H16S19484   0.086   0.896   8.574 -0.8642 -1.2558  3.8062
  172SOPE  C21719485   0.295   0.888   8.674  0.1161  0.2010 -0.0331
  172SOPE  H17R19486   0.253   0.920   8.771 -2.6485 -0.2344 -1.0529
  172SOPE  H17S19487   0.332   0.981   8.625 -0.9720  1.5373  1.6679
  172SOPE  C21819488   0.406   0.791   8.691 -0.0996 -0.7170  0.7646
  172SOPE  H18R19489   0.483   0.829   8.761  0.8926 -1.3933  0.0499
  172SOPE  H18S19490   0.450   0.774   8.590 -0.9662 -1.4554  0.4979
  172SOPE  H18T19491   0.364   0.696   8.732  0.7504 -1.5181 -0.1847
  172SOPE   C3319492   0.398   0.967   7.407  0.3895  0.3717  0.4151
  172SOPE   H3X19493   0.312   0.897   7.399  1.8055 -1.3342 -0.4124
  172SOPE   H3Y19494   0.360   1.071   7.412 -0.5742  0.0023  0.9681
  172SOPE   C3419495   0.486   0.942   7.533 -0.3069  0.7404 -0.2629
  172SOPE   H4X19496   0.574   1.009   7.532  0.9096 -0.8011  1.3331
  172SOPE   H4Y19497   0.522   0.837   7.529 -1.5926  0.2447  0.8432
  172SOPE   C3519498   0.404   0.948   7.661 -0.0478 -0.5300 -0.0877
  172SOPE   H5X19499   0.326   0.869   7.661 -0.6478  0.0493 -0.6140
  172SOPE   H5Y19500   0.360   1.050   7.659 -0.1287 -0.5714 -0.5782
  172SOPE   C3619501   0.502   0.936   7.784  0.5873  0.2458  0.7130
  172SOPE   H6X19502   0.593   0.996   7.767 -0.0160  1.0273  0.2024
  172SOPE   H6Y19503   0.532   0.829   7.792 -3.1515 -0.9940 -0.6675
  172SOPE   C3719504   0.428   0.959   7.916  0.0056  0.8250  0.7583
  172SOPE   H7X19505   0.359   0.874   7.934  1.1303  0.1665  2.0554
  172SOPE   H7Y19506   0.359   1.045   7.923 -0.4222  0.5637 -0.2151
  172SOPE   C3819507   0.527   0.975   8.033  0.4789  0.8142  0.1270
  172SOPE   H8X19508   0.595   1.061   8.014  1.1133  0.2116 -0.3839
  172SOPE   H8Y19509   0.604   0.896   8.020  2.5412  2.5658  1.5270
  172SOPE   C3919510   0.458   0.990   8.159  0.6939 -0.5273 -0.6167
  172SOPE   H9X19511   0.412   0.892   8.181  0.1970 -0.4743 -1.4342
  172SOPE   H9Y19512   0.374   1.063   8.157  2.3756  1.4557 -0.7292
  172SOPE  C31019513   0.555   1.024   8.268  0.2863  0.0750 -0.4316
  172SOPE  H10X19514   0.497   1.051   8.358 -1.0437 -0.0472 -1.2379
  172SOPE  H10Y19515   0.616   1.108   8.228  0.8821 -0.0542  0.1962
  172SOPE  C31119516   0.644   0.905   8.312 -0.3675  0.5427 -0.0360
  172SOPE  H11X19517   0.681   0.863   8.216  0.8545  0.1391  0.5970
  172SOPE  H11Y19518   0.581   0.823   8.354  2.2558 -2.7003 -2.1107
  172SOPE  C31219519   0.741   0.967   8.410  0.7164  0.5051 -0.0567
  172SOPE  H12X19520   0.692   1.040   8.478 -0.5883  0.5582 -1.0249
  172SOPE  H12Y19521   0.825   1.021   8.361  1.2111 -0.1207  0.0954
  172SOPE  C31319522   0.797   0.862   8.507 -0.2434  0.1044 -0.4159
  172SOPE  H13X19523   0.866   0.798   8.448 -0.0762  0.3241 -0.4571
  172SOPE  H13Y19524   0.730   0.792   8.561 -0.3348  1.6948  1.6101
  172SOPE  C31419525   0.877   0.927   8.622 -0.3889 -0.2062  0.3303
  172SOPE  H14X19526   0.957   0.995   8.585  0.1814 -0.9641  0.1453
  172SOPE  H14Y19527   0.924   0.842   8.677  0.0583 -0.2287 -0.0780
  172SOPE  C31519528   0.795   1.002   8.723 -0.0317  0.1771  0.1233
  172SOPE  H15X19529   0.709   0.941   8.756  1.1710 -0.7908  1.5542
  172SOPE  H15Y19530   0.753   1.087   8.666 -1.7702 -1.3452 -0.9265
  172SOPE  C31619531   0.882   1.032   8.841 -0.3081  0.4077 -0.3671
  172SOPE  H16X19532   0.968   1.093   8.808  0.2253  0.1098  0.4481
  172SOPE  H16Y19533   0.923   0.939   8.887 -0.1116  0.6503 -0.0545
  172SOPE  C31719534   0.805   1.102   8.956 -0.2510  0.6967  0.0925
  172SOPE  H17X19535   0.875   1.125   9.039 -2.2700 -0.1223  2.0925
  172SOPE  H17Y19536   0.747   1.028   9.015  1.5908  0.0434  1.1237
  172SOPE  C31819537   0.730   1.230   8.915  0.0884  0.5337  0.3049
  172SOPE  H18X19538   0.787   1.295   8.845  0.3460  0.7237  0.6893
  172SOPE  H18Y19539   0.729   1.280   9.015  0.2400  1.7075 -0.2798
  172SOPE  H18Z19540   0.628   1.219   8.873 -0.3237  1.0149  1.1488
  173SAPI   C1219541   2.470   4.739  11.215  0.6566 -0.3266  0.2865
  173SAPI    H219542   2.446   4.846  11.230 -0.1003  0.2397 -4.2056
  173SAPI    O219543   2.607   4.704  11.239  0.7946 -0.1521 -0.1721
  173SAPI   HO219544   2.651   4.788  11.226 -0.0032  0.5760  1.8176
  173SAPI   C1319545   2.384   4.654  11.298  0.3999  0.5092 -0.1318
  173SAPI    H319546   2.278   4.680  11.277 -0.9022 -1.8430  3.0818
  173SAPI    O319547   2.395   4.672  11.444  0.6323 -0.2304 -0.2078
  173SAPI   HO319548   2.484   4.657  11.475  0.4249 -1.0511  0.0116
  173SAPI   C1419549   2.405   4.508  11.259  0.4348  0.5039 -0.3328
  173SAPI    H419550   2.514   4.493  11.272  0.3092  2.5302  3.5535
  173SAPI    O419551   2.330   4.418  11.339  0.2947  0.8200 -0.2850
  173SAPI   HO419552   2.243   4.422  11.299 -0.4965  0.4092  1.3543
  173SAPI   C1519553   2.383   4.478  11.111  0.4544 -0.5936 -0.2960
  173SAPI    H519554   2.276   4.504  11.095  0.4864  0.5729  1.2332
  173SAPI    O519555   2.392   4.344  11.077 -0.5879 -0.3938 -0.5496
  173SAPI   HO519556   2.479   4.321  11.109 -1.2692 -0.0723  1.6033
  173SAPI   C1619557   2.469   4.568  11.019  0.5550 -0.8003 -0.2755
  173SAPI    H619558   2.578   4.552  11.039 -0.1669 -2.2015  2.8868
  173SAPI    O619559   2.443   4.552  10.883 -0.6101 -0.0018 -0.4253
  173SAPI   HO619560   2.351   4.526  10.873 -0.6428  0.4210 -1.2228
  173SAPI   C1119561   2.440   4.719  11.062 -0.4078  0.3470  0.0399
  173SAPI    H119562   2.330   4.733  11.049 -0.1314  1.1498 -1.5090
  173SAPI     P19563   2.447   4.947  10.930  0.0770 -0.2867 -0.0588
  173SAPI   O1319564   2.545   5.049  10.893 -0.2251  0.4045 -0.0703
  173SAPI   O1419565   2.340   4.994  11.025  0.1550 -0.6121 -0.9480
  173SAPI   O1219566   2.518   4.819  10.992 -0.6115  0.1930 -0.2256
  173SAPI   O1119567   2.377   4.897  10.801 -0.5493  0.3897  0.4731
  173SAPI    C119568   2.455   4.853  10.688  0.3946 -0.2563  0.0137
  173SAPI    HA19569   2.529   4.928  10.652 -0.1958 -0.2233 -1.1882
  173SAPI    HB19570   2.497   4.753  10.707  1.7732 -0.1656 -2.3224
  173SAPI    C219571   2.371   4.839  10.552  0.3668  0.3106 -0.7635
  173SAPI    HS19572   2.429   4.805  10.463  1.9431 -1.5247  0.9177
  173SAPI   O2119573   2.302   4.963  10.534  0.6856 -0.5118  0.4194
  173SAPI   C2119574   2.378   5.061  10.485 -0.4297  0.4022 -0.1946
  173SAPI   O2219575   2.499   5.055  10.461 -0.2333 -0.0196  0.0326
  173SAPI   C2219576   2.296   5.184  10.440 -0.0028  0.3495  0.0851
  173SAPI   H2R19577   2.220   5.211  10.517 -0.7349  0.9060 -0.8264
  173SAPI   H2S19578   2.369   5.266  10.426 -0.8026  1.0300 -0.1394
  173SAPI    C319579   2.266   4.724  10.571 -0.1730 -0.3767 -0.1787
  173SAPI    HX19580   2.200   4.754  10.655  1.1240 -0.7398  1.0066
  173SAPI    HY19581   2.316   4.632  10.609 -0.0846 -0.4289 -0.4232
  173SAPI   O3119582   2.190   4.690  10.450  0.3062 -0.1518 -0.4710
  173SAPI   C3119583   2.083   4.764  10.431 -0.0485  0.1751  0.4593
  173SAPI   O3219584   2.041   4.859  10.501 -0.2639  0.2705  0.0638
  173SAPI   C3219585   2.000   4.719  10.314  0.2216  0.7914  0.0057
  173SAPI   H2X19586   1.905   4.775  10.311 -0.1138  0.1679 -1.0736
  173SAPI   H2Y19587   1.977   4.611  10.328 -0.0239  0.3152 -3.5319
  173SAPI   C2319588   2.222   5.156  10.310 -0.0017 -0.3232 -0.5521
  173SAPI   H3R19589   2.153   5.239  10.285 -1.0901 -1.0481 -0.0016
  173SAPI   H3S19590   2.170   5.060  10.330  2.2270 -1.1308  1.6218
  173SAPI   C2419591   2.319   5.150  10.179 -0.3627 -0.0478 -0.5183
  173SAPI   H4R19592   2.366   5.049  10.178  1.9503  0.8865  3.6086
  173SAPI   H4S19593   2.397   5.225  10.202 -0.1598 -0.3382 -0.2499
  173SAPI   C2519594   2.252   5.182  10.046 -0.2730  0.0224  0.5826
  173SAPI   H5R19595   2.167   5.252  10.055 -1.1727 -0.7454 -1.5749
  173SAPI   C2619596   2.269   5.120   9.928  0.8204 -0.1520  0.6013
  173SAPI   H6R19597   2.213   5.162   9.843  1.5939 -0.3770 -0.0287
  173SAPI   C2719598   2.367   5.016   9.882 -0.2006 -0.0490  0.0783
  173SAPI   H7R19599   2.312   4.933   9.832 -0.8398 -0.3711  1.2979
  173SAPI   H7S19600   2.424   4.965   9.962  5.1984  3.1092 -1.5155
  173SAPI   C2819601   2.462   5.066   9.774  0.4364  0.4932  0.1438
  173SAPI   H8R19602   2.555   5.107   9.817 -0.0432  3.9633 -1.9298
  173SAPI   C2919603   2.454   5.073   9.644 -0.1213  0.5320 -0.6903
  173SAPI   H9R19604   2.547   5.099   9.592 -0.6170  5.0448  0.4684
  173SAPI  C21019605   2.342   5.023   9.557  0.0349 -0.0924 -0.3407
  173SAPI  H10R19606   2.252   5.015   9.621  0.2259 -1.0422 -0.1685
  173SAPI  H10S19607   2.364   4.917   9.531 -2.1919 -0.3154 -1.4270
  173SAPI  C21119608   2.290   5.114   9.445 -0.6044  0.3647 -0.4428
  173SAPI  H11R19609   2.281   5.222   9.466  0.3564  0.5763 -1.0899
  173SAPI  C21219610   2.254   5.075   9.322 -0.1232  0.8349  0.7400
  173SAPI  H12R19611   2.207   5.153   9.260 -1.2570  0.7956  1.5171
  173SAPI  C21319612   2.251   4.935   9.265 -1.0416 -0.1086  0.3322
  173SAPI  H13R19613   2.146   4.902   9.274 -0.8872 -1.3612 -2.0337
  173SAPI  H13S19614   2.309   4.863   9.327 -2.0965  0.8961  2.5229
  173SAPI  C21419615   2.277   4.943   9.120  0.2873  0.6074  0.4638
  173SAPI  H14R19616   2.293   5.043   9.078  2.2776  0.8373  1.7123
  173SAPI  C21519617   2.268   4.837   9.040  0.2540 -0.7026 -0.0955
  173SAPI  H15R19618   2.270   4.859   8.933 -1.2993 -1.0810 -0.2094
  173SAPI  C21619619   2.235   4.695   9.080  0.5186 -0.1093 -0.0148
  173SAPI  H16R19620   2.127   4.700   9.106  0.5655 -0.9967  0.3727
  173SAPI  H16S19621   2.289   4.667   9.173  1.0688  0.5636 -0.1265
  173SAPI  C21719622   2.278   4.571   8.999  0.8293  0.0823  0.4454
  173SAPI  H17R19623   2.229   4.485   9.050 -3.8398  1.5599 -1.2941
  173SAPI  H17S19624   2.388   4.562   8.984  0.0238 -3.1806 -4.5786
  173SAPI  C21819625   2.229   4.566   8.850 -0.0688  0.4195  0.6487
  173SAPI  H18R19626   2.266   4.469   8.812 -3.0388  0.4933 -2.7851
  173SAPI  H18S19627   2.290   4.645   8.801  0.0340 -1.2749 -2.0556
  173SAPI  C21919628   2.086   4.594   8.836  0.6178  0.1393 -0.0644
  173SAPI  H19R19629   2.046   4.685   8.886 -0.0387  0.3796 -1.0055
  173SAPI  H19S19630   2.021   4.519   8.886  1.3381  0.7216  1.7959
  173SAPI  C22019631   2.047   4.593   8.687  0.0818 -0.3021  0.0703
  173SAPI  H20R19632   1.941   4.589   8.655  0.0149  1.4021  0.0195
  173SAPI  H20S19633   2.087   4.511   8.623  1.3060  1.5911 -1.6817
  173SAPI  H20T19634   2.087   4.680   8.630 -1.1755 -0.3950 -0.9727
  173SAPI   C3319635   2.065   4.735  10.172  0.0855 -1.1141 -0.6097
  173SAPI   H3X19636   2.162   4.684  10.156  0.2868 -0.4414 -1.5997
  173SAPI   H3Y19637   2.068   4.838  10.129 -0.2127 -0.3499  1.1798
  173SAPI   C3419638   1.975   4.661  10.070  0.2216  0.6767  0.0264
  173SAPI   H4X19639   1.869   4.669  10.100  0.0268  3.5092 -1.3252
  173SAPI   H4Y19640   2.006   4.554  10.074  0.8479  0.8962  1.3594
  173SAPI   C3519641   1.983   4.730   9.934 -0.2019  0.0704  0.5955
  173SAPI   H5X19642   1.960   4.839   9.929  0.2946  0.1108 -1.2362
  173SAPI   H5Y19643   1.900   4.689   9.873 -0.7408  0.5567  0.9964
  173SAPI   C3619644   2.114   4.699   9.864 -0.5308 -0.0178 -0.1457
  173SAPI   H6X19645   2.120   4.588   9.870 -0.4739  0.0165  0.4805
  173SAPI   H6Y19646   2.199   4.746   9.917 -0.1849 -0.3585 -0.3960
  173SAPI   C3719647   2.118   4.740   9.716 -0.0349  0.0059  0.0663
  173SAPI   H7X19648   2.220   4.726   9.674  0.1394  1.9135 -0.1846
  173SAPI   H7Y19649   2.100   4.850   9.714 -2.1877 -0.3104  1.3535
  173SAPI   C3819650   2.023   4.672   9.615  0.2801  0.0439  0.0503
  173SAPI   H8X19651   1.924   4.666   9.665  0.4094  2.4277  0.6517
  173SAPI   H8Y19652   2.052   4.565   9.606 -0.5131 -0.0133 -1.9842
  173SAPI   C3919653   2.019   4.730   9.473 -0.1100  0.9254 -0.2113
  173SAPI   H9X19654   2.115   4.762   9.426  1.7971  0.8062  3.4718
  173SAPI   H9Y19655   1.951   4.817   9.486 -1.5170 -0.1488 -0.2026
  173SAPI  C31019656   1.945   4.643   9.367  0.1967  0.0676 -0.3750
  173SAPI  H10X19657   1.874   4.582   9.427  3.1054 -2.8801  0.2407
  173SAPI  H10Y19658   2.009   4.568   9.315 -1.1347 -1.3034 -0.0680
  173SAPI  C31119659   1.872   4.730   9.258  0.3685  0.3811 -0.1644
  173SAPI  H11X19660   1.960   4.791   9.227  0.3751  0.3004 -0.3031
  173SAPI  H11Y19661   1.789   4.792   9.299 -0.4012 -2.0032  2.0287
  173SAPI  C31219662   1.825   4.652   9.135  0.1218  0.3567  0.0473
  173SAPI  H12X19663   1.746   4.575   9.153  0.5997  0.0632  0.9019
  173SAPI  H12Y19664   1.908   4.597   9.086 -1.9384  0.1079 -3.3678
  173SAPI  C31319665   1.775   4.740   9.014  0.3979 -0.7008 -0.2193
  173SAPI  H13X19666   1.858   4.803   8.974  0.7831 -1.3688 -0.4841
  173SAPI  H13Y19667   1.697   4.812   9.047  1.6065 -0.3174  1.8808
  173SAPI  C31419668   1.722   4.659   8.896 -0.3682 -0.4016  0.5385
  173SAPI  H14X19669   1.632   4.599   8.922  1.5888 -2.8243  1.9701
  173SAPI  H14Y19670   1.788   4.580   8.853  0.3761 -0.5823  2.0121
  173SAPI  C31519671   1.665   4.750   8.780 -0.6116 -0.3901 -0.1035
  173SAPI  H15X19672   1.598   4.826   8.826  0.7531  0.1583  1.0144
  173SAPI  H15Y19673   1.594   4.690   8.719 -0.1653  0.7932 -1.8371
  173SAPI  C31619674   1.773   4.808   8.683  0.0617  0.4254  0.1259
  173SAPI  H16X19675   1.818   4.736   8.611  0.0054  1.5806 -1.0789
  173SAPI  H16Y19676   1.861   4.848   8.738 -1.8602  0.6363  3.1812
  173SAPI  C31719677   1.717   4.919   8.599  0.3265  0.2007 -0.3409
  173SAPI  H17X19678   1.675   4.998   8.664  0.1699 -0.0825 -0.0960
  173SAPI  H17Y19679   1.633   4.881   8.536 -0.8756 -1.2298  2.0674
  173SAPI  C31819680   1.816   4.980   8.503  0.3798 -0.6056  0.3083
  173SAPI  H18X19681   1.852   4.918   8.418 -1.0229 -2.5807  1.1166
  173SAPI  H18Y19682   1.903   5.015   8.563 -0.0536 -0.7290  1.0196
  173SAPI  H18Z19683   1.776   5.070   8.453  1.4870 -0.6616 -0.7073
  174SAPI   C1219684   5.395   5.333  11.020 -0.0738  0.3085  0.3115
  174SAPI    H219685   5.499   5.309  10.989 -0.5911  0.3843 -1.5691
  174SAPI    O219686   5.326   5.218  10.972  0.0393  0.0278  0.3501
  174SAPI   HO219687   5.360   5.199  10.885 -0.3926 -0.9066  0.3803
  174SAPI   C1319688   5.377   5.337  11.173  0.3671 -0.2800 -0.1542
  174SAPI    H319689   5.442   5.423  11.201  0.1977 -0.7847  1.8018
  174SAPI    O319690   5.431   5.222  11.235 -0.0717 -0.1464  0.0142
  174SAPI   HO319691   5.440   5.234  11.330 -1.8455  1.1752  0.0366
  174SAPI   C1419692   5.236   5.360  11.215  0.4340 -0.5200 -0.0633
  174SAPI    H419693   5.174   5.272  11.188 -1.0020 -0.1920  1.9946
  174SAPI    O419694   5.227   5.370  11.362  0.0681  0.1372  0.1365
  174SAPI   HO419695   5.312   5.402  11.391 -0.3541  0.2537  1.2672
  174SAPI   C1519696   5.178   5.484  11.144 -0.6226  0.4695 -0.2838
  174SAPI    H519697   5.233   5.570  11.188  0.5367 -0.0340 -0.7367
  174SAPI    O519698   5.041   5.503  11.175  0.1128  0.0204 -0.0722
  174SAPI   HO519699   5.024   5.597  11.168  2.0528  0.3934  0.1775
  174SAPI   C1619700   5.201   5.484  10.990 -0.1812 -0.5723  0.7506
  174SAPI    H619701   5.134   5.405  10.949 -1.7930  0.5847  1.1054
  174SAPI    O619702   5.156   5.614  10.948  0.1597  0.1978 -0.2752
  174SAPI   HO619703   5.114   5.605  10.862 -0.8955  0.1020  0.2398
  174SAPI   C1119704   5.345   5.464  10.954 -0.2958  0.6186  0.2828
  174SAPI    H119705   5.405   5.547  10.998 -0.1443  1.2097 -1.0238
  174SAPI     P19706   5.502   5.520  10.739 -0.3920 -0.0569 -0.0764
  174SAPI   O1319707   5.574   5.409  10.668  0.5269  0.2383 -0.2090
  174SAPI   O1419708   5.570   5.597  10.843 -0.7513 -0.2934  0.3041
  174SAPI   O1219709   5.369   5.460  10.808  0.1711 -0.1362 -0.3647
  174SAPI   O1119710   5.425   5.607  10.631 -0.5628  0.1248  0.1992
  174SAPI    C119711   5.325   5.535  10.550  0.3828 -0.1876  0.3703
  174SAPI    HA19712   5.344   5.425  10.550  1.6035  0.0076 -1.4658
  174SAPI    HB19713   5.224   5.543  10.596  0.3755 -2.6041  0.8672
  174SAPI    C219714   5.329   5.587  10.405 -0.7487  0.8519  0.6042
  174SAPI    HS19715   5.235   5.555  10.356 -1.1287 -1.5183  2.7939
  174SAPI   O2119716   5.454   5.556  10.336 -0.5107  0.3912  0.2595
  174SAPI   C2119717   5.469   5.431  10.302  0.2649 -0.4530  0.2418
  174SAPI   O2219718   5.387   5.347  10.328 -0.1003  0.4940  0.5431
  174SAPI   C2219719   5.589   5.423  10.198 -0.1492  0.0978 -1.0837
  174SAPI   H2R19720   5.658   5.508  10.219  0.3103  0.2068 -2.9536
  174SAPI   H2S19721   5.634   5.322  10.204  1.0060  0.5948 -1.3204
  174SAPI    C319722   5.313   5.744  10.403 -0.7221  0.7373  0.6003
  174SAPI    HX19723   5.398   5.794  10.455  0.7193 -0.7498 -0.2930
  174SAPI    HY19724   5.226   5.766  10.469  0.2126 -0.4484  2.2833
  174SAPI   O3119725   5.296   5.807  10.278  0.3974 -0.2073  0.1246
  174SAPI   C3119726   5.402   5.825  10.201 -0.1454 -0.3706 -0.7487
  174SAPI   O3219727   5.520   5.792  10.223 -0.4980 -0.1650  0.6315
  174SAPI   C3219728   5.361   5.886  10.069 -0.2215  0.0860 -0.0850
  174SAPI   H2X19729   5.403   5.811   9.998  0.5377 -0.4980  0.9791
  174SAPI   H2Y19730   5.428   5.972  10.046  0.7268 -0.1828  1.6111
  174SAPI   C2319731   5.536   5.464  10.055 -1.4297  0.9981 -0.4782
  174SAPI   H3R19732   5.509   5.571  10.051  1.6148  1.8515  0.4174
  174SAPI   H3S19733   5.441   5.412  10.030 -1.1496 -0.1705  0.8221
  174SAPI   C2419734   5.642   5.433   9.957  0.0648  0.1200  1.0891
  174SAPI   H4R19735   5.665   5.325   9.969  0.8074  0.3458  1.7742
  174SAPI   H4S19736   5.725   5.503   9.985 -0.2470  0.9724 -0.0841
  174SAPI   C2519737   5.603   5.465   9.812  0.4745 -0.9988  0.0002
  174SAPI   H5R19738   5.545   5.380   9.774 -0.9433  0.6814 -1.7244
  174SAPI   C2619739   5.625   5.569   9.727 -0.7936  1.0647 -0.0551
  174SAPI   H6R19740   5.577   5.585   9.630  0.6151  1.7981 -0.6428
  174SAPI   C2719741   5.717   5.680   9.761 -0.2283 -0.5075  0.3852
  174SAPI   H7R19742   5.762   5.673   9.863  1.3167  1.6772 -0.0979
  174SAPI   H7S19743   5.649   5.768   9.773  0.8354  0.3014  0.5884
  174SAPI   C2819744   5.820   5.701   9.650 -0.1382  0.1254 -0.3358
  174SAPI   H8R19745   5.906   5.634   9.662 -0.2435  0.3170  1.6187
  174SAPI   C2919746   5.812   5.791   9.547  1.0005 -0.3345  0.3584
  174SAPI   H9R19747   5.895   5.801   9.476  1.3566 -1.5171  0.5969
  174SAPI  C21019748   5.702   5.890   9.529 -0.3875  0.7204  0.2346
  174SAPI  H10R19749   5.740   5.980   9.476  1.5074 -0.2117 -0.0414
  174SAPI  H10S19750   5.658   5.938   9.618 -3.5166 -0.3702 -0.6712
  174SAPI  C21119751   5.589   5.835   9.450  0.0115  0.7137  0.1712
  174SAPI  H11R19752   5.508   5.802   9.517  0.4512 -0.0846  0.3146
  174SAPI  C21219753   5.585   5.834   9.312  0.2640  0.2450  1.0959
  174SAPI  H12R19754   5.497   5.794   9.261  0.6561 -0.6619  1.1274
  174SAPI  C21319755   5.687   5.877   9.214 -0.2919 -0.9919  0.7074
  174SAPI  H13R19756   5.705   5.797   9.138 -2.8101 -0.6110 -0.3225
  174SAPI  H13S19757   5.787   5.869   9.262  0.1163 -0.4713 -0.0355
  174SAPI  C21419758   5.683   6.012   9.149  0.4201  0.7843 -1.0757
  174SAPI  H14R19759   5.606   6.086   9.175 -0.0953  0.4072 -1.5379
  174SAPI  C21519760   5.765   6.064   9.055  0.1927 -0.3626  0.7892
  174SAPI  H15R19761   5.748   6.166   9.016 -1.3748 -0.9255 -0.0188
  174SAPI  C21619762   5.879   5.998   8.980  0.2657  0.1532  0.5206
  174SAPI  H16R19763   5.907   5.902   9.029 -0.8394 -1.2199 -1.4873
  174SAPI  H16S19764   5.966   6.068   8.984  0.1279  0.3913 -0.6046
  174SAPI  C21719765   5.870   5.961   8.835 -0.7587 -0.1924  0.2815
  174SAPI  H17R19766   5.787   5.889   8.824  0.1372 -0.8001 -3.0849
  174SAPI  H17S19767   5.962   5.903   8.812  0.0344  0.0542  2.7104
  174SAPI  C21819768   5.857   6.087   8.742  0.1531 -0.2255  0.7808
  174SAPI  H18R19769   5.951   6.145   8.741 -0.7582  1.3294  2.2482
  174SAPI  H18S19770   5.781   6.159   8.779  1.6199  0.7811  1.8810
  174SAPI  C21919771   5.836   6.045   8.596 -0.5781 -0.0797  0.2731
  174SAPI  H19R19772   5.770   5.956   8.588 -0.0898 -0.2958 -1.5804
  174SAPI  H19S19773   5.933   6.009   8.555 -1.2171  0.7185 -2.0055
  174SAPI  C22019774   5.779   6.147   8.501  0.4195 -0.3672 -0.0062
  174SAPI  H20R19775   5.682   6.178   8.544  1.2095  0.6936  1.0084
  174SAPI  H20S19776   5.764   6.107   8.398 -1.5569 -0.9438  0.5012
  174SAPI  H20T19777   5.853   6.230   8.494 -0.3646  0.1353 -2.9706
  174SAPI   C3319778   5.209   5.921  10.042 -0.8447  0.8467  0.2730
  174SAPI   H3X19779   5.182   5.989  10.126 -0.0870  1.8034 -0.2498
  174SAPI   H3Y19780   5.148   5.829  10.050 -1.0352  1.0269  0.9670
  174SAPI   C3419781   5.180   5.989   9.911 -0.6000 -0.4046  0.8211
  174SAPI   H4X19782   5.234   6.085   9.903 -0.9237 -0.3381 -0.6957
  174SAPI   H4Y19783   5.073   6.020   9.905 -0.6307 -0.7468 -0.3351
  174SAPI   C3519784   5.211   5.912   9.779  0.5403 -0.1212 -0.9145
  174SAPI   H5X19785   5.148   5.821   9.792  1.1796 -0.2527  1.4656
  174SAPI   H5Y19786   5.318   5.884   9.775  0.7816  0.8096 -1.0892
  174SAPI   C3619787   5.175   5.992   9.656 -0.1841 -0.3039 -0.1082
  174SAPI   H6X19788   5.244   6.079   9.651 -0.3176 -0.2315 -0.7553
  174SAPI   H6Y19789   5.074   6.036   9.669 -0.2581 -0.9620  1.5846
  174SAPI   C3719790   5.190   5.925   9.523 -0.4207  0.4136 -0.2593
  174SAPI   H7X19791   5.126   5.834   9.517 -0.6466  0.4201  1.5786
  174SAPI   H7Y19792   5.294   5.886   9.516 -0.0903  1.0339  0.9813
  174SAPI   C3819793   5.150   6.022   9.412  0.5688 -0.2882 -1.1096
  174SAPI   H8X19794   5.189   6.124   9.433 -0.4586 -0.2822  0.9644
  174SAPI   H8Y19795   5.040   6.029   9.424  0.7345  1.1433 -0.3334
  174SAPI   C3919796   5.196   5.966   9.280  0.1522 -0.1114  0.2446
  174SAPI   H9X19797   5.195   5.855   9.277  1.7000 -0.1502  0.8956
  174SAPI   H9Y19798   5.303   5.981   9.257 -0.3434  0.7639 -1.5714
  174SAPI  C31019799   5.127   6.021   9.157 -0.2546 -0.4413  0.1476
  174SAPI  H10X19800   5.137   6.131   9.172  1.1323 -0.8693  2.6103
  174SAPI  H10Y19801   5.017   6.003   9.157 -0.9014  3.0922 -0.7207
  174SAPI  C31119802   5.185   5.969   9.023  0.2513 -0.7401 -0.3317
  174SAPI  H11X19803   5.142   6.029   8.940  1.3762  0.9607  0.2791
  174SAPI  H11Y19804   5.151   5.865   9.005  0.1534 -0.8237  0.3244
  174SAPI  C31219805   5.342   5.962   9.013 -0.4493  0.4452 -0.3200
  174SAPI  H12X19806   5.380   5.884   9.083  0.9406  0.5203 -0.9811
  174SAPI  H12Y19807   5.378   6.060   9.053 -0.0498  0.0195  0.3703
  174SAPI  C31319808   5.402   5.936   8.878  0.4912  0.9225 -0.3732
  174SAPI  H13X19809   5.381   5.829   8.854  0.5363  0.8817 -0.2329
  174SAPI  H13Y19810   5.511   5.937   8.895  0.5111  1.2881 -0.5397
  174SAPI  C31419811   5.367   6.016   8.755 -0.2256  0.2391  0.6627
  174SAPI  H14X19812   5.258   6.011   8.735 -0.3178  0.8422  1.0053
  174SAPI  H14Y19813   5.422   5.960   8.676  0.5502 -0.8531  1.9533
  174SAPI  C31519814   5.412   6.162   8.776 -0.1076  0.1778 -0.7572
  174SAPI  H15X19815   5.507   6.169   8.834 -1.1528  0.2103  0.9825
  174SAPI  H15Y19816   5.336   6.201   8.847 -0.4231  1.2752 -1.6963
  174SAPI  C31619817   5.402   6.245   8.652 -0.1026 -0.3828  0.3034
  174SAPI  H16X19818   5.302   6.290   8.667 -0.1045 -0.0287 -0.7341
  174SAPI  H16Y19819   5.391   6.180   8.562 -0.1906 -0.2672  0.2294
  174SAPI  C31719820   5.500   6.362   8.638 -0.1084 -0.5945  0.7682
  174SAPI  H17X19821   5.599   6.340   8.683  0.2522  0.3764  0.4472
  174SAPI  H17Y19822   5.461   6.437   8.710  1.0123 -0.4013  1.1819
  174SAPI  C31819823   5.498   6.432   8.504  0.1141  0.0067 -0.4719
  174SAPI  H18X19824   5.391   6.439   8.476 -0.4511  3.3696  2.0871
  174SAPI  H18Y19825   5.558   6.369   8.434  1.1593 -0.8741  1.1739
  174SAPI  H18Z19826   5.538   6.535   8.511  0.9544 -0.4526  2.2000
  175SAPI   C1219827   0.507   4.630   6.122  0.5421  0.1333  0.3369
  175SAPI    H219828   0.442   4.719   6.135  0.5504  0.1194  0.4801
  175SAPI    O219829   0.498   4.551   6.237  0.1091 -0.2282 -0.5204
  175SAPI   HO219830   0.532   4.606   6.308  4.1269 -1.7339 -1.1193
  175SAPI   C1319831   0.472   4.556   5.995  0.1020  0.0359 -0.3989
  175SAPI    H319832   0.502   4.606   5.900 -0.9997 -1.8332 -1.7689
  175SAPI    O319833   0.332   4.534   5.984 -0.3092 -0.1036 -0.3121
  175SAPI   HO319834   0.306   4.482   6.060 -0.0958  1.1520  0.6423
  175SAPI   C1419835   0.563   4.424   5.993  0.5081 -0.6957  0.2155
  175SAPI    H419836   0.542   4.364   6.084 -0.1769  0.1283  0.6139
  175SAPI    O419837   0.533   4.345   5.880  0.3019  0.4962  0.6292
  175SAPI   HO419838   0.445   4.307   5.884  0.5846 -0.4723 -1.6149
  175SAPI   C1519839   0.706   4.463   5.986 -0.4765 -0.5730 -0.7139
  175SAPI    H519840   0.725   4.522   5.893 -0.1397  1.4545  0.6078
  175SAPI    O519841   0.800   4.357   5.974 -0.1465 -0.2415  0.4366
  175SAPI   HO519842   0.871   4.386   5.917  0.3699  0.0568  1.2114
  175SAPI   C1619843   0.744   4.566   6.102 -0.1659  0.6626  0.2914
  175SAPI    H619844   0.731   4.509   6.197 -1.7760 -1.4361 -1.1341
  175SAPI    O619845   0.879   4.607   6.085 -0.3381 -0.2968  0.9169
  175SAPI   HO619846   0.896   4.658   6.005 -0.4015 -0.7337  0.6198
  175SAPI   C1119847   0.646   4.687   6.100 -0.0936  0.9324 -0.0424
  175SAPI    H119848   0.649   4.737   6.001  1.7457 -1.2364 -1.1136
  175SAPI     P19849   0.689   4.931   6.193  0.0315 -0.1203 -0.6266
  175SAPI   O1319850   0.562   4.985   6.235  0.5364  0.2064 -0.3123
  175SAPI   O1419851   0.726   4.962   6.056  0.3888  0.3528 -0.3838
  175SAPI   O1219852   0.683   4.768   6.208  0.1620 -0.0903 -0.0083
  175SAPI   O1119853   0.804   4.980   6.285  0.0347 -0.6093  0.2384
  175SAPI    C119854   0.935   4.918   6.295 -0.8674  0.2145  0.1521
  175SAPI    HA19855   0.952   4.861   6.201 -1.1942  1.6316 -0.7848
  175SAPI    HB19856   1.011   4.998   6.303 -0.3851 -0.1083 -1.0388
  175SAPI    C219857   0.956   4.828   6.417 -0.1474  0.6890 -0.0165
  175SAPI    HS19858   0.932   4.724   6.387  1.0073  0.1056  1.0052
  175SAPI   O2119859   0.886   4.868   6.534  0.1622  0.0346  0.4677
  175SAPI   C2119860   0.843   4.771   6.611  0.9649  0.0495  0.1199
  175SAPI   O2219861   0.847   4.653   6.591 -0.2550 -0.1461 -0.0098
  175SAPI   C2219862   0.774   4.840   6.730  0.2552 -0.8987  0.5752
  175SAPI   H2R19863   0.850   4.878   6.801 -1.1668 -1.2281  2.3119
  175SAPI   H2S19864   0.721   4.927   6.686 -1.7464 -3.5499 -2.5384
  175SAPI    C319865   1.111   4.821   6.461  0.0793  0.7271  0.1882
  175SAPI    HX19866   1.133   4.927   6.485  0.7044  0.3918  1.1076
  175SAPI    HY19867   1.163   4.776   6.373  1.7214 -0.1624  1.6021
  175SAPI   O3119868   1.123   4.736   6.578  0.1424  0.3546  0.0353
  175SAPI   C3119869   1.136   4.608   6.551  0.6946 -0.3558 -0.6336
  175SAPI   O3219870   1.147   4.563   6.439  0.0126 -0.3523  0.6479
  175SAPI   C3219871   1.137   4.527   6.677  0.0004  0.3278  0.1824
  175SAPI   H2X19872   1.225   4.459   6.674  1.4470  2.1617 -0.2982
  175SAPI   H2Y19873   1.048   4.462   6.664 -0.3319  1.0425 -1.1255
  175SAPI   C2319874   0.669   4.749   6.803  0.0485  0.0022 -0.1642
  175SAPI   H3R19875   0.606   4.703   6.724 -0.3725 -0.1645  0.2595
  175SAPI   H3S19876   0.597   4.812   6.861  0.2633 -1.5937  1.9191
  175SAPI   C2419877   0.732   4.645   6.891  0.0622 -0.1664 -0.7861
  175SAPI   H4R19878   0.803   4.704   6.953  0.6593  0.0960 -1.7181
  175SAPI   H4S19879   0.800   4.580   6.831  0.6171 -1.8423  1.5693
  175SAPI   C2519880   0.636   4.552   6.965  0.0566  0.2606  1.0309
  175SAPI   H5R19881   0.585   4.478   6.902  0.8136  0.4184  0.2254
  175SAPI   C2619882   0.594   4.572   7.094 -0.3568 -0.7092  0.7948
  175SAPI   H6R19883   0.531   4.494   7.138 -0.8410 -0.6625  0.1914
  175SAPI   C2719884   0.641   4.687   7.181  0.6502  0.0764 -0.2754
  175SAPI   H7R19885   0.557   4.731   7.239  1.3277 -1.0214  1.5939
  175SAPI   H7S19886   0.685   4.769   7.122  0.9301  0.6300  0.6996
  175SAPI   C2819887   0.756   4.651   7.271  0.6634  0.6675 -0.2869
  175SAPI   H8R19888   0.843   4.602   7.225  0.8568  1.0953 -0.3804
  175SAPI   C2919889   0.763   4.659   7.407 -0.4581  0.3643 -0.3130
  175SAPI   H9R19890   0.852   4.625   7.462 -0.4186  0.1179 -0.5284
  175SAPI  C21019891   0.653   4.699   7.499 -0.3472  0.7129  0.1382
  175SAPI  H10R19892   0.556   4.650   7.476  0.7683 -1.2723 -0.4629
  175SAPI  H10S19893   0.645   4.808   7.477 -1.8466  0.8631  1.3401
  175SAPI  C21119894   0.695   4.689   7.642 -0.1663  1.0747 -0.2421
  175SAPI  H11R19895   0.769   4.759   7.684  1.0371 -0.9227  0.9923
  175SAPI  C21219896   0.652   4.610   7.735 -0.1653 -0.6558  0.5166
  175SAPI  H12R19897   0.716   4.611   7.824  1.0995  0.8004 -0.3843
  175SAPI  C21319898   0.546   4.501   7.733 -0.0386 -0.6793  0.9157
  175SAPI  H13R19899   0.547   4.457   7.631  1.2756 -1.7242  1.3778
  175SAPI  H13S19900   0.448   4.552   7.744  1.3224  1.5560  3.2108
  175SAPI  C21419901   0.584   4.389   7.828  0.8613 -0.0286 -0.1107
  175SAPI  H14R19902   0.596   4.290   7.782 -0.6018 -0.7537  1.0481
  175SAPI  C21519903   0.579   4.384   7.961 -0.2497 -1.0968 -1.1537
  175SAPI  H15R19904   0.624   4.296   8.010 -1.2658 -1.4436 -0.8176
  175SAPI  C21619905   0.540   4.503   8.049 -0.3031 -0.5675  0.7546
  175SAPI  H16R19906   0.444   4.498   8.104 -1.5168  0.6274 -1.1846
  175SAPI  H16S19907   0.530   4.590   7.980 -0.8681  1.1426  2.9375
  175SAPI  C21719908   0.648   4.544   8.152  0.0805 -0.2778  0.1130
  175SAPI  H17R19909   0.644   4.654   8.160  0.9129 -0.2453  0.1317
  175SAPI  H17S19910   0.749   4.530   8.107  0.9048  0.4470  1.7191
  175SAPI  C21819911   0.626   4.480   8.288  0.7988 -0.5051 -0.6565
  175SAPI  H18R19912   0.626   4.369   8.289  0.6557 -0.5132 -1.7516
  175SAPI  H18S19913   0.522   4.503   8.320  1.5321  0.9545  0.8017
  175SAPI  C21919914   0.724   4.548   8.390 -0.5157  0.5416 -0.2626
  175SAPI  H19R19915   0.671   4.548   8.488  2.7274 -0.1036  1.5807
  175SAPI  H19S19916   0.738   4.653   8.357  0.0131 -0.4888 -3.4402
  175SAPI  C22019917   0.863   4.494   8.410  0.2571  0.5487  0.2589
  175SAPI  H20R19918   0.920   4.478   8.316  0.7541  0.9277  0.4961
  175SAPI  H20S19919   0.869   4.400   8.469  0.4314  1.7864  2.2366
  175SAPI  H20T19920   0.932   4.563   8.463  0.0403  0.0815  1.1638
  175SAPI   C3319921   1.123   4.605   6.803  0.4898  0.0618  0.1770
  175SAPI   H3X19922   1.029   4.664   6.801  0.0711 -0.4458  3.0928
  175SAPI   H3Y19923   1.211   4.672   6.807 -1.1832  2.3163 -0.1261
  175SAPI   C3419924   1.139   4.518   6.934  0.1951  0.6052 -0.4766
  175SAPI   H4X19925   1.235   4.463   6.926  0.4419  0.4874  2.6138
  175SAPI   H4Y19926   1.055   4.446   6.934  0.6799  0.0266  0.4159
  175SAPI   C3519927   1.125   4.592   7.069 -0.1381 -0.2853  0.0687
  175SAPI   H5X19928   1.029   4.648   7.067 -0.4560 -0.7848  1.0894
  175SAPI   H5Y19929   1.210   4.663   7.070  0.6528 -1.2154  2.3218
  175SAPI   C3619930   1.149   4.483   7.185  0.3169 -0.5687  0.3731
  175SAPI   H6X19931   1.251   4.440   7.172  1.5663  2.4601 -0.1183
  175SAPI   H6Y19932   1.079   4.398   7.166  0.9961 -0.5712 -2.2397
  175SAPI   C3719933   1.131   4.542   7.324  0.0540 -0.1922  0.6160
  175SAPI   H7X19934   1.051   4.619   7.325  1.3331  1.1756 -0.4047
  175SAPI   H7Y19935   1.217   4.606   7.352  0.1630 -0.7401  1.5751
  175SAPI   C3819936   1.106   4.432   7.433  0.4584 -0.6038  0.0934
  175SAPI   H8X19937   1.185   4.355   7.422  1.1806 -0.1505  1.9341
  175SAPI   H8Y19938   1.011   4.376   7.421 -0.3323  0.0574  2.9091
  175SAPI   C3919939   1.106   4.494   7.573  0.6840  0.2564  0.1956
  175SAPI   H9X19940   1.059   4.594   7.567 -0.1461 -0.1535 -0.1975
  175SAPI   H9Y19941   1.211   4.515   7.605  0.0306  3.3644  0.4166
  175SAPI  C31019942   1.051   4.389   7.672  0.6941 -0.3132  0.0730
  175SAPI  H10X19943   1.131   4.312   7.675  1.2360  0.1550 -1.9029
  175SAPI  H10Y19944   0.952   4.348   7.642 -0.1074  1.0341  0.8224
  175SAPI  C31119945   1.035   4.454   7.814 -0.0370  0.0180  0.0082
  175SAPI  H11X19946   0.982   4.552   7.814 -1.9143 -0.9908  0.4176
  175SAPI  H11Y19947   1.138   4.473   7.853 -0.2778 -2.0765  1.6937
  175SAPI  C31219948   0.952   4.368   7.913  0.1958  0.2844  0.0038
  175SAPI  H12X19949   0.858   4.343   7.858 -1.0435  0.8998  1.8034
  175SAPI  H12Y19950   0.919   4.428   8.000  1.0977 -2.4387  2.3032
  175SAPI  C31319951   1.027   4.245   7.962 -0.1982 -0.4611  0.2254
  175SAPI  H13X19952   1.121   4.259   8.020  0.8735 -0.2329 -1.5283
  175SAPI  H13Y19953   1.066   4.207   7.865 -0.4834  1.0079 -0.4778
  175SAPI  C31419954   0.933   4.142   8.020  0.2614  0.6632  0.6362
  175SAPI  H14X19955   0.994   4.049   8.025 -1.6982 -0.6125  1.1792
  175SAPI  H14Y19956   0.851   4.123   7.948  0.0066 -2.5982  1.6913
  175SAPI  C31519957   0.884   4.179   8.158 -0.3593 -0.4942  0.1732
  175SAPI  H15X19958   0.819   4.266   8.135 -0.2098 -0.1390  1.1276
  175SAPI  H15Y19959   0.973   4.202   8.219  0.5081 -3.3426  0.0669
  175SAPI  C31619960   0.793   4.074   8.227  0.0965 -0.4549  0.1254
  175SAPI  H16X19961   0.827   3.969   8.217 -0.5538 -1.0809  3.8636
  175SAPI  H16Y19962   0.697   4.078   8.170  0.5004  0.8257 -0.4786
  175SAPI  C31719963   0.745   4.112   8.373  0.1006 -0.5349 -0.9052
  175SAPI  H17X19964   0.717   4.220   8.378  2.9790  0.2329 -0.7505
  175SAPI  H17Y19965   0.838   4.111   8.433 -0.7847  1.6463  0.5927
  175SAPI  C31819966   0.660   4.012   8.455 -0.1673 -0.3771  0.1383
  175SAPI  H18X19967   0.553   3.997   8.431 -0.0879 -0.0881 -0.3978
  175SAPI  H18Y19968   0.654   4.049   8.560  0.6921 -0.0346  0.0656
  175SAPI  H18Z19969   0.716   3.917   8.457 -2.3271 -1.6796  0.6153
  176SAPI   C1219970   6.769   2.971   6.384 -0.4862  0.2998 -0.6042
  176SAPI    H219971   6.784   3.063   6.445  0.9637 -0.2601 -0.0974
  176SAPI    O219972   6.739   2.856   6.461  0.0527 -0.1473 -0.4769
  176SAPI   HO219973   6.814   2.845   6.520 -1.1290  0.6814  1.2497
  176SAPI   C1319974   6.650   3.015   6.292 -0.5194 -0.0657  0.3091
  176SAPI    H319975   6.686   3.076   6.206  0.7546  0.5166  1.2379
  176SAPI    O319976   6.549   3.078   6.372 -0.2762  0.0177 -0.2849
  176SAPI   HO319977   6.487   3.011   6.404  0.1415 -0.8122 -1.1737
  176SAPI   C1419978   6.598   2.891   6.212 -0.2982 -0.3420  0.4468
  176SAPI    H419979   6.573   2.807   6.281 -0.5521 -2.1914 -1.8546
  176SAPI    O419980   6.475   2.921   6.134  0.5307  0.2144 -0.0483
  176SAPI   HO419981   6.500   2.983   6.065 -0.2292 -1.4791 -1.8911
  176SAPI   C1519982   6.708   2.842   6.122 -0.5901 -0.2808  0.1705
  176SAPI    H519983   6.730   2.928   6.056  0.2565 -0.1980  0.5572
  176SAPI    O519984   6.677   2.732   6.037  0.0381  0.4490 -0.6099
  176SAPI   HO519985   6.636   2.659   6.084 -1.8689  0.6432 -1.8959
  176SAPI   C1619986   6.837   2.814   6.199 -0.2911  0.1858  0.3517
  176SAPI    H619987   6.811   2.726   6.262  0.0849 -0.7084 -0.7219
  176SAPI    O619988   6.946   2.777   6.109 -0.1772 -0.2191 -0.5933
  176SAPI   HO619989   6.995   2.853   6.079 -1.0886  1.2529  1.5310
  176SAPI   C1119990   6.881   2.936   6.287  0.2252 -0.0213  0.2240
  176SAPI    H119991   6.905   3.012   6.210  2.1681 -1.6288 -0.8090
  176SAPI     P19992   7.126   2.988   6.402 -0.1748  0.5280 -0.0649
  176SAPI   O1319993   7.161   3.080   6.297 -0.0094 -0.1684  0.1273
  176SAPI   O1419994   7.238   2.901   6.437  0.0952 -0.0804  0.6324
  176SAPI   O1219995   6.998   2.888   6.363  0.4192  0.1064 -0.2300
  176SAPI   O1119996   7.065   3.055   6.533 -0.4640  0.1443 -0.0442
  176SAPI    C119997   7.157   3.144   6.609 -0.2440  0.6290  0.5785
  176SAPI    HA19998   7.233   3.197   6.548 -1.3690  1.9732  0.3294
  176SAPI    HB19999   7.101   3.225   6.659  2.2983  1.2764  2.4469
  176SAPI    C220000   7.214   3.078   6.742  0.4022  0.5369  0.1456
  176SAPI    HS20001   7.249   2.984   6.694  0.9628  1.1918 -0.7542
  176SAPI   O2120002   7.115   3.055   6.835 -0.5139  0.0453 -0.1913
  176SAPI   C2120003   7.132   2.963   6.934 -0.3712  0.3216  0.1636
  176SAPI   O2220004   7.233   2.897   6.955  0.3592 -0.1132 -0.0637
  176SAPI   C2220005   7.012   2.978   7.027  0.4452 -0.7476 -0.8390
  176SAPI   H2R20006   7.023   3.081   7.069  1.4361  0.1409 -3.1588
  176SAPI   H2S20007   6.927   2.975   6.956  0.5280 -2.1399 -0.8907
  176SAPI    C320008   7.344   3.163   6.790  0.8335  0.2564  0.6900
  176SAPI    HX20009   7.300   3.265   6.787 -0.1353 -0.1773  0.2396
  176SAPI    HY20010   7.416   3.165   6.705  0.7810  2.3259  0.6659
  176SAPI   O3120011   7.399   3.135   6.919  0.4361 -0.8071  0.1418
  176SAPI   C3120012   7.505   3.050   6.923  0.0285 -0.7469 -0.2965
  176SAPI   O3220013   7.538   2.975   6.833 -0.0595  0.2272 -0.5260
  176SAPI   C3220014   7.587   3.064   7.052 -0.4216 -0.0868  0.4902
  176SAPI   H2X20015   7.649   3.156   7.042  0.9681 -1.0309  0.3167
  176SAPI   H2Y20016   7.659   2.981   7.056 -1.2230 -1.0139 -2.6107
  176SAPI   C2320017   7.009   2.875   7.139 -0.0970  0.2923  0.1234
  176SAPI   H3R20018   7.018   2.774   7.093 -2.4875 -0.2134  0.7018
  176SAPI   H3S20019   6.916   2.896   7.196  1.3167 -0.1894  2.6996
  176SAPI   C2420020   7.118   2.875   7.250 -0.3538 -0.0254  0.8889
  176SAPI   H4R20021   7.218   2.847   7.210 -0.3243 -0.9703  1.6149
  176SAPI   H4S20022   7.083   2.794   7.317  1.0516 -1.5618 -0.1832
  176SAPI   C2520023   7.127   3.003   7.319  0.1405  0.4035  0.1960
  176SAPI   H5R20024   7.186   3.073   7.258 -0.6168  1.7794  1.0163
  176SAPI   C2620025   7.066   3.044   7.433 -0.0035  0.5414  0.1371
  176SAPI   H6R20026   7.077   3.148   7.470  0.9911  0.9371 -1.2262
  176SAPI   C2720027   6.987   2.950   7.521  0.3713 -0.0570  0.4972
  176SAPI   H7R20028   7.050   2.876   7.574 -0.4379  0.5991  2.4042
  176SAPI   H7S20029   6.928   2.894   7.445  0.3687 -0.6840  0.9635
  176SAPI   C2820030   6.895   3.017   7.622 -0.5574 -0.0436 -0.3293
  176SAPI   H8R20031   6.831   3.087   7.567 -0.7931  0.9226  1.1536
  176SAPI   C2920032   6.876   2.986   7.752 -0.2729  0.7060  0.2681
  176SAPI   H9R20033   6.802   3.045   7.808  1.2730  0.0404  3.0974
  176SAPI  C21020034   6.953   2.886   7.828  0.0920  0.0397 -0.2109
  176SAPI  H10R20035   6.960   2.927   7.930 -2.8196  0.0118  0.0606
  176SAPI  H10S20036   7.055   2.901   7.789 -0.4089  0.2662 -1.4652
  176SAPI  C21120037   6.909   2.747   7.811  0.3283  0.4301 -0.4258
  176SAPI  H11R20038   6.949   2.703   7.718  0.8103 -0.0478  0.0034
  176SAPI  C21220039   6.815   2.678   7.873 -0.0209  0.2800  0.7794
  176SAPI  H12R20040   6.800   2.577   7.833 -0.5985  0.1802  1.2477
  176SAPI  C21320041   6.748   2.719   8.002 -0.3505 -0.3816  0.3720
  176SAPI  H13R20042   6.750   2.830   8.011 -0.4411 -0.1618 -2.0601
  176SAPI  H13S20043   6.807   2.680   8.088  0.9859  0.1990 -0.2748
  176SAPI  C21420044   6.600   2.677   8.012  0.3277 -0.4715  0.0095
  176SAPI  H14R20045   6.586   2.576   7.971  2.0105 -0.7584  0.1141
  176SAPI  C21520046   6.500   2.750   8.066  0.1080  0.0862  0.8902
  176SAPI  H15R20047   6.400   2.705   8.075 -0.7009  1.5372 -0.5500
  176SAPI  C21620048   6.522   2.887   8.121 -0.1358  0.0529 -1.5197
  176SAPI  H16R20049   6.607   2.886   8.192 -0.9025  0.4008 -0.5882
  176SAPI  H16S20050   6.428   2.897   8.180  0.6779  2.4443 -0.5624
  176SAPI  C21720051   6.532   3.005   8.023  0.0818  0.8380 -0.1984
  176SAPI  H17R20052   6.432   3.008   7.976 -0.0966 -3.0620 -0.2777
  176SAPI  H17S20053   6.610   2.986   7.946 -1.8782  0.4655 -2.1178
  176SAPI  C21820054   6.570   3.140   8.086 -0.1113  0.6260  0.3915
  176SAPI  H18R20055   6.528   3.146   8.189 -0.2234  0.7431  0.3401
  176SAPI  H18S20056   6.522   3.222   8.029 -1.4147  0.7916  1.6758
  176SAPI  C21920057   6.724   3.157   8.104  0.2566 -0.5265  0.1249
  176SAPI  H19R20058   6.770   3.131   8.007 -1.0629  0.6215 -0.8174
  176SAPI  H19S20059   6.763   3.085   8.180  0.0865 -0.0855  0.6299
  176SAPI  C22020060   6.753   3.294   8.159 -0.0057  0.3987 -0.1719
  176SAPI  H20R20061   6.700   3.379   8.111 -0.3560 -0.4081 -1.2250
  176SAPI  H20S20062   6.861   3.319   8.162 -0.2761  1.4948  1.4753
  176SAPI  H20T20063   6.720   3.302   8.265 -0.3819  0.6299 -0.3072
  176SAPI   C3320064   7.488   3.054   7.174 -0.4402 -0.2144 -0.4127
  176SAPI   H3X20065   7.413   2.972   7.170 -0.4785 -0.2062  0.0658
  176SAPI   H3Y20066   7.424   3.144   7.172  1.6502  1.2675 -1.9805
  176SAPI   C3420067   7.568   3.048   7.309  0.3861  0.2677  0.2931
  176SAPI   H4X20068   7.644   3.129   7.310  0.0811  0.6451 -2.4588
  176SAPI   H4Y20069   7.635   2.960   7.304  0.4812  0.2630  1.5349
  176SAPI   C3520070   7.483   3.064   7.437  0.0551  0.0851  0.8100
  176SAPI   H5X20071   7.402   2.988   7.447  1.4410 -1.4771  0.3941
  176SAPI   H5Y20072   7.422   3.157   7.441 -1.6726 -0.9169 -0.8894
  176SAPI   C3620073   7.578   3.044   7.559  0.6703 -0.5277  0.4165
  176SAPI   H6X20074   7.642   3.134   7.569 -0.3598  0.5890 -2.5663
  176SAPI   H6Y20075   7.646   2.957   7.545  3.1545  0.9061  2.9083
  176SAPI   C3720076   7.496   3.021   7.688  0.0673  0.0655 -0.3249
  176SAPI   H7X20077   7.450   2.920   7.693  2.9587 -1.3291 -0.5564
  176SAPI   H7Y20078   7.421   3.103   7.682 -0.5173 -0.5743 -2.0720
  176SAPI   C3820079   7.576   3.037   7.820 -0.2417 -0.1040  0.2913
  176SAPI   H8X20080   7.641   2.950   7.844  0.5895 -0.0100 -1.5097
  176SAPI   H8Y20081   7.495   3.044   7.895 -0.2909  2.7651  0.0571
  176SAPI   C3920082   7.662   3.161   7.830  0.0294  0.1349  0.0111
  176SAPI   H9X20083   7.615   3.255   7.793 -1.0196 -1.6444 -3.3252
  176SAPI   H9Y20084   7.747   3.148   7.760  1.0597  0.3029  1.2162
  176SAPI  C31020085   7.730   3.193   7.966 -0.6200 -0.1886 -0.7843
  176SAPI  H10X20086   7.826   3.248   7.958 -0.1935 -1.0691 -1.7453
  176SAPI  H10Y20087   7.750   3.100   8.023  0.7246  0.9342  0.6179
  176SAPI  C31120088   7.650   3.281   8.067 -0.3634 -0.1273  0.4082
  176SAPI  H11X20089   7.544   3.250   8.076 -0.9360  1.7824  0.3558
  176SAPI  H11Y20090   7.633   3.376   8.011 -1.0298 -1.5356 -1.8799
  176SAPI  C31220091   7.718   3.302   8.204  0.1423 -0.9707  0.9059
  176SAPI  H12X20092   7.654   3.371   8.263 -1.4749  0.3767 -2.2917
  176SAPI  H12Y20093   7.822   3.340   8.200  0.1058 -0.9659 -0.0905
  176SAPI  C31320094   7.723   3.165   8.279  0.0510 -0.1512  0.0216
  176SAPI  H13X20095   7.782   3.091   8.222 -0.1748  0.9116 -1.6382
  176SAPI  H13Y20096   7.620   3.124   8.290 -0.5101  0.3869 -2.7689
  176SAPI  C31420097   7.798   3.160   8.413 -0.5476  0.5152 -0.8417
  176SAPI  H14X20098   7.769   3.243   8.480  1.1755  1.6509 -1.4689
  176SAPI  H14Y20099   7.901   3.190   8.383 -1.0838  0.2191 -3.1099
  176SAPI  C31520100   7.784   3.022   8.486 -0.2609 -0.0897 -0.0627
  176SAPI  H15X20101   7.827   2.945   8.418 -0.6771  2.0167 -2.8048
  176SAPI  H15Y20102   7.680   2.986   8.493  0.2014 -1.0563  1.9520
  176SAPI  C31620103   7.839   3.029   8.629  0.7670  0.1531 -0.4409
  176SAPI  H16X20104   7.851   2.924   8.663 -0.2015  0.2845  0.3133
  176SAPI  H16Y20105   7.766   3.076   8.699  0.1963 -0.5505 -0.5593
  176SAPI  C31720106   7.975   3.101   8.647  0.5618  0.1086  0.0156
  176SAPI  H17X20107   7.951   3.204   8.613 -0.1201 -0.0939 -0.1140
  176SAPI  H17Y20108   8.051   3.058   8.578 -1.1266 -2.1025 -0.5050
  176SAPI  C31820109   8.030   3.091   8.786  0.6411  0.6148 -0.4353
  176SAPI  H18X20110   8.139   3.112   8.789  0.3686  2.0258  0.1339
  176SAPI  H18Y20111   8.014   2.997   8.842  0.2932  1.5001  0.9847
  176SAPI  H18Z20112   7.980   3.171   8.845 -0.5861 -0.2957 -0.2277
  177SLPC     N20113   0.825   6.672  11.048  0.3090 -0.0149 -0.1371
  177SLPC   C1320114   0.954   6.678  11.126  0.4532  0.3606  0.0187
  177SLPC  H13A20115   1.005   6.772  11.111 -3.1375  2.1895 -1.4377
  177SLPC  H13B20116   0.941   6.687  11.232  0.8823  2.1165 -0.0613
  177SLPC  H13C20117   1.013   6.592  11.097 -0.2418 -0.6591  1.5505
  177SLPC   C1420118   0.744   6.563  11.101 -0.3425 -0.1398 -0.6773
  177SLPC  H14A20119   0.808   6.477  11.117  0.7781  1.0126  1.1272
  177SLPC  H14B20120   0.710   6.597  11.197 -1.3998  0.8861 -1.4068
  177SLPC  H14C20121   0.664   6.537  11.034 -0.4460  0.4709 -0.7873
  177SLPC   C1520122   0.858   6.655  10.903  0.3750  0.7096  0.2748
  177SLPC  H15A20123   0.913   6.736  10.858 -1.1051  1.9640  0.7015
  177SLPC  H15B20124   0.913   6.563  10.886 -1.7730 -0.0610 -3.0640
  177SLPC  H15C20125   0.764   6.655  10.850  1.3298 -0.8239 -1.5191
  177SLPC   C1220126   0.744   6.799  11.079 -0.4515 -0.0611 -0.2418
  177SLPC  H12A20127   0.812   6.882  11.072 -0.0830 -0.5040 -2.0410
  177SLPC  H12B20128   0.704   6.791  11.180  1.5294  0.2312  0.5858
  177SLPC   C1120129   0.618   6.829  11.005  0.4328 -0.0228  0.5513
  177SLPC  H11A20130   0.641   6.789  10.904  0.7959  2.0971 -0.2285
  177SLPC  H11B20131   0.595   6.938  11.005  3.3914  0.6441 -1.0267
  177SLPC     P20132   0.357   6.770  10.996 -0.2367 -0.3382 -0.1584
  177SLPC   O1320133   0.275   6.671  11.061  0.4738  0.6699  0.1345
  177SLPC   O1420134   0.310   6.909  11.015 -0.2800 -0.3620 -0.0875
  177SLPC   O1220135   0.506   6.761  11.060 -0.2988 -0.0613 -0.0881
  177SLPC   O1120136   0.365   6.726  10.838 -0.2624 -0.2005 -0.2125
  177SLPC    C120137   0.381   6.588  10.803  0.8301 -0.2082  0.4430
  177SLPC    HA20138   0.480   6.555  10.842  0.1104 -0.3069  2.2392
  177SLPC    HB20139   0.301   6.527  10.851 -0.1447  0.3802 -0.4183
  177SLPC    C220140   0.390   6.570  10.653  0.2012 -0.3198 -0.7693
  177SLPC    HS20141   0.425   6.469  10.623  0.5869 -0.0149 -1.3532
  177SLPC   O2120142   0.488   6.657  10.590  0.1136 -0.4725 -0.3206
  177SLPC   C2120143   0.619   6.653  10.627  0.0710  0.5240  0.1437
  177SLPC   O2220144   0.672   6.565  10.692 -0.2256 -0.1902  0.5197
  177SLPC   C2220145   0.700   6.770  10.564 -0.2181 -0.1395 -0.2800
  177SLPC   H2R20146   0.638   6.821  10.487  1.3023  0.2769 -1.2562
  177SLPC   H2S20147   0.709   6.840  10.650 -3.8672 -0.9764  0.8770
  177SLPC    C320148   0.248   6.596  10.589  0.3336 -0.0334  0.3975
  177SLPC    HX20149   0.214   6.701  10.604  0.1206  0.3763 -2.6496
  177SLPC    HY20150   0.173   6.549  10.656  1.4373 -1.1085  0.8954
  177SLPC   O3120151   0.241   6.542  10.454  0.2078 -0.2460  0.1527
  177SLPC   C3120152   0.205   6.626  10.358 -0.4943 -0.4145 -0.3270
  177SLPC   O3220153   0.161   6.735  10.376 -0.1788  0.3396  0.2582
  177SLPC   C3220154   0.214   6.573  10.217  0.2608 -0.2892  0.6311
  177SLPC   H2X20155   0.157   6.637  10.147 -0.1308 -0.5511  0.7100
  177SLPC   H2Y20156   0.163   6.474  10.219  0.9767 -0.6591  0.6895
  177SLPC   C2320157   0.831   6.719  10.505  0.2438  0.7495 -0.2514
  177SLPC   H3R20158   0.900   6.668  10.575  0.7401  1.0801 -0.4923
  177SLPC   H3S20159   0.893   6.806  10.471  1.6573 -0.3789 -0.6137
  177SLPC   C2420160   0.800   6.630  10.384  0.1374 -0.8425  0.1339
  177SLPC   H4R20161   0.724   6.552  10.409 -0.6416  0.0537  0.5891
  177SLPC   H4S20162   0.893   6.584  10.345 -0.5019 -0.4726 -1.9054
  177SLPC   C2520163   0.754   6.719  10.268  1.0246  0.8484 -0.4223
  177SLPC   H5R20164   0.801   6.818  10.280 -0.6485  1.6083  0.0447
  177SLPC   H5S20165   0.643   6.731  10.271  0.6904 -1.3110 -2.3397
  177SLPC   C2620166   0.798   6.676  10.124  0.7050 -0.0390 -0.1242
  177SLPC   H6R20167   0.743   6.586  10.091 -0.0025  0.2684  0.2038
  177SLPC   H6S20168   0.908   6.660  10.125  0.7071  0.0415  1.1074
  177SLPC   C2720169   0.754   6.778  10.022 -0.3897 -0.1482 -0.1075
  177SLPC   H7R20170   0.834   6.855  10.029  1.2818 -2.0312  2.4876
  177SLPC   H7S20171   0.655   6.820  10.053 -1.1221 -0.1849 -2.3280
  177SLPC   C2820172   0.735   6.734   9.880 -0.2357 -0.3814 -0.0348
  177SLPC   H8R20173   0.658   6.654   9.870 -2.8081  1.9035  0.7795
  177SLPC   H8S20174   0.833   6.693   9.850  0.3759  0.0670  1.3091
  177SLPC   C2920175   0.693   6.845   9.795 -1.0655  0.0104 -0.3261
  177SLPC   H9R20176   0.630   6.924   9.838 -1.9375 -0.3998 -0.8272
  177SLPC  C21020177   0.710   6.853   9.662  0.2724 -0.2775  0.0037
  177SLPC  H10R20178   0.673   6.939   9.605  1.2165  1.4476  1.9129
  177SLPC  C21120179   0.785   6.753   9.580  0.6726 -0.2629 -0.1826
  177SLPC  H11R20180   0.860   6.811   9.522 -1.4198  2.2529 -0.4493
  177SLPC  H11S20181   0.836   6.678   9.643 -1.6208 -1.2121  0.6118
  177SLPC  C21220182   0.685   6.679   9.492 -0.6935 -0.2245 -0.8206
  177SLPC  H12R20183   0.613   6.625   9.555  0.7685 -1.8438 -0.5028
  177SLPC  C21320184   0.677   6.674   9.357 -0.0506 -0.3835 -0.1420
  177SLPC  H13R20185   0.600   6.608   9.314  0.2871  0.5979 -2.2893
  177SLPC  C21420186   0.759   6.750   9.261  0.2572  0.2580  0.5731
  177SLPC  H14R20187   0.820   6.683   9.197  2.9701  3.0873  0.0431
  177SLPC  H14S20188   0.829   6.807   9.326 -2.2255  1.6813  2.0811
  177SLPC  C21520189   0.686   6.857   9.176  0.5517  0.9895  0.2278
  177SLPC  H15R20190   0.591   6.877   9.230 -0.1035 -1.2941 -0.0194
  177SLPC  H15S20191   0.658   6.818   9.076  1.3168  0.3857  0.2409
  177SLPC  C21620192   0.762   6.995   9.155 -0.5252 -0.1781 -0.0572
  177SLPC  H16R20193   0.765   7.010   9.045  0.6888  0.2225  0.0265
  177SLPC  H16S20194   0.859   6.986   9.208 -2.2151 -2.0934  2.8253
  177SLPC  C21720195   0.694   7.118   9.233 -0.2419  0.5924  0.6145
  177SLPC  H17R20196   0.778   7.191   9.235  0.4882 -0.2372  1.1585
  177SLPC  H17S20197   0.670   7.091   9.338 -0.6379 -0.7189  0.1971
  177SLPC  C21820198   0.575   7.179   9.165 -0.1256  0.7642 -0.7416
  177SLPC  H18R20199   0.610   7.198   9.062 -0.7470 -0.4391 -1.1881
  177SLPC  H18S20200   0.553   7.278   9.211 -0.2567 -0.3050  1.5552
  177SLPC  H18T20201   0.488   7.109   9.165 -0.1476  0.7879 -0.4182
  177SLPC   C3320202   0.361   6.553  10.179  0.6938 -0.0878 -0.0468
  177SLPC   H3X20203   0.417   6.506  10.263 -1.3283  0.7432  1.8329
  177SLPC   H3Y20204   0.409   6.648  10.146 -0.9371  0.4671 -0.8514
  177SLPC   C3420205   0.369   6.456  10.050  0.1077 -0.1818 -0.1210
  177SLPC   H4X20206   0.363   6.352  10.087 -0.6130  0.2388  0.9606
  177SLPC   H4Y20207   0.471   6.478  10.012  1.0024 -0.5577  2.0085
  177SLPC   C3520208   0.278   6.486   9.926  0.5732 -0.6685  0.2102
  177SLPC   H5X20209   0.278   6.596   9.907 -0.3195 -1.0572 -2.2730
  177SLPC   H5Y20210   0.177   6.461   9.966 -0.2595  1.8304 -0.2472
  177SLPC   C3620211   0.295   6.416   9.799 -0.2408 -0.0184  0.4656
  177SLPC   H6X20212   0.197   6.421   9.748  0.8662  1.2414 -1.6248
  177SLPC   H6Y20213   0.311   6.310   9.827  0.5077 -0.6588 -2.2980
  177SLPC   C3720214   0.415   6.473   9.710  0.8999  0.0808 -0.0397
  177SLPC   H7X20215   0.505   6.489   9.773  0.0678  1.0761  0.9153
  177SLPC   H7Y20216   0.390   6.576   9.678  1.6836  1.0824  2.4212
  177SLPC   C3820217   0.470   6.385   9.592  0.5822  0.8306 -0.2466
  177SLPC   H8X20218   0.484   6.280   9.627  1.0578  0.6530 -0.9504
  177SLPC   H8Y20219   0.565   6.430   9.556  1.5037 -1.7637 -1.2508
  177SLPC   C3920220   0.373   6.397   9.473  0.1954  0.8681  0.2257
  177SLPC   H9X20221   0.400   6.486   9.412 -0.1619  1.1880  0.5309
  177SLPC   H9Y20222   0.267   6.407   9.506  0.1372 -1.1328  0.6658
  177SLPC  C31020223   0.395   6.271   9.387  0.4073 -0.6476 -0.2434
  177SLPC  H10X20224   0.334   6.190   9.434 -3.1177  0.8280 -2.0792
  177SLPC  H10Y20225   0.497   6.228   9.385 -0.2916 -2.5882  2.4064
  177SLPC  C31120226   0.331   6.293   9.244  0.3781  0.1244 -0.6685
  177SLPC  H11X20227   0.222   6.315   9.250  0.6198  0.5794  2.6673
  177SLPC  H11Y20228   0.352   6.195   9.196  0.5493 -1.7577  3.0401
  177SLPC  C31220229   0.406   6.388   9.154 -0.3249  0.0856  0.7390
  177SLPC  H12X20230   0.513   6.360   9.151  0.0877  1.6894 -0.5248
  177SLPC  H12Y20231   0.408   6.489   9.201  0.8296 -0.1040  1.1111
  177SLPC  C31320232   0.362   6.392   9.008 -0.3505  0.0608 -0.5024
  177SLPC  H13X20233   0.263   6.436   8.984  0.1392  2.6022  1.9176
  177SLPC  H13Y20234   0.374   6.291   8.964  1.7118 -0.9157  2.2001
  177SLPC  C31420235   0.470   6.473   8.927  0.0761  0.0692  0.4029
  177SLPC  H14X20236   0.464   6.440   8.821  1.1606 -0.4064  0.4893
  177SLPC  H14Y20237   0.571   6.442   8.961  0.8052 -0.0328 -1.7609
  177SLPC  C31520238   0.454   6.618   8.951 -0.3913  0.5147  0.1015
  177SLPC  H15X20239   0.499   6.658   9.044  1.6427 -1.3855 -0.0220
  177SLPC  H15Y20240   0.344   6.630   8.965 -0.4262 -2.3809  2.7189
  177SLPC  C31620241   0.503   6.712   8.841  0.4017  0.4063 -0.6340
  177SLPC  H16X20242   0.484   6.816   8.872  2.6708  1.3386 -2.2163
  177SLPC  H16Y20243   0.430   6.702   8.758 -0.4996  1.8702 -0.0149
  177SLPC  C31720244   0.644   6.691   8.814 -0.1692 -0.0332  0.1249
  177SLPC  H17X20245   0.670   6.590   8.777  1.9116  0.5851 -0.1711
  177SLPC  H17Y20246   0.696   6.691   8.912 -0.7829 -2.0711  0.4699
  177SLPC  C31820247   0.701   6.786   8.712 -0.3267  0.5646  0.1221
  177SLPC  H18X20248   0.797   6.745   8.673 -0.6035 -1.9237  1.8938
  177SLPC  H18Y20249   0.718   6.887   8.755  0.3838  1.2865 -1.8344
  177SLPC  H18Z20250   0.647   6.798   8.616  0.6054 -0.0501 -0.4932
  178SLPC     N20251   2.161   2.372  10.905 -0.7605  0.1441  0.0128
  178SLPC   C1320252   2.273   2.405  10.998 -0.5387 -0.0375 -0.7064
  178SLPC  H13A20253   2.368   2.395  10.947 -0.3457  2.7740 -0.9659
  178SLPC  H13B20254   2.267   2.507  11.032  0.5549  0.1773 -1.1413
  178SLPC  H13C20255   2.288   2.334  11.078 -0.5456  0.6704 -0.0797
  178SLPC   C1420256   2.156   2.453  10.781  0.1284  0.1784  0.8851
  178SLPC  H14A20257   2.067   2.437  10.723 -0.6790  0.1541  2.1096
  178SLPC  H14B20258   2.158   2.559  10.801  1.4936 -0.1026  2.4305
  178SLPC  H14C20259   2.243   2.420  10.726 -1.8638 -1.0259 -1.6125
  178SLPC   C1520260   2.038   2.397  10.975 -0.0557 -0.4319 -0.2522
  178SLPC  H15A20261   2.045   2.502  10.998  0.2457 -0.4324 -0.3470
  178SLPC  H15B20262   1.954   2.379  10.908 -0.6300  0.2662  0.2673
  178SLPC  H15C20263   2.039   2.333  11.062 -0.3223  2.3155  1.8375
  178SLPC   C1220264   2.168   2.222  10.871  0.4157 -0.0533 -0.0148
  178SLPC  H12A20265   2.246   2.202  10.799  0.0072 -3.3651  0.4030
  178SLPC  H12B20266   2.074   2.197  10.825  0.2146  0.9723 -0.1710
  178SLPC   C1120267   2.188   2.117  10.975 -0.1808  0.0707 -0.6359
  178SLPC  H11A20268   2.278   2.144  11.035 -1.7394  1.0765  1.2771
  178SLPC  H11B20269   2.236   2.029  10.927 -0.0588  0.0329 -0.4423
  178SLPC     P20270   1.969   1.982  10.995  0.0973  0.0757  0.0424
  178SLPC   O1320271   2.030   1.856  11.015  0.1673  0.4928 -0.0975
  178SLPC   O1420272   1.838   2.004  11.059 -0.4591  0.0637  0.4000
  178SLPC   O1220273   2.063   2.099  11.043  0.0647 -0.2514  0.0079
  178SLPC   O1120274   1.955   2.004  10.841 -0.0307 -0.7946  0.7309
  178SLPC    C120275   1.921   1.902  10.746  0.2735 -0.4937 -0.1793
  178SLPC    HA20276   1.885   1.811  10.799 -2.9400  3.3526  4.7275
  178SLPC    HB20277   1.833   1.933  10.685  1.1661  1.4923 -0.4877
  178SLPC    C220278   2.038   1.870  10.649 -0.0163  0.2524 -0.0374
  178SLPC    HS20279   2.130   1.873  10.712  1.1615  2.1746 -1.7805
  178SLPC   O2120280   2.038   1.977  10.554  0.3656  0.1302 -0.5100
  178SLPC   C2120281   2.134   2.069  10.576  0.1802  0.3057 -0.1529
  178SLPC   O2220282   2.223   2.070  10.660 -0.0902 -0.1630  0.0665
  178SLPC   C2220283   2.111   2.189  10.479  0.0152 -0.5730 -1.1648
  178SLPC   H2R20284   2.033   2.247  10.533  0.6784 -1.1184  0.4293
  178SLPC   H2S20285   2.210   2.239  10.471  0.9860 -2.4939 -1.7215
  178SLPC    C320286   2.035   1.726  10.590  0.0036 -0.4241  0.0779
  178SLPC    HX20287   2.061   1.661  10.677  0.9189 -3.0623 -2.0621
  178SLPC    HY20288   2.127   1.710  10.530 -0.8147  1.0744 -1.5957
  178SLPC   O3120289   1.928   1.686  10.517 -0.1360  0.0192  0.2893
  178SLPC   C3120290   1.930   1.735  10.388  0.0171  0.4166  0.5201
  178SLPC   O3220291   2.015   1.794  10.334 -1.2106 -0.8297  0.5557
  178SLPC   C3220292   1.792   1.699  10.329 -0.1783  0.0216  0.4901
  178SLPC   H2X20293   1.716   1.705  10.410 -2.2096  3.0009 -1.4977
  178SLPC   H2Y20294   1.800   1.591  10.303  1.8626 -0.0632  1.3833
  178SLPC   C2320295   2.072   2.149  10.337 -0.3693  0.1307 -0.2331
  178SLPC   H3R20296   1.969   2.110  10.326 -0.5294  0.9132 -1.7451
  178SLPC   H3S20297   2.132   2.058  10.315 -0.9315 -0.4146  0.4740
  178SLPC   C2420298   2.114   2.242  10.229  0.3991  0.3936 -0.5233
  178SLPC   H4R20299   2.224   2.254  10.232  0.4268  0.3542 -1.2611
  178SLPC   H4S20300   2.059   2.339  10.237  0.2949  0.3426 -0.6177
  178SLPC   C2520301   2.066   2.187  10.090 -0.1041 -0.0462 -0.2844
  178SLPC   H5R20302   1.957   2.208  10.088 -0.3096 -0.8308  2.0076
  178SLPC   H5S20303   2.050   2.077  10.090 -1.2034  0.0913 -1.7708
  178SLPC   C2620304   2.140   2.248   9.973  0.3195  0.1163  0.2866
  178SLPC   H6R20305   2.251   2.238   9.971  0.1304 -1.9975 -0.1891
  178SLPC   H6S20306   2.120   2.357   9.965 -1.8878 -0.4614 -2.8896
  178SLPC   C2720307   2.089   2.189   9.844  0.4088 -0.2673 -0.1780
  178SLPC   H7R20308   1.992   2.237   9.822 -0.5198 -1.1264  1.8640
  178SLPC   H7S20309   2.066   2.082   9.867 -0.8762 -0.0514 -0.4297
  178SLPC   C2820310   2.189   2.190   9.729  0.5409 -0.0965 -0.5730
  178SLPC   H8R20311   2.286   2.144   9.758  0.7426  2.0890  2.4416
  178SLPC   H8S20312   2.229   2.293   9.730  0.6622 -0.1468 -0.0820
  178SLPC   C2920313   2.137   2.154   9.595  0.3563  0.1261 -0.2381
  178SLPC   H9R20314   2.081   2.059   9.587 -0.0465  0.2809  0.6659
  178SLPC  C21020315   2.145   2.227   9.483 -0.4283 -0.0991 -0.3382
  178SLPC  H10R20316   2.102   2.183   9.392 -3.3539  2.5759 -0.3324
  178SLPC  C21120317   2.227   2.362   9.453  0.6520  0.6120 -0.4386
  178SLPC  H11R20318   2.252   2.354   9.345 -2.3740  0.0465 -1.1572
  178SLPC  H11S20319   2.324   2.379   9.503  0.0967 -0.0944  0.8954
  178SLPC  C21220320   2.149   2.487   9.480  0.3600  0.3727  0.2384
  178SLPC  H12R20321   2.159   2.528   9.582  0.2184  2.9885 -0.7513
  178SLPC  C21320322   2.052   2.548   9.399  0.5180  0.8297 -0.0349
  178SLPC  H13R20323   2.001   2.636   9.441  0.2000  0.4463  0.3861
  178SLPC  C21420324   2.010   2.516   9.258  0.2241  0.4677  0.0882
  178SLPC  H14R20325   1.909   2.471   9.266  1.3020 -2.0851 -0.2690
  178SLPC  H14S20326   2.072   2.430   9.224  0.4842  1.1190 -1.0976
  178SLPC  C21520327   2.000   2.618   9.143  0.9030  1.1285 -0.8086
  178SLPC  H15R20328   2.069   2.703   9.159 -1.0909  2.2722  1.9877
  178SLPC  H15S20329   1.903   2.670   9.153 -0.4672 -1.1218 -1.9163
  178SLPC  C21620330   2.025   2.545   9.002  1.4459 -0.3225  0.3396
  178SLPC  H16R20331   1.954   2.464   8.975  0.2160  0.8301  0.0181
  178SLPC  H16S20332   2.129   2.507   9.001  0.7342 -2.3121  0.4419
  178SLPC  C21720333   1.998   2.649   8.894  0.4790  0.2888  0.0784
  178SLPC  H17R20334   2.088   2.714   8.888  1.5066 -1.0366  0.7011
  178SLPC  H17S20335   1.920   2.723   8.922 -1.1084 -1.1223 -0.4722
  178SLPC  C21820336   1.965   2.588   8.756 -0.4776 -0.6990  0.2693
  178SLPC  H18R20337   1.950   2.659   8.672  0.8872 -1.9782 -1.0730
  178SLPC  H18S20338   1.868   2.537   8.776 -0.5658 -0.3577  0.7133
  178SLPC  H18T20339   2.038   2.508   8.735  1.5815  0.3176  3.1768
  178SLPC   C3320340   1.749   1.787  10.205  0.1426  0.0942  0.2604
  178SLPC   H3X20341   1.776   1.892  10.232  0.4671  0.9035 -2.9438
  178SLPC   H3Y20342   1.638   1.793  10.208  0.1352 -0.6508  1.6683
  178SLPC   C3420343   1.815   1.744  10.075  0.7906 -0.6808  0.3122
  178SLPC   H4X20344   1.797   1.636  10.056  1.7052 -0.7437 -0.2388
  178SLPC   H4Y20345   1.923   1.766  10.092  0.9496  1.4761 -2.9655
  178SLPC   C3520346   1.755   1.822   9.949 -0.0586 -0.3460 -0.1255
  178SLPC   H5X20347   1.750   1.930   9.971  1.2616  0.4489 -3.5110
  178SLPC   H5Y20348   1.648   1.794   9.936 -0.2903  1.0861 -1.3507
  178SLPC   C3620349   1.819   1.788   9.822 -0.1612 -0.7104  0.1939
  178SLPC   H6X20350   1.818   1.679   9.803  1.4649 -0.6578 -0.2714
  178SLPC   H6Y20351   1.924   1.825   9.817 -1.1807  2.2022 -0.9662
  178SLPC   C3720352   1.747   1.867   9.707  0.4788  0.0079 -0.8795
  178SLPC   H7X20353   1.757   1.977   9.715 -1.9705  0.2494 -0.7504
  178SLPC   H7Y20354   1.637   1.851   9.696 -0.3547  3.2594  1.8336
  178SLPC   C3820355   1.800   1.829   9.571 -0.1247  0.0025  0.0584
  178SLPC   H8X20356   1.780   1.720   9.567 -0.2110  0.0747 -1.5594
  178SLPC   H8Y20357   1.910   1.844   9.568 -0.3543  1.8922 -0.0240
  178SLPC   C3920358   1.736   1.897   9.447 -0.5484 -0.6308  0.3811
  178SLPC   H9X20359   1.749   2.007   9.450 -1.9519 -0.4858  1.5078
  178SLPC   H9Y20360   1.625   1.892   9.453 -0.7129 -0.5676 -2.2102
  178SLPC  C31020361   1.794   1.841   9.316 -0.2172  0.1281 -1.2886
  178SLPC  H10X20362   1.798   1.730   9.320 -1.4513  0.0678 -1.5414
  178SLPC  H10Y20363   1.898   1.876   9.301  0.1868 -0.0945  0.8264
  178SLPC  C31120364   1.706   1.888   9.202  0.4089 -0.1727  0.0121
  178SLPC  H11X20365   1.719   1.998   9.197  1.1952 -0.2750 -0.2282
  178SLPC  H11Y20366   1.601   1.855   9.220  0.3127 -0.3991 -0.9554
  178SLPC  C31220367   1.744   1.838   9.067 -1.1623  0.2370  0.2213
  178SLPC  H12X20368   1.730   1.728   9.058 -0.0644  0.0903  0.2858
  178SLPC  H12Y20369   1.851   1.858   9.050 -1.7140 -0.1710 -4.2001
  178SLPC  C31320370   1.669   1.899   8.943  0.4997  0.0358 -0.0189
  178SLPC  H13X20371   1.563   1.865   8.947  0.6771 -0.5240  0.0211
  178SLPC  H13Y20372   1.707   1.859   8.846  0.5785  3.1633 -1.3308
  178SLPC  C31420373   1.680   2.048   8.926  0.1138  0.2254  0.1373
  178SLPC  H14X20374   1.789   2.063   8.906 -0.3676  0.0807 -2.8559
  178SLPC  H14Y20375   1.658   2.099   9.022 -0.5307 -0.7155  0.4897
  178SLPC  C31520376   1.592   2.098   8.805  0.1060  0.1896  1.0989
  178SLPC  H15X20377   1.612   2.026   8.723 -0.2414 -0.1240  1.2903
  178SLPC  H15Y20378   1.486   2.091   8.835 -0.3285 -0.1593 -0.4932
  178SLPC  C31620379   1.616   2.246   8.765 -0.2686 -0.4031 -0.3015
  178SLPC  H16X20380   1.568   2.252   8.665  0.7344  1.8946 -0.6812
  178SLPC  H16Y20381   1.725   2.269   8.764 -0.1201 -1.0919 -0.5336
  178SLPC  C31720382   1.547   2.336   8.867  0.1058 -0.0339  0.3824
  178SLPC  H17X20383   1.570   2.308   8.972  0.7263  0.1753  0.3042
  178SLPC  H17Y20384   1.442   2.300   8.868  0.1393 -0.1791 -0.9114
  178SLPC  C31820385   1.545   2.486   8.832 -0.5344  0.3669  0.3290
  178SLPC  H18X20386   1.473   2.550   8.888  0.2942 -0.0691  1.9231
  178SLPC  H18Y20387   1.507   2.479   8.728  0.7959 -2.0217 -0.0268
  178SLPC  H18Z20388   1.642   2.539   8.826 -0.5821  0.2775 -1.4460
  179SLPC     N20389   3.640   5.875  10.453 -0.4544 -0.3177 -0.2387
  179SLPC   C1320390   3.508   5.932  10.417 -0.9715 -0.6656 -0.1144
  179SLPC  H13A20391   3.501   5.976  10.319 -0.4804  0.6757  0.4432
  179SLPC  H13B20392   3.437   5.850  10.417 -0.6574 -0.9394  0.7542
  179SLPC  H13C20393   3.471   5.997  10.495 -0.9743 -0.8124  0.0060
  179SLPC   C1420394   3.625   5.781  10.571  0.4606 -0.3551  0.7054
  179SLPC  H14A20395   3.725   5.757  10.601  1.2255  1.5109 -0.2700
  179SLPC  H14B20396   3.571   5.819  10.656 -0.0211 -0.9383  0.6646
  179SLPC  H14C20397   3.588   5.683  10.544 -0.0956  0.2389 -0.7614
  179SLPC   C1520398   3.731   5.988  10.492  0.6429  0.2294  0.0750
  179SLPC  H15A20399   3.833   5.955  10.502 -0.3635 -3.1171 -0.2496
  179SLPC  H15B20400   3.724   6.064  10.415 -1.1497 -1.2932 -1.2959
  179SLPC  H15C20401   3.704   6.029  10.589  3.0393 -0.6577  1.1618
  179SLPC   C1220402   3.707   5.793  10.342  0.5881 -0.6370  0.1586
  179SLPC  H12A20403   3.721   5.859  10.258 -2.2562  0.4039  0.4683
  179SLPC  H12B20404   3.637   5.715  10.318 -0.7767  1.2097 -1.9536
  179SLPC   C1120405   3.845   5.732  10.371 -0.3951  0.9332  0.5571
  179SLPC  H11A20406   3.869   5.660  10.289  2.1023  2.3955 -0.0765
  179SLPC  H11B20407   3.834   5.666  10.459 -0.7945 -2.2372 -1.7573
  179SLPC     P20408   4.098   5.814  10.366 -0.0367 -0.2840 -0.0673
  179SLPC   O1320409   4.168   5.883  10.477  0.1755  0.0126 -0.1670
  179SLPC   O1420410   4.134   5.672  10.361  0.0256 -0.4812  0.0435
  179SLPC   O1220411   3.946   5.834  10.386 -0.5401  0.5819  0.0711
  179SLPC   O1120412   4.132   5.885  10.239 -0.2377  0.0743  0.4169
  179SLPC    C120413   4.040   5.961  10.157  0.1275  0.1697  0.2297
  179SLPC    HA20414   3.967   6.020  10.217 -0.9236 -1.3436  0.4735
  179SLPC    HB20415   4.103   6.035  10.103 -0.2227 -1.1950 -2.1386
  179SLPC    C220416   3.963   5.871  10.060 -0.2693 -0.1985  0.6765
  179SLPC    HS20417   3.918   5.786  10.115 -0.0752 -0.5105  0.3524
  179SLPC   O2120418   4.051   5.825   9.955 -0.4002 -0.4917 -0.6024
  179SLPC   C2120419   4.050   5.697   9.938 -0.0031 -0.1002 -0.8210
  179SLPC   O2220420   3.986   5.616   9.997  0.3187 -0.2654  0.2115
  179SLPC   C2220421   4.137   5.669   9.813  0.4196  0.3257  0.7291
  179SLPC   H2R20422   4.187   5.765   9.789  1.1163 -0.9899 -3.5104
  179SLPC   H2S20423   4.208   5.588   9.841  1.0914  0.9847  0.9491
  179SLPC    C320424   3.845   5.959   9.991 -0.4337  0.1553 -0.3302
  179SLPC    HX20425   3.900   6.052   9.966 -1.1914 -0.4218 -4.4400
  179SLPC    HY20426   3.770   5.975  10.072 -1.6843  1.2698 -1.7032
  179SLPC   O3120427   3.793   5.892   9.869 -0.2922 -0.5323  0.2588
  179SLPC   C3120428   3.676   5.834   9.873 -0.0732  0.1395 -0.1917
  179SLPC   O3220429   3.595   5.830   9.961  0.2029 -0.1111 -0.1028
  179SLPC   C3220430   3.650   5.781   9.735 -0.2586 -0.7397 -0.2731
  179SLPC   H2X20431   3.748   5.742   9.700  0.1190 -1.1679  1.2209
  179SLPC   H2Y20432   3.631   5.870   9.671  2.0084  0.8220  1.1742
  179SLPC   C2320433   4.055   5.628   9.687  1.0271  0.1024 -0.2178
  179SLPC   H3R20434   3.991   5.716   9.660 -0.7750 -1.0462  0.2353
  179SLPC   H3S20435   3.984   5.548   9.716  0.6147  0.8523  0.8978
  179SLPC   C2420436   4.138   5.594   9.562 -0.2922  0.0947  0.5045
  179SLPC   H4R20437   4.216   5.517   9.578 -0.0420  0.4135  0.8111
  179SLPC   H4S20438   4.189   5.687   9.530 -0.9109  0.1491 -0.3493
  179SLPC   C2520439   4.058   5.544   9.439  0.3256  0.3859 -0.5272
  179SLPC   H5R20440   3.964   5.602   9.442  0.2900  0.2574  2.2946
  179SLPC   H5S20441   4.030   5.436   9.442  5.5585 -1.0857  1.7186
  179SLPC   C2620442   4.125   5.563   9.300  0.0946  0.1761 -0.1618
  179SLPC   H6R20443   4.223   5.513   9.287  0.8776  1.7868 -0.5524
  179SLPC   H6S20444   4.134   5.672   9.280  2.1430  0.3724  1.6223
  179SLPC   C2720445   4.025   5.514   9.196  0.0273  0.2018 -0.4007
  179SLPC   H7R20446   3.935   5.579   9.203 -0.8064 -1.0040  0.3749
  179SLPC   H7S20447   4.004   5.406   9.212  0.2120 -0.0708 -1.9839
  179SLPC   C2820448   4.068   5.550   9.052 -0.3985  0.2205  0.3036
  179SLPC   H8R20449   4.082   5.660   9.050 -3.6581  0.6668 -0.6189
  179SLPC   H8S20450   3.976   5.539   8.991  0.5126 -0.8878 -0.8913
  179SLPC   C2920451   4.178   5.470   8.983 -0.0319 -0.0491 -0.3565
  179SLPC   H9R20452   4.269   5.461   9.044 -0.2956  2.3278  0.4374
  179SLPC  C21020453   4.174   5.411   8.863  0.3595 -0.5159 -0.3491
  179SLPC  H10R20454   4.269   5.358   8.841  0.1388 -1.2333  0.4152
  179SLPC  C21120455   4.058   5.423   8.759 -0.0295 -1.3308  0.6162
  179SLPC  H11R20456   4.108   5.446   8.662 -2.2207 -2.6502 -0.8837
  179SLPC  H11S20457   4.006   5.517   8.787  1.1066 -0.6902  0.6112
  179SLPC  C21220458   3.959   5.307   8.746 -0.4346 -0.7767  0.0973
  179SLPC  H12R20459   3.964   5.222   8.815 -2.8927 -0.4068  0.8121
  179SLPC  C21320460   3.862   5.296   8.646  0.7387  0.0379  0.6367
  179SLPC  H13R20461   3.780   5.224   8.658  0.5339  0.3289  0.9935
  179SLPC  C21420462   3.838   5.410   8.544  0.2975 -0.2185  0.3340
  179SLPC  H14R20463   3.917   5.410   8.466  0.5695  2.7153  0.5543
  179SLPC  H14S20464   3.842   5.510   8.593 -0.8021  0.4763 -1.0002
  179SLPC  C21520465   3.700   5.396   8.473  0.1798 -0.2217 -0.1124
  179SLPC  H15R20466   3.621   5.384   8.551 -0.5422 -0.0320 -0.8058
  179SLPC  H15S20467   3.699   5.302   8.415  2.9873 -0.0279 -0.5261
  179SLPC  C21620468   3.644   5.514   8.394  0.1438 -0.1732  0.1094
  179SLPC  H16R20469   3.725   5.537   8.323 -0.2164  2.4337  0.4740
  179SLPC  H16S20470   3.635   5.602   8.461 -0.5442 -1.5273  1.8325
  179SLPC  C21720471   3.510   5.469   8.321 -0.3573  0.0861  0.4647
  179SLPC  H17R20472   3.425   5.478   8.392 -0.1516  0.7734  0.6321
  179SLPC  H17S20473   3.526   5.363   8.295 -0.2169  0.3583 -0.5791
  179SLPC  C21820474   3.493   5.553   8.198  0.0402 -0.2172 -0.4634
  179SLPC  H18R20475   3.590   5.553   8.145  0.5570  1.5092  0.4315
  179SLPC  H18S20476   3.453   5.653   8.227  0.2383  0.1887 -1.5776
  179SLPC  H18T20477   3.417   5.508   8.131  1.4771  0.0137 -2.2823
  179SLPC   C3320478   3.532   5.682   9.722  0.5013 -0.6617  0.5145
  179SLPC   H3X20479   3.437   5.720   9.767  0.7875  0.8033 -0.1246
  179SLPC   H3Y20480   3.556   5.593   9.784  0.3538 -1.4213 -0.5049
  179SLPC   C3420481   3.509   5.635   9.573  0.1659  0.1326 -0.3813
  179SLPC   H4X20482   3.456   5.722   9.528 -3.6504 -1.4363  0.8744
  179SLPC   H4Y20483   3.441   5.548   9.584  1.1000 -0.6270 -0.5313
  179SLPC   C3520484   3.630   5.590   9.491 -0.4563  0.8650 -0.0244
  179SLPC   H5X20485   3.682   5.525   9.564 -1.9350 -0.2643  0.0546
  179SLPC   H5Y20486   3.686   5.683   9.469  0.2986 -0.0510 -2.0693
  179SLPC   C3620487   3.591   5.520   9.362  0.1827 -0.3922 -0.6664
  179SLPC   H6X20488   3.679   5.498   9.299  1.0874 -1.9630  1.1293
  179SLPC   H6Y20489   3.519   5.585   9.306 -0.0837  0.2860  0.4569
  179SLPC   C3720490   3.524   5.384   9.395 -0.6317 -0.7929 -0.4777
  179SLPC   H7X20491   3.443   5.395   9.471  1.7590 -0.5294  2.1019
  179SLPC   H7Y20492   3.613   5.336   9.441  1.9194  2.2843 -2.0312
  179SLPC   C3820493   3.470   5.312   9.274  0.3276  0.2099  0.2592
  179SLPC   H8X20494   3.559   5.287   9.212  0.6697  0.2362  0.7386
  179SLPC   H8Y20495   3.397   5.376   9.220  0.5634 -0.0129 -0.3231
  179SLPC   C3920496   3.402   5.183   9.320  0.0680 -0.0916  0.0212
  179SLPC   H9X20497   3.321   5.213   9.390  0.6218 -1.3689  1.2374
  179SLPC   H9Y20498   3.482   5.125   9.371  1.0789 -1.2256 -2.7557
  179SLPC  C31020499   3.345   5.098   9.204 -0.7546  0.1453  0.6549
  179SLPC  H10X20500   3.332   4.992   9.233 -0.7189 -0.4997 -1.5889
  179SLPC  H10Y20501   3.415   5.096   9.118  0.2847  3.6883  1.3257
  179SLPC  C31120502   3.203   5.154   9.158 -0.7032  0.3078 -0.5368
  179SLPC  H11X20503   3.215   5.260   9.127  2.1370  0.5420  1.2037
  179SLPC  H11Y20504   3.138   5.145   9.247  2.6302 -1.5628  1.8193
  179SLPC  C31220505   3.135   5.086   9.036 -0.5301  0.0788  0.5197
  179SLPC  H12X20506   3.053   5.149   8.996  0.6909  1.1108 -0.4201
  179SLPC  H12Y20507   3.092   4.985   9.053 -0.2183 -0.1110  0.1858
  179SLPC  C31320508   3.227   5.068   8.916 -0.1035 -0.3818  0.1071
  179SLPC  H13X20509   3.305   4.995   8.950  0.7098  0.7743  0.7655
  179SLPC  H13Y20510   3.294   5.154   8.893 -1.0915  0.6501  1.0484
  179SLPC  C31420511   3.159   5.014   8.790  0.1566 -0.3489  0.6997
  179SLPC  H14X20512   3.072   5.081   8.775  1.3247  1.2940  1.0944
  179SLPC  H14Y20513   3.122   4.912   8.815 -3.1055  0.3609 -0.9977
  179SLPC  C31520514   3.242   5.003   8.662  0.2507  0.1539  0.2356
  179SLPC  H15X20515   3.325   4.933   8.686 -0.4572 -0.3179  1.2957
  179SLPC  H15Y20516   3.270   5.099   8.613 -1.6054  0.0165 -1.1659
  179SLPC  C31620517   3.156   4.957   8.548  0.7629 -0.8419 -0.7977
  179SLPC  H16X20518   3.074   5.032   8.540  0.6850 -0.3363  3.8065
  179SLPC  H16Y20519   3.116   4.854   8.564  1.2454 -0.6340  1.9972
  179SLPC  C31720520   3.240   4.941   8.415  0.2295 -0.3344 -0.2014
  179SLPC  H17X20521   3.323   4.881   8.457  0.0043 -1.4630 -1.3314
  179SLPC  H17Y20522   3.297   5.032   8.388  1.0744  0.7214  4.6821
  179SLPC  C31820523   3.167   4.878   8.294  0.4627  0.3660 -0.3158
  179SLPC  H18X20524   3.103   4.950   8.239  0.9045  0.8960 -0.1418
  179SLPC  H18Y20525   3.109   4.789   8.326  0.6515  0.4812  0.3466
  179SLPC  H18Z20526   3.235   4.832   8.219 -0.8358 -0.5619 -0.9354
  180SLPC     N20527   4.463   3.314  10.997 -1.0784  0.5619  0.2143
  180SLPC   C1320528   4.531   3.271  10.869  0.4885  0.0124  0.2158
  180SLPC  H13A20529   4.550   3.166  10.853  0.9622  0.2392 -0.7001
  180SLPC  H13B20530   4.453   3.301  10.801 -0.2196  3.4030  2.4240
  180SLPC  H13C20531   4.622   3.324  10.848  0.6540  0.5036  2.0749
  180SLPC   C1420532   4.414   3.456  10.988  0.3819  0.2977 -0.4830
  180SLPC  H14A20533   4.485   3.511  10.928  0.4996 -1.4093 -1.9440
  180SLPC  H14B20534   4.331   3.467  10.920 -1.8591  1.0534  2.2980
  180SLPC  H14C20535   4.385   3.501  11.082 -3.0965 -1.0618 -0.8528
  180SLPC   C1520536   4.552   3.307  11.115  0.2453 -0.3460  0.5418
  180SLPC  H15A20537   4.635   3.375  11.124 -0.2409  0.4683 -0.9848
  180SLPC  H15B20538   4.497   3.325  11.206  0.4273  1.7812  0.2587
  180SLPC  H15C20539   4.606   3.213  11.114 -0.5573 -0.8805  3.8631
  180SLPC   C1220540   4.352   3.218  11.013 -0.3701 -0.8709 -0.1522
  180SLPC  H12A20541   4.284   3.221  10.929 -1.2621 -1.3249  0.5470
  180SLPC  H12B20542   4.291   3.252  11.095 -1.9751 -1.8124 -0.9408
  180SLPC   C1120543   4.378   3.064  11.018  0.7726  0.3912 -0.1649
  180SLPC  H11A20544   4.284   3.018  11.056  0.8600 -0.6564 -1.2054
  180SLPC  H11B20545   4.451   3.047  11.100  2.5430 -2.1849 -2.2160
  180SLPC     P20546   4.458   2.856  10.871  0.1266 -0.1994  0.0282
  180SLPC   O1320547   4.594   2.818  10.916 -0.3743  0.3413  0.4442
  180SLPC   O1420548   4.348   2.767  10.918  0.1497 -0.1528 -0.3138
  180SLPC   O1220549   4.420   3.010  10.887  0.0439 -0.0168  0.3104
  180SLPC   O1120550   4.468   2.845  10.713 -0.0384 -0.6785 -0.1356
  180SLPC    C120551   4.485   2.962  10.627  0.0152  0.0811 -0.1121
  180SLPC    HA20552   4.392   3.014  10.595 -1.0147 -1.8144 -0.3207
  180SLPC    HB20553   4.553   3.037  10.672 -1.1233  1.2743 -0.3436
  180SLPC    C220554   4.568   2.920  10.496 -0.0396 -0.7789  0.0316
  180SLPC    HS20555   4.651   2.993  10.483  0.3811 -1.2481  0.0235
  180SLPC   O2120556   4.494   2.905  10.371  0.0178 -0.4502 -0.0670
  180SLPC   C2120557   4.437   3.014  10.321 -0.3683 -0.0355  0.1969
  180SLPC   O2220558   4.457   3.126  10.366 -0.5302 -0.0322  0.1005
  180SLPC   C2220559   4.338   2.972  10.218 -0.0799 -0.1704  0.1050
  180SLPC   H2R20560   4.306   2.866  10.229  1.8706 -0.9980 -1.9628
  180SLPC   H2S20561   4.253   3.044  10.220  0.5679  0.6223 -0.6443
  180SLPC    C320562   4.640   2.782  10.514  0.0695 -0.7641 -0.2849
  180SLPC    HX20563   4.552   2.715  10.515 -1.9343  1.7802 -0.7655
  180SLPC    HY20564   4.691   2.786  10.613 -1.0804  0.2561  0.2711
  180SLPC   O3120565   4.731   2.763  10.406  0.1150 -0.1080  0.4873
  180SLPC   C3120566   4.741   2.637  10.374 -0.2108  0.1422  0.5254
  180SLPC   O3220567   4.663   2.553  10.412 -0.3017  0.2424  0.5567
  180SLPC   C3220568   4.855   2.615  10.273  0.6419  0.6777  0.2304
  180SLPC   H2X20569   4.949   2.652  10.319  0.2976  0.6073  1.0005
  180SLPC   H2Y20570   4.823   2.681  10.189 -0.8773  0.5267  0.6849
  180SLPC   C2320571   4.402   2.985  10.080  0.4981 -0.0631  0.5538
  180SLPC   H3R20572   4.495   2.926  10.068 -0.2099 -1.7428  2.8855
  180SLPC   H3S20573   4.442   3.087  10.062  1.0457  0.0269  2.2400
  180SLPC   C2420574   4.313   2.952   9.961 -0.7125  0.5626 -0.4706
  180SLPC   H4R20575   4.224   3.019   9.959 -1.6078 -0.5465  1.1375
  180SLPC   H4S20576   4.279   2.847   9.974 -1.4458  1.0042  1.2531
  180SLPC   C2520577   4.389   2.957   9.829  0.2666  0.4365 -0.4015
  180SLPC   H5R20578   4.469   2.882   9.846  0.2611 -0.2901 -3.2587
  180SLPC   H5S20579   4.436   3.057   9.815 -3.7771  2.4432 -0.5609
  180SLPC   C2620580   4.294   2.922   9.703 -0.4304 -0.1531 -0.9946
  180SLPC   H6R20581   4.205   2.989   9.705 -1.1743 -1.1541  1.8202
  180SLPC   H6S20582   4.259   2.822   9.735  0.6319 -0.2347 -0.0349
  180SLPC   C2720583   4.373   2.947   9.579  0.2529  0.2544  0.7070
  180SLPC   H7R20584   4.455   2.872   9.585 -0.9089 -1.0921  0.0948
  180SLPC   H7S20585   4.418   3.049   9.576 -0.2497  0.4399 -1.4202
  180SLPC   C2820586   4.286   2.904   9.450 -0.2092 -0.7656 -0.6073
  180SLPC   H8R20587   4.183   2.944   9.459 -0.2421 -0.9013 -0.3857
  180SLPC   H8S20588   4.265   2.795   9.452 -1.7485 -0.4696  1.8469
  180SLPC   C2920589   4.352   2.943   9.317  0.5731  0.1010  0.0818
  180SLPC   H9R20590   4.333   3.045   9.281  0.4239  0.0614  0.0505
  180SLPC  C21020591   4.410   2.866   9.230  1.0211  0.1349 -0.0047
  180SLPC  H10R20592   4.467   2.920   9.153  2.8843 -0.6975  0.7679
  180SLPC  C21120593   4.416   2.718   9.242 -0.1714 -0.0260 -0.3983
  180SLPC  H11R20594   4.322   2.674   9.283  0.9076 -1.8170  0.2055
  180SLPC  H11S20595   4.507   2.691   9.299  1.5544  0.5178 -2.8468
  180SLPC  C21220596   4.444   2.660   9.102 -0.4148  0.1706 -0.2759
  180SLPC  H12R20597   4.543   2.623   9.072 -0.1904 -0.0270  0.6854
  180SLPC  C21320598   4.343   2.646   9.015 -0.1685  0.1158 -0.3660
  180SLPC  H13R20599   4.371   2.617   8.912  0.7402  0.5855 -0.2514
  180SLPC  C21420600   4.202   2.691   9.040  0.0058  0.0567  0.3649
  180SLPC  H14R20601   4.177   2.708   9.147 -0.7302 -0.5126  0.2839
  180SLPC  H14S20602   4.138   2.606   9.007  1.3831 -0.0655 -2.1506
  180SLPC  C21520603   4.172   2.819   8.964 -0.1201 -0.7994  0.3895
  180SLPC  H15R20604   4.255   2.892   8.980 -1.0767 -0.2726  3.2240
  180SLPC  H15S20605   4.082   2.868   9.005  0.3931  0.9971 -0.5618
  180SLPC  C21620606   4.165   2.798   8.811 -0.3943 -0.2446 -0.1359
  180SLPC  H16R20607   4.136   2.694   8.787  0.4454 -0.1893 -1.4247
  180SLPC  H16S20608   4.271   2.810   8.780 -0.6823  1.6652 -0.3992
  180SLPC  C21720609   4.083   2.893   8.723  0.0346  0.5284 -0.5524
  180SLPC  H17R20610   4.087   2.859   8.617  1.6919  0.7954 -0.5986
  180SLPC  H17S20611   4.124   2.993   8.747  0.8967  0.0460  0.0309
  180SLPC  C21820612   3.935   2.899   8.757 -1.2290 -0.0794  0.5796
  180SLPC  H18R20613   3.889   2.798   8.750 -1.9611  0.1847  1.5256
  180SLPC  H18S20614   3.882   2.969   8.689  1.9555  1.1837 -0.7379
  180SLPC  H18T20615   3.927   2.932   8.862 -0.4099  0.5322  0.4624
  180SLPC   C3320616   4.877   2.467  10.232  0.0665  0.4435  0.0823
  180SLPC   H3X20617   4.775   2.425  10.223  0.0774  0.7976 -2.0291
  180SLPC   H3Y20618   4.934   2.423  10.316  0.7448  0.2031 -0.4958
  180SLPC   C3420619   4.951   2.432  10.099 -0.3758  0.8173  0.0237
  180SLPC   H4X20620   5.057   2.463  10.107 -0.2983  0.7429 -0.7082
  180SLPC   H4Y20621   4.893   2.482  10.019  0.8812  1.4278 -0.5147
  180SLPC   C3520622   4.931   2.289  10.059 -0.6754 -0.0717  0.0898
  180SLPC   H5X20623   4.823   2.267  10.051 -0.6072 -0.7622  1.0864
  180SLPC   H5Y20624   4.976   2.225  10.137 -0.4203 -0.6316 -0.5067
  180SLPC   C3620625   5.008   2.253   9.931  0.7010  0.0649 -0.3565
  180SLPC   H6X20626   5.005   2.143   9.919  0.5815  0.3273 -3.1472
  180SLPC   H6Y20627   5.111   2.294   9.936 -0.1029  2.2179 -0.8488
  180SLPC   C3720628   4.951   2.307   9.800 -0.2833 -0.4126 -0.1262
  180SLPC   H7X20629   4.994   2.408   9.782  0.2119 -0.5855  0.0783
  180SLPC   H7Y20630   4.840   2.315   9.798 -0.3437 -1.3734 -1.0304
  180SLPC   C3820631   4.997   2.241   9.664  0.0142 -0.1416  0.5816
  180SLPC   H8X20632   5.108   2.243   9.666  0.0235  0.1713 -0.4048
  180SLPC   H8Y20633   4.941   2.285   9.579 -0.5261 -0.4084  0.7976
  180SLPC   C3920634   4.947   2.092   9.668 -0.6557 -0.0043 -0.3913
  180SLPC   H9X20635   4.837   2.086   9.683 -0.2646 -1.3647  2.0796
  180SLPC   H9Y20636   4.985   2.033   9.754  1.7501  1.1047 -0.6670
  180SLPC  C31020637   4.988   2.016   9.543  0.2620 -0.7072  0.9189
  180SLPC  H10X20638   4.937   1.918   9.541 -0.1397 -0.5407  2.7642
  180SLPC  H10Y20639   5.099   2.004   9.539  0.2696 -0.6208  0.8520
  180SLPC  C31120640   4.945   2.089   9.409 -0.5538  0.0152  0.8582
  180SLPC  H11X20641   5.016   2.174   9.399 -1.0834  0.5879  1.9169
  180SLPC  H11Y20642   4.847   2.138   9.428 -2.4539 -3.0149 -0.6981
  180SLPC  C31220643   4.962   2.006   9.277  0.2701 -0.4372 -0.9203
  180SLPC  H12X20644   4.922   2.055   9.186  2.5203  0.1116 -1.6591
  180SLPC  H12Y20645   4.920   1.905   9.295 -0.9625  0.0174 -1.1977
  180SLPC  C31320646   5.106   1.981   9.255  0.5486  0.0657  0.7308
  180SLPC  H13X20647   5.118   1.883   9.205 -2.7771 -0.1908  0.3552
  180SLPC  H13Y20648   5.173   1.981   9.344 -0.4825 -1.3377  1.5267
  180SLPC  C31420649   5.161   2.076   9.143 -0.3744 -0.3147  0.8837
  180SLPC  H14X20650   5.177   2.176   9.188  0.3124 -1.0030  2.1808
  180SLPC  H14Y20651   5.085   2.072   9.061 -1.1862  1.0145  1.5561
  180SLPC  C31520652   5.296   2.040   9.075 -0.1946  0.0089  0.3985
  180SLPC  H15X20653   5.290   1.945   9.018 -0.1073 -0.7969  1.7066
  180SLPC  H15Y20654   5.373   2.028   9.154 -1.2764 -2.1063  1.1665
  180SLPC  C31620655   5.342   2.158   8.982 -0.2981 -0.1829 -0.3442
  180SLPC  H16X20656   5.351   2.243   9.053  0.0268  0.3950 -1.0723
  180SLPC  H16Y20657   5.270   2.191   8.904 -3.2503  0.7333  2.6013
  180SLPC  C31720658   5.472   2.119   8.907  0.1653  0.0046  0.2293
  180SLPC  H17X20659   5.461   2.014   8.872 -1.7372  0.3248 -0.2189
  180SLPC  H17Y20660   5.562   2.121   8.971  1.5170 -1.5302 -1.5440
  180SLPC  C31820661   5.503   2.206   8.795  0.1936 -0.3998 -0.0037
  180SLPC  H18X20662   5.593   2.165   8.745 -0.0649  0.4809 -1.2285
  180SLPC  H18Y20663   5.529   2.309   8.830 -1.6009  0.1485 -0.2300
  180SLPC  H18Z20664   5.416   2.211   8.726  0.8162 -0.2140 -0.7818
  181SLPC     N20665   1.408   6.771  11.099 -0.1099  0.1910 -0.2975
  181SLPC   C1320666   1.530   6.859  11.088  0.6430 -0.0554  0.6064
  181SLPC  H13A20667   1.512   6.965  11.086  0.7162 -0.0628 -1.0295
  181SLPC  H13B20668   1.591   6.821  11.169 -0.4889 -0.3762  1.3145
  181SLPC  H13C20669   1.582   6.833  10.997 -1.2547 -1.0136 -0.2159
  181SLPC   C1420670   1.351   6.788  11.236  0.3705 -0.3463  0.2858
  181SLPC  H14A20671   1.327   6.894  11.242  0.1277 -0.2938 -1.2539
  181SLPC  H14B20672   1.257   6.735  11.239 -0.5298  1.1994  0.4136
  181SLPC  H14C20673   1.417   6.766  11.318 -0.4362  1.8086  1.5590
  181SLPC   C1520674   1.457   6.630  11.104 -0.8616  0.1656  0.2849
  181SLPC  H15A20675   1.514   6.599  11.018  0.5679 -0.3607  1.4031
  181SLPC  H15B20676   1.516   6.613  11.192  1.0646 -2.3378 -1.4350
  181SLPC  H15C20677   1.376   6.558  11.104  0.6578 -1.5719  0.4257
  181SLPC   C1220678   1.310   6.802  10.985 -0.0542 -0.0391  0.4674
  181SLPC  H12A20679   1.226   6.734  10.983 -0.6870  0.7472 -0.2625
  181SLPC  H12B20680   1.359   6.778  10.892  0.0480 -0.0400  0.5232
  181SLPC   C1120681   1.237   6.937  10.994  0.1236  0.2661  0.2456
  181SLPC  H11A20682   1.197   6.944  10.891  1.5054  0.0654 -0.3098
  181SLPC  H11B20683   1.310   7.019  11.014  0.9722 -0.3562 -0.2740
  181SLPC     P20684   1.047   7.064  11.097 -0.4859 -0.3775  0.1157
  181SLPC   O1320685   0.917   7.021  11.146  0.1096  0.0675 -0.4496
  181SLPC   O1420686   1.122   7.161  11.180  0.1517  0.3014  0.3964
  181SLPC   O1220687   1.127   6.936  11.084 -0.5092  0.1590 -0.3720
  181SLPC   O1120688   1.042   7.123  10.951  0.4212 -0.4088 -0.7016
  181SLPC    C120689   0.940   7.094  10.858 -0.1695  0.2849  0.3130
  181SLPC    HA20690   0.931   6.988  10.829 -0.3107  0.5507 -0.6323
  181SLPC    HB20691   0.844   7.142  10.885 -0.6564 -0.1897 -0.5839
  181SLPC    C220692   0.978   7.163  10.718  0.0561 -0.1992  0.0571
  181SLPC    HS20693   0.998   7.271  10.735  0.9177 -0.5469  1.3351
  181SLPC   O2120694   0.883   7.126  10.613  0.0775  0.2686  0.2190
  181SLPC   C2120695   0.766   7.188  10.603 -0.4136 -0.0164  0.0564
  181SLPC   O2220696   0.743   7.291  10.669 -0.1542 -0.2508 -0.3627
  181SLPC   C2220697   0.673   7.136  10.494  0.1766 -0.3411 -0.4082
  181SLPC   H2R20698   0.616   7.052  10.540  2.2491 -1.5615  0.0554
  181SLPC   H2S20699   0.596   7.213  10.474 -0.4410 -0.6753  0.6286
  181SLPC    C320700   1.118   7.104  10.674 -0.3445  0.2814 -0.6554
  181SLPC    HX20701   1.102   6.995  10.667 -0.6665  0.3375 -0.8015
  181SLPC    HY20702   1.193   7.127  10.752 -0.0168 -2.1040 -0.2405
  181SLPC   O3120703   1.156   7.155  10.548 -0.1553  0.8683 -0.0057
  181SLPC   C3120704   1.206   7.280  10.548  0.1505  0.6287  0.1674
  181SLPC   O3220705   1.238   7.348  10.647 -0.1481 -0.1621  0.1332
  181SLPC   C3220706   1.216   7.331  10.405 -0.2376 -0.5025  0.1455
  181SLPC   H2X20707   1.242   7.439  10.412  2.1894 -0.8997 -2.0550
  181SLPC   H2Y20708   1.120   7.313  10.352 -0.1891 -0.9273  0.2012
  181SLPC   C2320709   0.755   7.090  10.372 -0.2757 -0.1093  0.4275
  181SLPC   H3R20710   0.683   7.037  10.307 -0.5046 -0.9374  1.3367
  181SLPC   H3S20711   0.830   7.012  10.397 -1.2077 -1.4320 -0.8193
  181SLPC   C2420712   0.822   7.207  10.313  0.0885 -0.7852 -0.2324
  181SLPC   H4R20713   0.897   7.259  10.376  1.3929 -0.5601 -1.9238
  181SLPC   H4S20714   0.736   7.272  10.286 -1.4433 -3.2187 -1.4093
  181SLPC   C2520715   0.897   7.183  10.190  0.2607  0.3250  0.2074
  181SLPC   H5R20716   0.947   7.084  10.188  0.0816  0.1497  3.2127
  181SLPC   H5S20717   0.977   7.257  10.171  0.6872  0.2659  1.7756
  181SLPC   C2620718   0.794   7.209  10.068 -0.5771  0.6690 -0.5112
  181SLPC   H6R20719   0.773   7.318  10.075  2.9643  1.2612  2.4067
  181SLPC   H6S20720   0.698   7.154  10.076  1.0165 -2.3301 -1.1374
  181SLPC   C2720721   0.850   7.164   9.932  0.2561 -0.4480  0.0861
  181SLPC   H7R20722   0.775   7.185   9.852  0.8346  1.8424  0.0926
  181SLPC   H7S20723   0.869   7.055   9.936  0.1139 -0.4035  2.3543
  181SLPC   C2820724   0.982   7.226   9.883  0.0120 -0.3472  0.2984
  181SLPC   H8R20725   1.024   7.176   9.793  0.6833  2.2472 -0.8725
  181SLPC   H8S20726   1.063   7.215   9.957  1.2684 -2.1083 -1.2826
  181SLPC   C2920727   0.941   7.371   9.844  0.6320 -0.3565  0.2805
  181SLPC   H9R20728   0.929   7.431   9.935  0.9776  0.2298 -0.0548
  181SLPC  C21020729   0.928   7.426   9.723 -0.6824  0.1713  0.9881
  181SLPC  H10R20730   0.920   7.535   9.721  0.4157  0.2606  1.2275
  181SLPC  C21120731   0.943   7.357   9.587 -0.6259 -0.5179  1.1563
  181SLPC  H11R20732   0.872   7.272   9.586 -0.3498 -0.7689 -1.7484
  181SLPC  H11S20733   1.046   7.316   9.587 -0.5883 -0.4328  0.7359
  181SLPC  C21220734   0.922   7.440   9.462  0.1329  0.1757 -0.4325
  181SLPC  H12R20735   0.833   7.504   9.467 -0.4571 -0.5710 -1.2285
  181SLPC  C21320736   1.016   7.452   9.364 -0.4933  0.0644 -0.5069
  181SLPC  H13R20737   0.992   7.514   9.276  1.6718  1.6184 -0.0641
  181SLPC  C21420738   1.154   7.388   9.357  0.5094  0.4668  0.3093
  181SLPC  H14R20739   1.194   7.347   9.452 -1.7681 -2.9312 -0.1073
  181SLPC  H14S20740   1.239   7.439   9.306  1.2908 -3.5609 -2.6532
  181SLPC  C21520741   1.142   7.247   9.291 -0.2617  0.0173  1.0305
  181SLPC  H15R20742   1.071   7.183   9.348  0.4050 -1.1952  0.5147
  181SLPC  H15S20743   1.238   7.192   9.290 -1.3238 -1.8926  0.9467
  181SLPC  C21620744   1.105   7.254   9.138 -0.4227  0.0414  0.4234
  181SLPC  H16R20745   1.001   7.294   9.137  0.3956  2.2272  0.1292
  181SLPC  H16S20746   1.107   7.154   9.089 -2.2192  0.5431 -0.7319
  181SLPC  C21720747   1.191   7.346   9.045  0.0716 -1.0395 -0.6192
  181SLPC  H17R20748   1.205   7.287   8.951  1.5198 -1.4055 -0.1851
  181SLPC  H17S20749   1.293   7.354   9.090  0.9906 -0.3507 -2.7622
  181SLPC  C21820750   1.134   7.484   9.013  0.3366  0.2602  0.0940
  181SLPC  H18R20751   1.153   7.549   9.101  2.2152  0.0669 -0.1473
  181SLPC  H18S20752   1.024   7.474   9.000  0.6742 -1.0109 -2.1373
  181SLPC  H18T20753   1.181   7.516   8.918 -1.7496 -0.8987 -1.3522
  181SLPC   C3320754   1.326   7.258  10.321  0.0443 -0.4330 -0.2125
  181SLPC   H3X20755   1.324   7.148  10.334 -0.4007 -0.2612  1.1754
  181SLPC   H3Y20756   1.421   7.303  10.357 -1.5041  2.1637  0.7587
  181SLPC   C3420757   1.330   7.292  10.173  0.1744  0.4249 -0.5547
  181SLPC   H4X20758   1.301   7.394  10.139  1.4234  1.2520  0.7717
  181SLPC   H4Y20759   1.253   7.223  10.135  0.2007  0.6926 -1.0996
  181SLPC   C3520760   1.468   7.249  10.107  0.1169  0.0327  0.9107
  181SLPC   H5X20761   1.483   7.139  10.120 -1.5502 -0.7022 -2.8505
  181SLPC   H5Y20762   1.551   7.300  10.160  2.1767 -1.5225 -0.7161
  181SLPC   C3620763   1.473   7.269   9.954 -0.2617  0.7083 -0.7883
  181SLPC   H6X20764   1.551   7.194   9.929 -1.1580 -0.4675 -0.1137
  181SLPC   H6Y20765   1.504   7.372   9.926 -0.3106  0.9658  0.0855
  181SLPC   C3720766   1.344   7.229   9.882  2.1247 -0.2547  0.7735
  181SLPC   H7X20767   1.263   7.299   9.912  0.1649 -1.4383 -1.4848
  181SLPC   H7Y20768   1.317   7.126   9.914  0.1908  0.3096  1.0450
  181SLPC   C3820769   1.359   7.239   9.736 -0.8126  0.9361 -0.3733
  181SLPC   H8X20770   1.397   7.339   9.707  2.3656 -0.3505 -0.8405
  181SLPC   H8Y20771   1.259   7.231   9.686 -1.0479 -2.9784  0.5389
  181SLPC   C3920772   1.440   7.123   9.673  0.4977  0.5604 -0.8222
  181SLPC   H9X20773   1.431   7.028   9.730  1.5515  0.4282 -0.8618
  181SLPC   H9Y20774   1.545   7.158   9.687  0.4810  0.0332  0.6854
  181SLPC  C31020775   1.418   7.119   9.525  0.4854  0.4191  0.2097
  181SLPC  H10X20776   1.433   7.223   9.490  1.1623  0.3176  0.1936
  181SLPC  H10Y20777   1.325   7.063   9.501  1.2660 -1.8508  2.2867
  181SLPC  C31120778   1.526   7.048   9.441  0.4519 -0.7923 -0.6435
  181SLPC  H11X20779   1.526   6.938   9.457 -2.9463 -0.8513 -0.6946
  181SLPC  H11Y20780   1.614   7.085   9.498 -0.0288 -1.0740  0.2962
  181SLPC  C31220781   1.543   7.094   9.300 -0.3585 -0.4464  0.2074
  181SLPC  H12X20782   1.481   7.187   9.295  1.8657  1.1287  1.2228
  181SLPC  H12Y20783   1.514   7.019   9.223 -1.0484  1.1872 -1.1736
  181SLPC  C31320784   1.682   7.152   9.266 -0.5533  0.5590 -0.2672
  181SLPC  H13X20785   1.765   7.083   9.292  0.3289  2.5582  2.4230
  181SLPC  H13Y20786   1.696   7.250   9.315 -0.7230  0.4767 -0.0560
  181SLPC  C31420787   1.673   7.183   9.119 -0.0707  0.0019  0.1210
  181SLPC  H14X20788   1.576   7.231   9.091 -0.9075 -2.6095 -1.6564
  181SLPC  H14Y20789   1.670   7.088   9.062  1.0863 -0.7875  1.3564
  181SLPC  C31520790   1.786   7.272   9.079 -1.1246  0.3216  0.7381
  181SLPC  H15X20791   1.781   7.374   9.124 -1.1729  1.0754 -0.9471
  181SLPC  H15Y20792   1.781   7.289   8.969  2.5528  1.3064  0.6424
  181SLPC  C31620793   1.937   7.237   9.107  0.2805 -0.4525 -0.5423
  181SLPC  H16X20794   1.971   7.153   9.042 -0.3531 -2.2445  1.4121
  181SLPC  H16Y20795   1.945   7.200   9.211 -0.3011  0.2171 -0.2590
  181SLPC  C31720796   2.047   7.353   9.088 -0.1738 -0.4941 -0.7670
  181SLPC  H17X20797   2.140   7.307   9.127 -0.4999 -2.1398 -1.8495
  181SLPC  H17Y20798   2.012   7.430   9.160 -0.5027 -0.5377 -0.8790
  181SLPC  C31820799   2.049   7.415   8.950 -0.5222  0.1241  0.3645
  181SLPC  H18X20800   1.981   7.503   8.950 -0.9559 -0.2043  0.7301
  181SLPC  H18Y20801   2.023   7.345   8.867 -1.3765 -0.7203  1.3298
  181SLPC  H18Z20802   2.150   7.442   8.915 -0.9641  1.5547  0.1770
  182SLPC     N20803   6.164   1.386  11.146 -0.7677  0.6248  0.1314
  182SLPC   C1320804   6.250   1.389  11.276  0.8876  0.1671  1.1022
  182SLPC  H13A20805   6.219   1.474  11.334 -1.0242  0.7013 -0.6510
  182SLPC  H13B20806   6.241   1.292  11.321 -1.4922 -0.2082 -0.1074
  182SLPC  H13C20807   6.353   1.405  11.248 -0.0382 -0.0347 -2.8085
  182SLPC   C1420808   6.025   1.351  11.181  0.3634  0.1325 -0.5773
  182SLPC  H14A20809   5.967   1.345  11.090 -1.3716  1.3276  0.4169
  182SLPC  H14B20810   6.036   1.256  11.231 -1.7357  0.6527  0.9153
  182SLPC  H14C20811   5.986   1.431  11.243  2.3296 -0.0615  0.9741
  182SLPC   C1520812   6.213   1.277  11.059 -0.2903  0.5188 -0.5571
  182SLPC  H15A20813   6.320   1.281  11.053 -0.2558 -1.0193 -1.2292
  182SLPC  H15B20814   6.189   1.182  11.106  1.3488  0.9716  1.2436
  182SLPC  H15C20815   6.165   1.281  10.962 -0.4376 -3.8818 -0.7815
  182SLPC   C1220816   6.183   1.515  11.068 -0.3799 -0.5516 -0.1213
  182SLPC  H12A20817   6.286   1.522  11.035 -0.2615  0.2046  0.3926
  182SLPC  H12B20818   6.158   1.597  11.133 -1.0629 -1.2382  0.4856
  182SLPC   C1120819   6.090   1.528  10.943 -0.2521 -0.5904  0.0999
  182SLPC  H11A20820   6.087   1.632  10.905  0.9672 -0.3088  0.7333
  182SLPC  H11B20821   5.984   1.516  10.975 -0.1398  0.5824  0.9327
  182SLPC     P20822   6.256   1.443  10.751  0.2263 -0.0829  0.0313
  182SLPC   O1320823   6.345   1.550  10.794 -0.0447  0.3435  0.3983
  182SLPC   O1420824   6.305   1.303  10.733 -0.8073 -0.5721  0.0836
  182SLPC   O1220825   6.125   1.442  10.832 -0.2244 -0.1060  0.0584
  182SLPC   O1120826   6.210   1.494  10.613 -0.4428 -0.1974  0.0482
  182SLPC    C120827   6.076   1.526  10.571 -0.4021 -0.3240  0.1206
  182SLPC    HA20828   6.019   1.437  10.539 -0.7058  0.2697 -1.0200
  182SLPC    HB20829   6.030   1.570  10.662  3.0251  0.0193  1.7718
  182SLPC    C220830   6.082   1.629  10.447  0.6529 -0.5428 -0.1954
  182SLPC    HS20831   5.983   1.675  10.426  1.0850  0.0780 -0.9163
  182SLPC   O2120832   6.125   1.568  10.322  0.3071 -0.8711  0.4761
  182SLPC   C2120833   6.037   1.490  10.266  0.3013 -0.0533  0.1471
  182SLPC   O2220834   5.923   1.476  10.314  0.1162  0.0707 -0.1588
  182SLPC   C2220835   6.090   1.412  10.145  0.0972 -0.3040  0.2521
  182SLPC   H2R20836   6.197   1.385  10.160  0.5332  0.8030 -0.7587
  182SLPC   H2S20837   6.041   1.313  10.141  2.3157 -1.5208  1.7312
  182SLPC    C320838   6.165   1.753  10.487 -0.0226  0.2196 -0.7847
  182SLPC    HX20839   6.271   1.724  10.497  0.4355  2.0944 -0.0116
  182SLPC    HY20840   6.128   1.795  10.583  0.2925  0.0017 -0.5709
  182SLPC   O3120841   6.152   1.852  10.375 -0.1038 -0.5145 -0.1060
  182SLPC   C3120842   6.243   1.842  10.284 -0.2484 -0.2610  0.3019
  182SLPC   O3220843   6.335   1.761  10.280 -0.1316 -0.0433  0.0937
  182SLPC   C3220844   6.224   1.954  10.194 -0.3633  0.1239 -0.7809
  182SLPC   H2X20845   6.307   2.026  10.199 -0.3007 -0.0771  1.2974
  182SLPC   H2Y20846   6.123   1.999  10.203 -1.2659 -1.8209 -0.8050
  182SLPC   C2320847   6.072   1.489  10.009 -0.4372 -0.5547 -0.3529
  182SLPC   H3R20848   6.151   1.443   9.946 -2.6089 -1.2486 -2.6593
  182SLPC   H3S20849   6.099   1.596  10.018  1.1827 -1.0643  1.1539
  182SLPC   C2420850   5.938   1.482   9.942 -0.3356  0.2738  0.2789
  182SLPC   H4R20851   5.864   1.518  10.017 -3.0976 -1.8681 -1.3361
  182SLPC   H4S20852   5.913   1.377   9.917 -2.2914  0.6570  0.5389
  182SLPC   C2520853   5.922   1.566   9.811  0.0183  0.2473  0.3058
  182SLPC   H5R20854   5.834   1.525   9.757 -1.5020  2.1169  1.2698
  182SLPC   H5S20855   6.011   1.543   9.749 -0.1218 -1.5950  0.7761
  182SLPC   C2620856   5.895   1.718   9.819  0.4693 -0.3539 -0.7475
  182SLPC   H6R20857   5.988   1.766   9.855  1.6547 -2.5896 -0.7661
  182SLPC   H6S20858   5.815   1.732   9.895  1.2951  0.3294  0.0056
  182SLPC   C2720859   5.858   1.781   9.688  0.0258 -0.2497  0.3651
  182SLPC   H7R20860   5.774   1.726   9.639 -0.1456  0.9062 -0.6699
  182SLPC   H7S20861   5.940   1.784   9.613 -1.4521  1.2937 -1.2801
  182SLPC   C2820862   5.814   1.928   9.699 -0.7068  0.0812 -0.5850
  182SLPC   H8R20863   5.907   1.974   9.738 -1.2622  2.3229 -1.8684
  182SLPC   H8S20864   5.732   1.945   9.772 -0.1111  0.3247  0.0330
  182SLPC   C2920865   5.769   1.983   9.566  0.3219 -0.1498 -0.4925
  182SLPC   H9R20866   5.682   1.940   9.512  0.5437  0.0302 -0.9991
  182SLPC  C21020867   5.816   2.091   9.508  0.5076 -0.2454 -0.3284
  182SLPC  H10R20868   5.782   2.116   9.406 -1.5449 -0.2885  0.3130
  182SLPC  C21120869   5.922   2.178   9.576 -0.1432  0.0167 -0.2929
  182SLPC  H11R20870   5.896   2.184   9.683 -2.8977 -0.5054 -0.8877
  182SLPC  H11S20871   5.909   2.278   9.530 -0.3630  0.9006  1.6731
  182SLPC  C21220872   6.062   2.132   9.553 -0.0380 -0.7305  0.7882
  182SLPC  H12R20873   6.125   2.102   9.638  1.6117  0.1456 -0.1076
  182SLPC  C21320874   6.130   2.136   9.440  0.5219 -0.2486  0.3679
  182SLPC  H13R20875   6.236   2.110   9.435  0.1070 -2.1047  0.8841
  182SLPC  C21420876   6.083   2.200   9.313  1.1094 -0.2704 -0.8527
  182SLPC  H14R20877   6.120   2.304   9.297 -0.0496  0.0308 -1.6831
  182SLPC  H14S20878   5.972   2.201   9.310  0.9865 -2.9087  1.2654
  182SLPC  C21520879   6.136   2.131   9.184  0.0044 -0.4446  0.0459
  182SLPC  H15R20880   6.098   2.027   9.182  1.0172 -0.8295  0.7607
  182SLPC  H15S20881   6.246   2.125   9.187  0.0260  0.4469  1.5023
  182SLPC  C21620882   6.084   2.200   9.060  0.3283 -0.5219 -0.3761
  182SLPC  H16R20883   6.137   2.298   9.065 -0.3552 -0.1131 -1.0872
  182SLPC  H16S20884   5.977   2.225   9.077  0.1488 -0.4416 -1.5579
  182SLPC  C21720885   6.100   2.115   8.931  0.4042 -0.1371  0.1317
  182SLPC  H17R20886   6.205   2.078   8.933  0.5846  0.3568  0.0465
  182SLPC  H17S20887   6.090   2.184   8.844  0.7320 -0.6439 -0.3147
  182SLPC  C21820888   5.996   2.001   8.910 -0.4593 -0.6086 -0.5204
  182SLPC  H18R20889   6.009   1.943   8.816 -0.0304  1.1452 -1.5631
  182SLPC  H18S20890   5.895   2.046   8.914 -0.3917 -0.2814 -2.0395
  182SLPC  H18T20891   6.010   1.930   8.995  2.9577  0.5155 -0.0512
  182SLPC   C3320892   6.221   1.905  10.040  0.6731  0.1580  0.2535
  182SLPC   H3X20893   6.179   1.985   9.975  2.0868  1.2024  0.5833
  182SLPC   H3Y20894   6.162   1.812  10.029  0.9528 -0.0687  0.6835
  182SLPC   C3420895   6.365   1.882   9.985 -0.0167  0.4261  0.4720
  182SLPC   H4X20896   6.418   1.838  10.071  1.7506  0.1474 -0.7314
  182SLPC   H4Y20897   6.413   1.980   9.962  0.5857  0.2354  0.9282
  182SLPC   C3520898   6.374   1.796   9.855 -0.2721  0.6858 -0.3061
  182SLPC   H5X20899   6.317   1.703   9.875  2.0945 -0.3360  2.0206
  182SLPC   H5Y20900   6.479   1.770   9.828  0.6848  0.4831  3.3869
  182SLPC   C3620901   6.307   1.857   9.731  0.2453 -0.4843  0.0342
  182SLPC   H6X20902   6.384   1.920   9.682 -0.2703 -2.0902 -2.9385
  182SLPC   H6Y20903   6.223   1.921   9.764  0.9599  0.7722 -0.5389
  182SLPC   C3720904   6.257   1.752   9.631  0.0034 -0.8958 -0.4494
  182SLPC   H7X20905   6.187   1.679   9.677 -1.5648  1.5246  1.1299
  182SLPC   H7Y20906   6.343   1.687   9.604 -0.4456 -2.4884  1.8203
  182SLPC   C3820907   6.201   1.824   9.502  0.0456  0.3107 -0.0824
  182SLPC   H8X20908   6.274   1.905   9.479  1.2621 -1.0893 -1.2812
  182SLPC   H8Y20909   6.100   1.866   9.516 -1.7158 -3.6861  0.0126
  182SLPC   C3920910   6.196   1.719   9.387  0.4239  0.1378  0.1125
  182SLPC   H9X20911   6.125   1.635   9.404  0.0625  0.8080  2.1489
  182SLPC   H9Y20912   6.295   1.669   9.391 -0.1658 -1.0516  0.1126
  182SLPC  C31020913   6.180   1.764   9.240 -0.1047 -0.0362 -0.5069
  182SLPC  H10X20914   6.253   1.846   9.223 -0.2753 -0.1148 -1.6998
  182SLPC  H10Y20915   6.080   1.803   9.210  1.4821  2.9845 -2.1377
  182SLPC  C31120916   6.205   1.649   9.147  0.7005 -0.0725 -0.1298
  182SLPC  H11X20917   6.132   1.570   9.171  0.1425  0.8266  1.1554
  182SLPC  H11Y20918   6.308   1.608   9.160  1.3662  1.2709 -0.9991
  182SLPC  C31220919   6.186   1.681   8.994 -1.1045 -0.1949 -0.6242
  182SLPC  H12X20920   6.255   1.766   8.977  0.9697 -1.3500  1.6079
  182SLPC  H12Y20921   6.085   1.716   8.964 -0.7440 -0.1104 -1.7658
  182SLPC  C31320922   6.241   1.569   8.914  0.0239  0.3930 -0.0444
  182SLPC  H13X20923   6.352   1.569   8.924  0.0773  1.3084 -0.5638
  182SLPC  H13Y20924   6.219   1.573   8.805 -3.6850  0.1342  0.6373
  182SLPC  C31420925   6.216   1.426   8.970  0.2927 -0.7610  0.4494
  182SLPC  H14X20926   6.111   1.413   9.005  0.0132  1.4248  0.4832
  182SLPC  H14Y20927   6.285   1.407   9.055  0.6105  0.1072  0.3905
  182SLPC  C31520928   6.250   1.315   8.868 -0.1309  0.0999  0.1083
  182SLPC  H15X20929   6.355   1.334   8.838  0.5167  0.8764  2.7811
  182SLPC  H15Y20930   6.196   1.337   8.773  0.1825  2.2971  0.4015
  182SLPC  C31620931   6.232   1.172   8.913 -0.0189 -0.1440 -0.3458
  182SLPC  H16X20932   6.146   1.152   8.980  0.4863  2.6272  1.1927
  182SLPC  H16Y20933   6.321   1.154   8.977  0.1408  3.5324  0.5761
  182SLPC  C31720934   6.230   1.072   8.800  0.7382 -0.0699  0.0433
  182SLPC  H17X20935   6.316   1.103   8.736 -0.9738 -2.3630 -3.5212
  182SLPC  H17Y20936   6.140   1.093   8.739  1.1043  1.8453  0.1400
  182SLPC  C31820937   6.251   0.923   8.841  0.6591  0.2172  0.6179
  182SLPC  H18X20938   6.259   0.849   8.758  2.7173 -1.6579  2.4280
  182SLPC  H18Y20939   6.163   0.898   8.905 -0.0324 -1.1084 -0.8105
  182SLPC  H18Z20940   6.348   0.919   8.895 -0.7396  1.4579  3.2882
  183SLPC     N20941   0.618   2.257  11.183 -0.3592  0.2458 -0.4897
  183SLPC   C1320942   0.590   2.398  11.195 -0.4401  0.2476  0.0947
  183SLPC  H13A20943   0.526   2.433  11.115  0.3048  0.6823 -0.3206
  183SLPC  H13B20944   0.532   2.421  11.284 -0.5005 -0.5457  0.2600
  183SLPC  H13C20945   0.682   2.454  11.190 -1.3748  1.7558 -0.7807
  183SLPC   C1420946   0.489   2.182  11.204 -0.2260 -0.5197 -0.7659
  183SLPC  H14A20947   0.515   2.079  11.228  2.1433  0.5978  1.7900
  183SLPC  H14B20948   0.440   2.224  11.291 -0.1185 -1.1249 -0.4020
  183SLPC  H14C20949   0.428   2.189  11.116 -1.2201  1.0139  0.0355
  183SLPC   C1520950   0.720   2.236  11.292 -1.0304  0.0600  0.0339
  183SLPC  H15A20951   0.675   2.273  11.383  0.3016  2.1007 -0.1137
  183SLPC  H15B20952   0.754   2.134  11.290 -0.1206  0.3622 -0.3917
  183SLPC  H15C20953   0.803   2.301  11.271 -0.3348 -1.2792 -1.4356
  183SLPC   C1220954   0.684   2.219  11.050  0.2151 -0.7174 -0.0489
  183SLPC  H12A20955   0.699   2.112  11.041 -3.7782 -1.4152  0.9548
  183SLPC  H12B20956   0.782   2.264  11.042 -0.6320  0.9319 -1.4243
  183SLPC   C1120957   0.614   2.268  10.922  0.3096 -0.5545  0.3138
  183SLPC  H11A20958   0.511   2.234  10.945 -0.3270  0.6536 -0.6570
  183SLPC  H11B20959   0.664   2.211  10.840  0.0213 -0.4291  0.0477
  183SLPC     P20960   0.757   2.474  10.843  0.0983  0.2920  0.1239
  183SLPC   O1320961   0.731   2.620  10.827 -0.1833  0.8304  0.0754
  183SLPC   O1420962   0.865   2.444  10.940  0.2189  0.3685 -0.0905
  183SLPC   O1220963   0.629   2.408  10.899  0.1855 -0.5841 -0.4120
  183SLPC   O1120964   0.787   2.403  10.708 -0.0427  0.1273  0.1122
  183SLPC    C120965   0.681   2.407  10.607  0.7434 -0.9016 -0.5089
  183SLPC    HA20966   0.600   2.335  10.631  0.7541 -0.4772  0.8424
  183SLPC    HB20967   0.642   2.509  10.586 -2.8471 -1.9250  0.8691
  183SLPC    C220968   0.718   2.351  10.463 -0.0191 -0.2303  0.0328
  183SLPC    HS20969   0.625   2.345  10.404  0.2289 -1.8974 -0.2070
  183SLPC   O2120970   0.791   2.230  10.490 -0.2465 -0.0139 -0.0175
  183SLPC   C2120971   0.710   2.126  10.515 -0.7287 -0.2443 -0.0576
  183SLPC   O2220972   0.592   2.117  10.503 -0.1801  0.3311 -0.5687
  183SLPC   C2220973   0.797   2.008  10.552 -0.0128 -0.6870 -0.1317
  183SLPC   H2R20974   0.877   2.052  10.616 -2.0344  0.9247  1.3436
  183SLPC   H2S20975   0.741   1.933  10.612 -0.3929  1.7483  2.6662
  183SLPC    C320976   0.809   2.442  10.379  0.3757 -0.3354  0.2624
  183SLPC    HX20977   0.856   2.399  10.287  0.7419 -0.2982  0.4308
  183SLPC    HY20978   0.899   2.469  10.438 -1.1244  2.8524  1.1521
  183SLPC   O3120979   0.739   2.565  10.344  0.1496 -0.4889  0.0605
  183SLPC   C3120980   0.823   2.674  10.339  0.1798 -0.0590 -0.4405
  183SLPC   O3220981   0.942   2.665  10.345 -0.6030  0.1523  0.4060
  183SLPC   C3220982   0.745   2.806  10.336 -0.7542  0.7392  0.8799
  183SLPC   H2X20983   0.822   2.879  10.304 -1.2972 -0.0074 -2.2807
  183SLPC   H2Y20984   0.722   2.823  10.444 -1.8407  0.0395  0.7644
  183SLPC   C2320985   0.862   1.950  10.428 -1.1334  0.1058  0.2029
  183SLPC   H3R20986   0.953   1.894  10.462 -1.5708 -0.3251  0.6692
  183SLPC   H3S20987   0.893   2.031  10.359 -1.5752  1.3759  1.4847
  183SLPC   C2420988   0.769   1.858  10.348 -0.0384  0.7666  0.6961
  183SLPC   H4R20989   0.671   1.908  10.334 -0.9232 -1.7946 -2.9572
  183SLPC   H4S20990   0.754   1.770  10.414  1.9708 -1.7197 -1.9888
  183SLPC   C2520991   0.813   1.821  10.204  0.4607  0.3205 -0.5265
  183SLPC   H5R20992   0.915   1.776  10.205 -0.3461 -1.5360 -0.8003
  183SLPC   H5S20993   0.791   1.903  10.132  0.4729  2.1102  1.4448
  183SLPC   C2620994   0.720   1.705  10.167 -0.2633 -0.1137  0.2992
  183SLPC   H6R20995   0.612   1.728  10.186 -0.2340 -1.0461  1.7237
  183SLPC   H6S20996   0.742   1.618  10.233 -1.2648  1.2161  2.4489
  183SLPC   C2720997   0.750   1.637  10.028 -0.7524 -0.3345 -0.0677
  183SLPC   H7R20998   0.858   1.611  10.032 -0.7464 -0.1770  1.3020
  183SLPC   H7S20999   0.732   1.721   9.957 -1.0613 -1.4732 -1.3551
  183SLPC   C2821000   0.658   1.514   9.986 -0.7881 -0.2522 -0.2311
  183SLPC   H8R21001   0.559   1.521  10.035 -0.2626 -2.8755  1.2670
  183SLPC   H8S21002   0.690   1.422  10.038  0.8135  0.4145  0.0135
  183SLPC   C2921003   0.666   1.489   9.838 -0.8843  0.3015  0.0823
  183SLPC   H9R21004   0.765   1.470   9.794 -1.1202 -0.2258 -0.2338
  183SLPC  C21021005   0.565   1.478   9.747 -0.3159 -0.4696  0.0472
  183SLPC  H10R21006   0.592   1.470   9.641  0.0669  1.5563 -0.0270
  183SLPC  C21121007   0.416   1.479   9.781 -0.0066 -0.1809 -0.0519
  183SLPC  H11R21008   0.355   1.519   9.698 -0.7837  1.0709  1.0936
  183SLPC  H11S21009   0.402   1.551   9.865  3.8878  0.8492 -0.1645
  183SLPC  C21221010   0.369   1.347   9.824  1.1441  0.6445  0.0748
  183SLPC  H12R21011   0.437   1.266   9.792  0.4317 -0.1498  0.5684
  183SLPC  C21321012   0.258   1.327   9.898  0.1138 -0.7225  0.3444
  183SLPC  H13R21013   0.229   1.222   9.909  0.3521 -0.9876 -1.3489
  183SLPC  C21421014   0.157   1.428   9.951 -0.0248  0.1784  1.1108
  183SLPC  H14R21015   0.183   1.533   9.929 -2.0160 -0.0645 -2.8065
  183SLPC  H14S21016   0.154   1.408  10.061  1.2366 -1.6172  0.8565
  183SLPC  C21521017   0.015   1.418   9.893 -0.1136  0.2808 -0.4144
  183SLPC  H15R21018  -0.044   1.455   9.980 -0.3217  1.6222 -1.1272
  183SLPC  H15S21019  -0.012   1.313   9.867 -1.3280  0.1764  1.1197
  183SLPC  C21621020  -0.026   1.505   9.772  0.1033  0.8883 -0.2599
  183SLPC  H16R21021   0.032   1.600   9.779 -0.6570  1.4298 -1.2485
  183SLPC  H16S21022  -0.136   1.513   9.776  0.1082  1.7868 -1.6100
  183SLPC  C21721023   0.005   1.421   9.642  0.1930 -0.2681 -1.5601
  183SLPC  H17R21024  -0.077   1.346   9.648  1.2883 -1.3323  1.0822
  183SLPC  H17S21025   0.106   1.379   9.663  1.1601  2.6348 -0.0313
  183SLPC  C21821026   0.009   1.500   9.514 -0.3749 -0.2272  0.0044
  183SLPC  H18R21027   0.081   1.584   9.517  1.1322 -1.4467 -1.5811
  183SLPC  H18S21028  -0.087   1.553   9.494 -0.1373  0.9478  1.8498
  183SLPC  H18T21029   0.042   1.438   9.428  0.3066 -0.6613  0.5759
  183SLPC   C3321030   0.634   2.800  10.234 -0.2470 -0.1786  0.5777
  183SLPC   H3X21031   0.583   2.899  10.228 -1.1186 -0.7306 -2.2138
  183SLPC   H3Y21032   0.567   2.730  10.288  0.3836  0.0809  1.7080
  183SLPC   C3421033   0.674   2.748  10.094 -0.1872  0.3283 -0.3766
  183SLPC   H4X21034   0.586   2.697  10.049 -0.0413 -0.4075  0.1600
  183SLPC   H4Y21035   0.754   2.671  10.098  2.1062  2.5510 -1.7680
  183SLPC   C3521036   0.719   2.855   9.986  1.0865  0.0350  0.2755
  183SLPC   H5X21037   0.812   2.904  10.022  1.1108  0.8916 -0.9295
  183SLPC   H5Y21038   0.648   2.940   9.995  0.4522 -0.6126  1.5975
  183SLPC   C3621039   0.713   2.797   9.844 -0.6677  0.0067 -0.2398
  183SLPC   H6X21040   0.615   2.748   9.827  1.0638 -4.1612  1.1253
  183SLPC   H6Y21041   0.795   2.722   9.836 -0.8708 -0.2905  0.4357
  183SLPC   C3721042   0.731   2.906   9.730  0.5159 -1.2528  0.0595
  183SLPC   H7X21043   0.834   2.947   9.724 -0.2627  0.6819 -0.1154
  183SLPC   H7Y21044   0.657   2.988   9.736 -0.6484 -2.3258  0.6853
  183SLPC   C3821045   0.717   2.838   9.591  0.9837 -0.2176 -0.2303
  183SLPC   H8X21046   0.616   2.798   9.571 -0.3892  2.4509  1.0556
  183SLPC   H8Y21047   0.777   2.746   9.574  0.5542 -0.5843  0.2354
  183SLPC   C3921048   0.740   2.933   9.474  0.2137 -0.7958 -0.0861
  183SLPC   H9X21049   0.846   2.967   9.483 -0.2672  0.4170  1.2279
  183SLPC   H9Y21050   0.665   3.015   9.485  1.4059  0.5555 -1.7980
  183SLPC  C31021051   0.723   2.873   9.331 -0.5653  0.1778 -0.2207
  183SLPC  H10X21052   0.622   2.827   9.322 -0.6555  0.2948  0.1935
  183SLPC  H10Y21053   0.788   2.783   9.331  0.7261  1.0940 -1.2537
  183SLPC  C31121054   0.760   2.968   9.221  0.1656 -0.7030 -0.3153
  183SLPC  H11X21055   0.865   2.997   9.245 -0.4400  0.4380  0.9888
  183SLPC  H11Y21056   0.707   3.065   9.220  3.6571  1.3838  2.4880
  183SLPC  C31221057   0.747   2.896   9.084 -0.0205  0.6224  0.3993
  183SLPC  H12X21058   0.646   2.850   9.089  0.4746 -0.6396 -0.9241
  183SLPC  H12Y21059   0.818   2.813   9.062 -0.6275 -0.0416  0.9297
  183SLPC  C31321060   0.747   2.995   8.964  0.4973 -1.2819  0.1171
  183SLPC  H13X21061   0.837   3.059   8.976  2.1060 -3.4217 -0.1777
  183SLPC  H13Y21062   0.667   3.072   8.963  2.5368  0.8998 -1.2940
  183SLPC  C31421063   0.739   2.934   8.822 -0.0732  0.6870 -0.0951
  183SLPC  H14X21064   0.839   2.886   8.809  0.5874  1.9103  0.3768
  183SLPC  H14Y21065   0.725   3.010   8.742 -1.6163  2.6173  1.9384
  183SLPC  C31521066   0.630   2.832   8.798 -0.2315  0.0020 -0.0976
  183SLPC  H15X21067   0.541   2.898   8.812  0.5902  1.2257 -0.5828
  183SLPC  H15Y21068   0.627   2.756   8.879  0.7392 -0.5910 -0.6165
  183SLPC  C31621069   0.626   2.770   8.660 -0.3033  0.7358  0.0396
  183SLPC  H16X21070   0.553   2.688   8.676 -0.6744  1.5855  3.1287
  183SLPC  H16Y21071   0.724   2.720   8.647 -0.3623  0.0183  2.1994
  183SLPC  C31721072   0.580   2.857   8.548  0.5389  0.2259  0.2177
  183SLPC  H17X21073   0.602   2.809   8.450  1.9268  0.9480  0.1632
  183SLPC  H17Y21074   0.651   2.942   8.542 -0.8285  1.3214 -0.7308
  183SLPC  C31821075   0.430   2.897   8.543  0.3514 -0.1134  0.4347
  183SLPC  H18X21076   0.394   2.980   8.478 -0.4663 -1.7391 -1.2608
  183SLPC  H18Y21077   0.393   2.927   8.643  2.4628  0.8654  0.9259
  183SLPC  H18Z21078   0.370   2.806   8.517  1.3272 -0.8395  0.6835
  184SLPC     N21079   2.918   6.815  10.972  0.5502  0.0401  0.2051
  184SLPC   C1321080   2.884   6.676  10.961  0.0043 -0.2552  0.0449
  184SLPC  H13A21081   2.959   6.604  10.988 -0.6036 -1.0791 -0.4601
  184SLPC  H13B21082   2.786   6.661  11.003 -0.9722  0.5266 -1.8783
  184SLPC  H13C21083   2.868   6.657  10.856 -0.9519  2.3983 -0.3364
  184SLPC   C1421084   2.940   6.845  11.114 -0.1202 -0.3214 -1.0226
  184SLPC  H14A21085   2.973   6.947  11.129 -0.2494 -0.5064  0.6117
  184SLPC  H14B21086   2.847   6.829  11.166  1.2591 -0.7154  1.4467
  184SLPC  H14C21087   3.011   6.773  11.153 -0.7281 -0.8035 -0.7968
  184SLPC   C1521088   2.798   6.904  10.936 -0.2224 -0.0235 -0.5975
  184SLPC  H15A21089   2.715   6.876  10.999 -0.0369  1.9511  0.5679
  184SLPC  H15B21090   2.813   7.009  10.960  0.3236 -0.0487 -0.8151
  184SLPC  H15C21091   2.765   6.892  10.833 -4.7982  0.4284  0.7123
  184SLPC   C1221092   3.036   6.861  10.890  0.1156 -0.4906  0.0184
  184SLPC  H12A21093   3.120   6.801  10.922 -1.3506 -2.2225  0.7196
  184SLPC  H12B21094   3.064   6.963  10.912  1.3726 -0.5818 -1.0835
  184SLPC   C1121095   3.021   6.851  10.734  0.2240 -0.2702 -0.3394
  184SLPC  H11A21096   3.109   6.898  10.686  0.5272 -0.7849 -0.2815
  184SLPC  H11B21097   2.935   6.917  10.705  1.2704  0.8925 -0.8563
  184SLPC     P21098   3.139   6.631  10.685  0.2148  0.4859 -0.3292
  184SLPC   O1321099   3.253   6.697  10.747 -0.3945 -0.4994  0.4062
  184SLPC   O1421100   3.099   6.504  10.743  0.1374  0.1382 -0.4877
  184SLPC   O1221101   3.014   6.721  10.680  0.3785  0.2993  0.9194
  184SLPC   O1121102   3.173   6.611  10.536  0.0089 -0.0868 -0.0154
  184SLPC    C121103   3.068   6.603  10.436 -0.4439 -0.0914  0.4785
  184SLPC    HA21104   3.018   6.506  10.456 -1.0850  0.2177  0.3718
  184SLPC    HB21105   3.001   6.690  10.447 -2.2239 -0.6918 -4.3695
  184SLPC    C221106   3.118   6.599  10.295 -0.3947 -0.4225 -0.1858
  184SLPC    HS21107   3.164   6.500  10.275  0.8251  0.0111  0.4339
  184SLPC   O2121108   3.209   6.707  10.278  0.4626  0.0850  0.6066
  184SLPC   C2121109   3.310   6.675  10.188  0.0267 -0.1200  0.2107
  184SLPC   O2221110   3.317   6.569  10.127 -0.4719  0.0477 -0.2390
  184SLPC   C2221111   3.412   6.793  10.181  0.2237  0.4057 -0.1732
  184SLPC   H2R21112   3.365   6.884  10.224  0.2075  0.0362  0.6059
  184SLPC   H2S21113   3.515   6.769  10.216 -0.1014  1.2823  1.4343
  184SLPC    C321114   2.999   6.607  10.195 -0.0088  0.5591 -0.0094
  184SLPC    HX21115   2.958   6.710  10.207 -0.7556  0.8205 -3.9608
  184SLPC    HY21116   2.911   6.540  10.209 -0.3485  0.9563 -0.2321
  184SLPC   O3121117   3.040   6.615  10.055 -0.7425 -0.0519  0.8986
  184SLPC   C3121118   3.052   6.493  10.001  0.3593 -0.7235 -0.1438
  184SLPC   O3221119   3.022   6.387  10.051  0.0655  0.1540 -0.2831
  184SLPC   C3221120   3.120   6.508   9.864  0.3065 -1.1368  0.0739
  184SLPC   H2X21121   3.225   6.472   9.865  0.6740 -0.0862  0.7192
  184SLPC   H2Y21122   3.133   6.618   9.852 -0.7514 -1.0800 -0.5663
  184SLPC   C2321123   3.448   6.823  10.029  0.6107 -0.3661 -0.6543
  184SLPC   H3R21124   3.519   6.908  10.034  0.9007 -0.5432 -1.5701
  184SLPC   H3S21125   3.356   6.865   9.983 -0.5857 -2.4242 -0.1922
  184SLPC   C2421126   3.508   6.714   9.942 -0.1557 -0.4150 -0.2281
  184SLPC   H4R21127   3.426   6.649   9.904  1.2056 -1.3249 -1.6636
  184SLPC   H4S21128   3.570   6.649  10.007  0.0520  0.0449  0.0364
  184SLPC   C2521129   3.594   6.764   9.823  0.3550  0.1987 -0.1496
  184SLPC   H5R21130   3.669   6.690   9.788 -1.0864 -1.1049 -0.4906
  184SLPC   H5S21131   3.659   6.852   9.845  1.3969 -0.9263  1.3654
  184SLPC   C2621132   3.507   6.799   9.700 -0.0455 -0.1109 -0.0822
  184SLPC   H6R21133   3.442   6.880   9.738  0.3238  0.9694 -1.6809
  184SLPC   H6S21134   3.440   6.712   9.680 -1.2003  0.0542  2.8237
  184SLPC   C2721135   3.584   6.855   9.583  0.4032 -0.3435 -1.0436
  184SLPC   H7R21136   3.679   6.799   9.573 -0.1759 -1.5114 -0.0543
  184SLPC   H7S21137   3.624   6.958   9.597  2.0841 -0.9688 -1.1743
  184SLPC   C2821138   3.504   6.837   9.449  0.0957 -0.0499 -1.0103
  184SLPC   H8R21139   3.551   6.907   9.378  1.0672 -1.0950 -1.4173
  184SLPC   H8S21140   3.397   6.864   9.465 -0.3978 -1.0211 -2.6376
  184SLPC   C2921141   3.511   6.693   9.401  0.5344  0.0215  0.5216
  184SLPC   H9R21142   3.505   6.612   9.476  0.1387 -1.3036 -0.9170
  184SLPC  C21021143   3.518   6.655   9.273 -0.2738 -1.4080 -0.3021
  184SLPC  H10R21144   3.537   6.548   9.258 -1.7595 -1.7650  0.2672
  184SLPC  C21121145   3.531   6.751   9.154 -0.2280 -0.0530 -0.3237
  184SLPC  H11R21146   3.511   6.855   9.190  0.3716 -0.0217 -0.0708
  184SLPC  H11S21147   3.457   6.707   9.084  1.9567 -0.4682 -2.4316
  184SLPC  C21221148   3.671   6.761   9.105  0.6393 -0.3835 -0.3605
  184SLPC  H12R21149   3.747   6.727   9.177  0.0357 -1.9760 -0.4628
  184SLPC  C21321150   3.705   6.828   8.992  0.8288  0.4972 -0.3113
  184SLPC  H13R21151   3.811   6.826   8.964  1.3869  0.2758  1.7127
  184SLPC  C21421152   3.611   6.894   8.894  0.2264 -0.1794 -0.0008
  184SLPC  H14R21153   3.622   7.002   8.915  2.6826  0.4472 -3.8108
  184SLPC  H14S21154   3.506   6.860   8.907  0.4698 -0.6599  0.7521
  184SLPC  C21521155   3.658   6.892   8.744 -0.3582  0.0535  1.0357
  184SLPC  H15R21156   3.762   6.926   8.726 -0.3945 -1.1256 -1.5546
  184SLPC  H15S21157   3.608   6.967   8.680  1.9867  1.3652  0.6790
  184SLPC  C21621158   3.634   6.755   8.687  0.3778  0.3069  0.7541
  184SLPC  H16R21159   3.716   6.692   8.728  0.6845  0.6403  0.6588
  184SLPC  H16S21160   3.649   6.745   8.577  0.6832 -0.0115  0.8262
  184SLPC  C21721161   3.489   6.694   8.708  0.6773 -0.1060  0.1999
  184SLPC  H17R21162   3.420   6.775   8.678 -1.4169 -2.5558 -1.8199
  184SLPC  H17S21163   3.466   6.673   8.814 -1.9994 -3.0109 -0.8956
  184SLPC  C21821164   3.451   6.571   8.617  0.3204  0.0619 -0.2976
  184SLPC  H18R21165   3.520   6.490   8.647 -0.9174 -0.4556  1.1537
  184SLPC  H18S21166   3.459   6.593   8.508  0.5116 -0.2635 -0.3503
  184SLPC  H18T21167   3.347   6.539   8.637  0.2689 -1.0006 -2.0914
  184SLPC   C3321168   3.047   6.452   9.743  0.9054 -0.1225  0.2443
  184SLPC   H3X21169   2.942   6.426   9.763  0.8490  0.1813  0.3488
  184SLPC   H3Y21170   3.096   6.360   9.704 -0.0925 -0.6162  0.1614
  184SLPC   C3421171   3.061   6.543   9.624  0.3229  0.1693  0.0653
  184SLPC   H4X21172   3.168   6.570   9.629  0.0682  1.2449 -0.2751
  184SLPC   H4Y21173   3.003   6.636   9.642 -0.1730  0.3726 -2.4464
  184SLPC   C3521174   3.045   6.461   9.495 -0.2302  0.9442 -1.0278
  184SLPC   H5X21175   2.938   6.430   9.486  0.0655  0.6044 -3.6811
  184SLPC   H5Y21176   3.098   6.364   9.501  0.1851  1.1095 -1.9751
  184SLPC   C3621177   3.104   6.535   9.373 -0.5616 -0.2045 -0.4181
  184SLPC   H6X21178   3.210   6.561   9.393 -0.7590  0.8307 -0.7413
  184SLPC   H6Y21179   3.054   6.632   9.358  0.8404  0.2085 -2.6174
  184SLPC   C3721180   3.076   6.461   9.244  0.5044  0.0735  0.5709
  184SLPC   H7X21181   2.967   6.455   9.223  0.5603 -0.0518  0.3061
  184SLPC   H7Y21182   3.119   6.360   9.262 -0.3677 -0.1202  1.6353
  184SLPC   C3821183   3.139   6.530   9.123 -0.2951 -0.7690  0.3609
  184SLPC   H8X21184   3.241   6.567   9.143 -1.3968  2.2318  0.7194
  184SLPC   H8Y21185   3.076   6.620   9.105  0.1038 -0.6543 -0.4884
  184SLPC   C3921186   3.139   6.436   8.992 -0.1960  0.3017  0.0724
  184SLPC   H9X21187   3.137   6.498   8.900  2.2659  0.6768  0.2357
  184SLPC   H9Y21188   3.046   6.375   8.996 -0.3497  0.5207 -0.1365
  184SLPC  C31021189   3.261   6.341   8.989  0.4942 -0.0919 -0.4394
  184SLPC  H10X21190   3.244   6.251   9.053  1.8198 -0.0437  0.0059
  184SLPC  H10Y21191   3.351   6.394   9.027  1.9525 -4.1498  2.1715
  184SLPC  C31121192   3.285   6.286   8.843  0.5317 -0.8469 -0.3454
  184SLPC  H11X21193   3.317   6.370   8.778 -0.8353  1.2765  1.6160
  184SLPC  H11Y21194   3.187   6.251   8.805  0.9724 -2.2083 -0.2663
  184SLPC  C31221195   3.396   6.185   8.838  0.0144 -0.6790 -0.2323
  184SLPC  H12X21196   3.354   6.106   8.904 -0.2930 -1.5507 -1.4596
  184SLPC  H12Y21197   3.492   6.218   8.884 -1.1160  2.8549 -0.2309
  184SLPC  C31321198   3.408   6.131   8.700 -0.4757  0.9099 -0.4653
  184SLPC  H13X21199   3.424   6.214   8.628  0.2257  0.1919 -1.1375
  184SLPC  H13Y21200   3.319   6.069   8.677  0.4723 -0.1503 -1.3705
  184SLPC  C31421201   3.526   6.032   8.690 -0.2834  0.1199  0.6794
  184SLPC  H14X21202   3.548   5.968   8.778  1.9527  2.0061  1.5336
  184SLPC  H14Y21203   3.609   6.104   8.672 -1.7577  1.7544  0.2805
  184SLPC  C31521204   3.507   5.935   8.575  0.5344  0.5288  0.0280
  184SLPC  H15X21205   3.407   5.889   8.589  1.1175 -1.0110 -0.7774
  184SLPC  H15Y21206   3.588   5.860   8.562  0.9035  1.0444 -0.6957
  184SLPC  C31621207   3.515   6.000   8.437 -0.3445  0.9252  0.1742
  184SLPC  H16X21208   3.622   6.025   8.422 -0.6079  2.4925  0.8737
  184SLPC  H16Y21209   3.457   6.094   8.426 -1.4755  0.3564  1.2057
  184SLPC  C31721210   3.475   5.902   8.320  0.0120  0.3472  0.5476
  184SLPC  H17X21211   3.375   5.858   8.339  0.1157 -1.2240 -2.2494
  184SLPC  H17Y21212   3.556   5.826   8.315  0.4686  0.8781 -0.4733
  184SLPC  C31821213   3.456   5.972   8.183 -0.0656 -0.0267  0.1090
  184SLPC  H18X21214   3.388   6.059   8.187 -0.5326 -0.3594 -0.6213
  184SLPC  H18Y21215   3.412   5.914   8.099 -0.5747 -0.0809  0.4167
  184SLPC  H18Z21216   3.559   6.002   8.152  0.6565  0.1517  2.5779
  185SLPC     N21217   1.258   2.747   6.430  0.3539  0.2250 -0.0597
  185SLPC   C1321218   1.283   2.731   6.280  0.5954  0.0694  0.2869
  185SLPC  H13A21219   1.317   2.631   6.261  1.3498  0.5240 -0.8118
  185SLPC  H13B21220   1.189   2.758   6.232  1.6078  1.2119 -1.1007
  185SLPC  H13C21221   1.368   2.790   6.249 -0.8354  0.3458 -3.4485
  185SLPC   C1421222   1.375   2.690   6.505  0.1053  0.4686  0.3034
  185SLPC  H14A21223   1.368   2.711   6.611  0.9259  0.7805  0.2994
  185SLPC  H14B21224   1.362   2.583   6.490  1.5398  0.5643 -1.7996
  185SLPC  H14C21225   1.469   2.721   6.464  0.1098 -2.3347 -1.9444
  185SLPC   C1521226   1.136   2.672   6.457 -0.9205 -0.2649 -0.0133
  185SLPC  H15A21227   1.047   2.727   6.431 -2.4537 -2.5490  0.2263
  185SLPC  H15B21228   1.134   2.576   6.408  3.2617  0.3420 -1.5441
  185SLPC  H15C21229   1.136   2.661   6.564  1.1355  0.3272  0.0686
  185SLPC   C1221230   1.243   2.895   6.457 -0.1046  0.5910  0.2206
  185SLPC  H12A21231   1.343   2.934   6.447  0.2119 -0.4978 -1.0466
  185SLPC  H12B21232   1.224   2.905   6.563  1.9556  0.3504  0.6209
  185SLPC   C1121233   1.136   2.973   6.381  0.0421  0.1335 -0.6524
  185SLPC  H11A21234   1.171   2.959   6.277  1.2414 -3.7118  0.1825
  185SLPC  H11B21235   1.150   3.078   6.413  0.0620 -0.8837  2.9054
  185SLPC     P21236   0.918   2.987   6.532 -0.0300 -0.6518  0.0102
  185SLPC   O1321237   0.883   3.126   6.506  0.3319 -0.5906 -0.7026
  185SLPC   O1421238   0.819   2.881   6.562  0.6779 -0.1983  0.1974
  185SLPC   O1221239   1.000   2.935   6.413  0.0953  0.6360 -0.3436
  185SLPC   O1121240   1.022   2.994   6.660  0.0797  0.5475  0.6617
  185SLPC    C121241   1.065   3.132   6.700  0.2810 -0.9382 -0.4559
  185SLPC    HA21242   1.115   3.190   6.619  1.1791 -0.0580  0.7294
  185SLPC    HB21243   0.974   3.187   6.732 -0.5389 -0.9321 -2.6840
  185SLPC    C221244   1.167   3.142   6.811 -0.0088 -0.1805 -0.2493
  185SLPC    HS21245   1.259   3.085   6.785  0.3123  0.6390 -0.9281
  185SLPC   O2121246   1.106   3.082   6.930  0.5189  0.5452  0.5817
  185SLPC   C2121247   1.199   3.058   7.018  0.5957 -0.0409  0.6236
  185SLPC   O2221248   1.321   3.064   6.999  0.1328 -0.1741  0.2890
  185SLPC   C2221249   1.137   3.018   7.157 -0.2205 -0.1192  0.9649
  185SLPC   H2R21250   1.029   3.044   7.155  0.0268  0.8739 -0.8244
  185SLPC   H2S21251   1.147   2.907   7.159 -0.8310 -0.2132 -0.4067
  185SLPC    C321252   1.200   3.293   6.834  0.1657  0.4368  0.1490
  185SLPC    HX21253   1.236   3.347   6.744  2.3697 -2.4579 -0.7884
  185SLPC    HY21254   1.291   3.291   6.897 -0.6449 -0.9845  1.3253
  185SLPC   O3121255   1.081   3.363   6.893 -0.0425  0.8120 -0.1799
  185SLPC   C3121256   1.099   3.406   7.020  0.4186  1.3239  0.2963
  185SLPC   O3221257   1.195   3.382   7.091 -0.2545  0.4048  0.5494
  185SLPC   C3221258   0.975   3.491   7.062  0.2549 -0.2729 -0.2362
  185SLPC   H2X21259   0.892   3.434   7.013  0.4309 -1.3543  0.6968
  185SLPC   H2Y21260   0.979   3.591   7.014  0.0336 -0.8379 -1.4645
  185SLPC   C2321261   1.208   3.076   7.281  0.1298  0.7558  0.0955
  185SLPC   H3R21262   1.162   3.176   7.300  0.2358  1.2134 -1.8828
  185SLPC   H3S21263   1.317   3.093   7.264  0.2533  1.0952  1.2023
  185SLPC   C2421264   1.183   2.982   7.402  0.6065  0.0644 -0.1282
  185SLPC   H4R21265   1.221   2.883   7.372 -2.4193 -1.6331  1.3467
  185SLPC   H4S21266   1.074   2.973   7.421  0.4330  0.0372 -1.1277
  185SLPC   C2521267   1.250   3.023   7.536  0.2589 -0.5838  0.4380
  185SLPC   H5R21268   1.226   3.127   7.569 -1.2931 -0.3868 -1.2271
  185SLPC   H5S21269   1.359   3.035   7.516 -0.4020 -0.1291 -3.3381
  185SLPC   C2621270   1.231   2.925   7.656  0.2135 -0.2731  0.1680
  185SLPC   H6R21271   1.265   2.822   7.629 -0.6179 -0.6526  0.5556
  185SLPC   H6S21272   1.122   2.913   7.671  0.7025 -4.1975  1.1878
  185SLPC   C2721273   1.300   2.980   7.780  0.8872  0.8553  0.6121
  185SLPC   H7R21274   1.236   3.067   7.806  0.6943  0.2185  2.3840
  185SLPC   H7S21275   1.398   3.017   7.741  0.7076 -0.0504 -0.7134
  185SLPC   C2821276   1.325   2.882   7.898 -0.7033  0.3118  0.5471
  185SLPC   H8R21277   1.419   2.907   7.952  1.9750 -1.0715 -3.2523
  185SLPC   H8S21278   1.352   2.783   7.858  0.7785  1.0195 -0.2559
  185SLPC   C2921279   1.199   2.888   7.972 -0.5661 -0.0362 -0.0930
  185SLPC   H9R21280   1.117   2.832   7.924  0.0793 -0.5031 -0.6525
  185SLPC  C21021281   1.189   2.930   8.099 -0.5698  0.1206 -0.0350
  185SLPC  H10R21282   1.087   2.923   8.138 -0.0213 -0.6767  1.3199
  185SLPC  C21121283   1.296   2.986   8.191  0.1361  0.2471  0.4075
  185SLPC  H11R21284   1.250   3.084   8.218  0.7052  0.0946  1.9831
  185SLPC  H11S21285   1.383   3.025   8.135 -1.0467  0.4524 -1.3285
  185SLPC  C21221286   1.343   2.894   8.300  0.5666 -0.2017 -0.0878
  185SLPC  H12R21287   1.277   2.807   8.312  1.4518 -0.7612  0.8696
  185SLPC  C21321288   1.467   2.885   8.356  0.1638 -0.3200 -0.4436
  185SLPC  H13R21289   1.490   2.811   8.434  1.1774 -0.6487 -1.0423
  185SLPC  C21421290   1.585   2.974   8.334  0.1578  0.7030 -0.1927
  185SLPC  H14R21291   1.612   3.003   8.438 -1.5151  1.6742 -0.0058
  185SLPC  H14S21292   1.575   3.063   8.268 -0.6108  0.7928  0.0365
  185SLPC  C21521293   1.712   2.887   8.280 -0.0939  0.1127  0.2244
  185SLPC  H15R21294   1.685   2.825   8.193 -0.5819  0.9821 -0.2488
  185SLPC  H15S21295   1.740   2.812   8.357 -1.4095 -1.1737 -0.5285
  185SLPC  C21621296   1.836   2.969   8.254  0.0338  0.5305  0.2583
  185SLPC  H16R21297   1.809   3.057   8.192  1.3490 -0.8869 -2.3695
  185SLPC  H16S21298   1.901   2.904   8.192  1.0754  1.3354  0.4967
  185SLPC  C21721299   1.918   3.014   8.378 -0.0776  0.3074 -0.4008
  185SLPC  H17R21300   1.975   2.924   8.410  1.3314  1.3864  0.1771
  185SLPC  H17S21301   1.838   3.042   8.450  0.2992  1.5181 -0.4416
  185SLPC  C21821302   2.009   3.134   8.361  0.0648  0.1626 -0.2620
  185SLPC  H18R21303   2.035   3.171   8.462 -0.2074 -1.0574  0.2640
  185SLPC  H18S21304   1.947   3.204   8.301  1.5741 -0.0076 -2.0453
  185SLPC  H18T21305   2.103   3.112   8.306  0.4206  0.3282  0.2787
  185SLPC   C3321306   0.969   3.512   7.220  0.2248 -0.1159  0.6240
  185SLPC   H3X21307   1.066   3.556   7.251 -0.1502 -0.6173  2.5884
  185SLPC   H3Y21308   0.967   3.410   7.265 -1.3223  0.0903  1.0436
  185SLPC   C3421309   0.848   3.595   7.271  0.2548 -0.1081  0.5796
  185SLPC   H4X21310   0.761   3.527   7.256  1.5514 -1.7805  0.4548
  185SLPC   H4Y21311   0.839   3.688   7.211 -0.1515  0.5046  1.5787
  185SLPC   C3521312   0.865   3.626   7.427 -0.0224  0.7563  0.1310
  185SLPC   H5X21313   0.781   3.693   7.456  0.6378  0.7327  2.1648
  185SLPC   H5Y21314   0.962   3.678   7.443  1.2174 -1.1690 -0.9941
  185SLPC   C3621315   0.888   3.499   7.513  0.4420 -0.5983  0.3922
  185SLPC   H6X21316   0.980   3.459   7.466  0.2425  1.4632 -1.8516
  185SLPC   H6Y21317   0.806   3.426   7.496  1.7296 -2.2903  1.2928
  185SLPC   C3721318   0.914   3.519   7.665  0.6308  0.1587 -0.1560
  185SLPC   H7X21319   0.934   3.422   7.716 -1.2883 -1.1958 -1.8760
  185SLPC   H7Y21320   0.819   3.558   7.706  0.9354 -0.6337  1.3265
  185SLPC   C3821321   1.010   3.625   7.718 -1.2465  0.3291  0.0732
  185SLPC   H8X21322   0.976   3.724   7.682 -1.1672  0.6042  0.7559
  185SLPC   H8Y21323   1.113   3.605   7.681 -0.8714  1.3465  0.5519
  185SLPC   C3921324   1.017   3.643   7.866  0.1716  0.5842 -0.2713
  185SLPC   H9X21325   0.921   3.603   7.906  0.3334  2.9254  2.6676
  185SLPC   H9Y21326   1.015   3.743   7.914 -3.0721 -0.6609  2.3473
  185SLPC  C31021327   1.128   3.555   7.923 -0.3193  0.0953 -0.0070
  185SLPC  H10X21328   1.222   3.597   7.882  0.5127 -0.7677  0.9813
  185SLPC  H10Y21329   1.121   3.446   7.900  0.4000  0.0879 -0.1930
  185SLPC  C31121330   1.131   3.555   8.074 -0.2595 -0.4285 -0.0845
  185SLPC  H11X21331   1.031   3.535   8.119 -0.6252 -0.3429 -0.8617
  185SLPC  H11Y21332   1.169   3.652   8.112  0.4308  0.2083 -2.3245
  185SLPC  C31221333   1.231   3.446   8.124  0.0112 -0.2829 -0.3395
  185SLPC  H12X21334   1.323   3.456   8.062 -0.9542  2.5557 -1.3672
  185SLPC  H12Y21335   1.191   3.343   8.107 -2.2579  0.6632 -0.9687
  185SLPC  C31321336   1.275   3.455   8.273  0.6066  0.2420 -0.4519
  185SLPC  H13X21337   1.192   3.438   8.344  0.5008  1.4022 -0.2915
  185SLPC  H13Y21338   1.308   3.559   8.295 -0.8213  0.1187  2.5123
  185SLPC  C31421339   1.389   3.365   8.304  0.9822  0.2293  0.0286
  185SLPC  H14X21340   1.469   3.413   8.245 -0.4817  1.6312 -0.8595
  185SLPC  H14Y21341   1.363   3.267   8.257  2.3219 -0.1289  0.0274
  185SLPC  C31521342   1.428   3.346   8.448 -0.3425  0.2818 -0.2761
  185SLPC  H15X21343   1.503   3.264   8.445  0.5860  1.1495 -0.8996
  185SLPC  H15Y21344   1.349   3.312   8.518  1.4291  0.6434  1.9911
  185SLPC  C31621345   1.504   3.465   8.505  0.8560  0.6436  0.3392
  185SLPC  H16X21346   1.425   3.535   8.539 -2.9870 -3.8273  1.1647
  185SLPC  H16Y21347   1.573   3.514   8.433 -0.1716  0.9445 -0.4556
  185SLPC  C31721348   1.569   3.422   8.635  0.5865 -0.1787 -0.0555
  185SLPC  H17X21349   1.652   3.354   8.604  0.6515 -1.0242  1.9239
  185SLPC  H17Y21350   1.493   3.361   8.689  0.3464 -0.2978 -0.5259
  185SLPC  C31821351   1.609   3.531   8.733 -0.0069  0.3437  0.4715
  185SLPC  H18X21352   1.645   3.485   8.827 -0.2569 -3.8094 -1.3639
  185SLPC  H18Y21353   1.519   3.588   8.764  0.0914  0.8529 -0.1652
  185SLPC  H18Z21354   1.687   3.601   8.695 -0.1729 -0.1216 -0.7253
  186SLPC     N21355   1.616   5.409   5.895  0.2085 -0.0647  0.2090
  186SLPC   C1321356   1.755   5.407   5.843 -0.3342  0.0048 -0.4978
  186SLPC  H13A21357   1.767   5.444   5.742  1.5274 -2.4065 -1.2040
  186SLPC  H13B21358   1.815   5.481   5.895  0.1840  1.2628 -2.7893
  186SLPC  H13C21359   1.798   5.309   5.853  0.3469  0.4457  1.1404
  186SLPC   C1421360   1.534   5.312   5.813  0.3417  0.7986 -0.5852
  186SLPC  H14A21361   1.522   5.348   5.712 -0.3832  3.1357  0.2933
  186SLPC  H14B21362   1.580   5.216   5.799  2.2154  1.3714  1.4107
  186SLPC  H14C21363   1.441   5.290   5.864  1.2867 -4.2311 -0.7383
  186SLPC   C1521364   1.569   5.552   5.881  0.3427 -0.4913  0.1257
  186SLPC  H15A21365   1.499   5.575   5.960 -1.0103 -3.4881 -0.1183
  186SLPC  H15B21366   1.649   5.623   5.871 -1.9282  1.8921 -2.0811
  186SLPC  H15C21367   1.521   5.559   5.784  1.1960 -1.5314 -0.3789
  186SLPC   C1221368   1.607   5.365   6.041  0.4164 -0.1211  0.4422
  186SLPC  H12A21369   1.637   5.261   6.043 -1.7756 -0.7998 -0.9164
  186SLPC  H12B21370   1.508   5.383   6.080 -0.0784 -1.0586 -0.3689
  186SLPC   C1121371   1.708   5.429   6.139  0.0103  0.4338  0.6158
  186SLPC  H11A21372   1.808   5.420   6.091  0.5956  1.0124  1.7180
  186SLPC  H11B21373   1.704   5.368   6.231 -2.2843  1.6230  1.3476
  186SLPC     P21374   1.573   5.607   6.270  0.2031  0.0544  0.2786
  186SLPC   O1321375   1.561   5.750   6.286 -0.0389 -0.6370  0.1209
  186SLPC   O1421376   1.452   5.539   6.223  0.0422  0.7829 -0.8187
  186SLPC   O1221377   1.686   5.569   6.165  0.0457 -0.4925  0.2059
  186SLPC   O1121378   1.617   5.550   6.409 -0.0226 -0.1612  0.4959
  186SLPC    C121379   1.758   5.561   6.448  0.1479 -1.2784 -0.6504
  186SLPC    HA21380   1.791   5.459   6.478  0.7686 -1.6582 -2.5104
  186SLPC    HB21381   1.830   5.605   6.375  1.1145 -1.3969  0.2263
  186SLPC    C221382   1.779   5.650   6.573  0.4674  0.4391 -0.5685
  186SLPC    HS21383   1.888   5.648   6.593  0.3523 -3.1478  0.1845
  186SLPC   O2121384   1.703   5.591   6.682 -0.7020  0.5962  1.2749
  186SLPC   C2121385   1.745   5.474   6.720  0.2983  0.6781  0.1662
  186SLPC   O2221386   1.857   5.424   6.693  0.5207 -0.5064  0.5458
  186SLPC   C2221387   1.647   5.408   6.828  0.0706 -0.2598 -0.7370
  186SLPC   H2R21388   1.553   5.465   6.842 -1.1231 -1.6555 -2.7820
  186SLPC   H2S21389   1.622   5.310   6.781 -0.5509 -0.5379  0.1594
  186SLPC    C321390   1.734   5.800   6.556  0.1259 -0.0192 -0.3449
  186SLPC    HX21391   1.636   5.804   6.504 -0.7594 -2.9010  1.0056
  186SLPC    HY21392   1.804   5.848   6.484  3.4379  0.3793  2.9842
  186SLPC   O3121393   1.752   5.873   6.682 -0.1452 -0.5323 -0.3474
  186SLPC   C3121394   1.634   5.907   6.733 -0.5907 -0.3511 -0.2579
  186SLPC   O3221395   1.529   5.909   6.676  0.1311 -0.4163 -0.3966
  186SLPC   C3221396   1.659   5.943   6.889  0.4210  0.0165  0.3944
  186SLPC   H2X21397   1.634   6.051   6.896 -2.9320 -0.5973 -0.9149
  186SLPC   H2Y21398   1.763   5.931   6.925  0.7097  1.5631  0.1014
  186SLPC   C2321399   1.729   5.397   6.959 -0.2274  0.0777  0.1287
  186SLPC   H3R21400   1.771   5.496   6.988  1.5947 -0.8438  0.7289
  186SLPC   H3S21401   1.815   5.336   6.925  0.5258  1.8249 -1.2438
  186SLPC   C2421402   1.658   5.325   7.071 -0.4423 -0.6854  0.2042
  186SLPC   H4R21403   1.609   5.236   7.026  0.8839 -1.2207 -0.1833
  186SLPC   H4S21404   1.585   5.398   7.112 -0.3061 -1.1316  1.2565
  186SLPC   C2521405   1.747   5.285   7.189 -0.4814 -0.1164  0.0043
  186SLPC   H5R21406   1.801   5.381   7.206  1.1463 -1.5525  3.4228
  186SLPC   H5S21407   1.825   5.211   7.164  0.9758  2.1754 -2.6123
  186SLPC   C2621408   1.675   5.256   7.320 -0.1160  0.4725  0.5756
  186SLPC   H6R21409   1.625   5.158   7.339 -2.4332  1.4578 -0.2232
  186SLPC   H6S21410   1.584   5.319   7.333 -0.7530  0.6074 -3.8398
  186SLPC   C2721411   1.780   5.272   7.431  0.3656 -0.9918  0.6655
  186SLPC   H7R21412   1.803   5.381   7.433 -0.7999 -0.7481  3.4312
  186SLPC   H7S21413   1.872   5.218   7.402  1.1975  2.5526 -3.7989
  186SLPC   C2821414   1.732   5.231   7.569  0.2954 -0.1885 -0.6752
  186SLPC   H8R21415   1.732   5.120   7.570 -1.3694 -0.2482  3.6893
  186SLPC   H8S21416   1.626   5.257   7.593  0.2622 -0.4971 -0.4906
  186SLPC   C2921417   1.814   5.306   7.672 -0.0982 -0.0904  0.1378
  186SLPC   H9R21418   1.858   5.397   7.628 -1.9928  0.5091 -0.5901
  186SLPC  C21021419   1.796   5.295   7.802  0.3655  0.1184 -0.2115
  186SLPC  H10R21420   1.854   5.353   7.874 -0.9109  0.3927  0.6210
  186SLPC  C21121421   1.706   5.196   7.877 -0.5541 -0.5549 -0.2368
  186SLPC  H11R21422   1.641   5.153   7.798 -1.0382  0.9734 -0.6916
  186SLPC  H11S21423   1.634   5.257   7.936  0.9061  0.7740  0.1941
  186SLPC  C21221424   1.798   5.106   7.962 -0.6831  0.8916  0.4899
  186SLPC  H12R21425   1.841   5.023   7.905 -0.5749  0.5793  1.0284
  186SLPC  C21321426   1.823   5.132   8.090 -0.0173 -0.0033  0.0425
  186SLPC  H13R21427   1.893   5.063   8.140 -0.5876  0.6180  1.7281
  186SLPC  C21421428   1.774   5.241   8.178  0.8964  0.4242  0.5251
  186SLPC  H14R21429   1.674   5.205   8.208  0.4855  0.6878 -0.5235
  186SLPC  H14S21430   1.736   5.323   8.113  0.5907  0.0770  0.2679
  186SLPC  C21521431   1.877   5.288   8.273 -0.1221 -0.7919 -0.3156
  186SLPC  H15R21432   1.973   5.298   8.219  0.7412  1.3055  1.5281
  186SLPC  H15S21433   1.904   5.217   8.354  2.4478  0.3834 -0.0964
  186SLPC  C21621434   1.841   5.419   8.341  0.4008 -1.1940  0.1889
  186SLPC  H16R21435   1.738   5.411   8.382  0.1187 -1.0084 -0.4860
  186SLPC  H16S21436   1.859   5.499   8.266 -1.2228 -1.2025 -0.2196
  186SLPC  C21721437   1.931   5.460   8.468 -0.8312  0.4753  0.3390
  186SLPC  H17R21438   2.035   5.458   8.429 -1.4353 -1.3762 -1.3140
  186SLPC  H17S21439   1.929   5.384   8.548  1.5496 -0.9286 -0.8658
  186SLPC  C21821440   1.894   5.594   8.520  0.2331 -0.1185 -0.2394
  186SLPC  H18R21441   1.949   5.609   8.615  1.0355  1.1751 -0.8857
  186SLPC  H18S21442   1.788   5.624   8.530  0.4424  0.7749 -0.5935
  186SLPC  H18T21443   1.938   5.665   8.446  1.7692  0.7688  1.4906
  186SLPC   C3321444   1.560   5.867   6.979 -0.6309  0.5001 -1.0590
  186SLPC   H3X21445   1.555   5.761   6.946 -0.8051 -0.2278  1.2674
  186SLPC   H3Y21446   1.459   5.912   6.976 -0.8908 -0.1595 -2.9314
  186SLPC   C3421447   1.600   5.851   7.129 -0.5959 -0.5923  0.2261
  186SLPC   H4X21448   1.509   5.831   7.190 -1.0333 -0.2584 -0.3080
  186SLPC   H4Y21449   1.654   5.943   7.160 -1.9696  0.1308  0.5018
  186SLPC   C3521450   1.697   5.740   7.144  0.5239 -0.2995 -0.1129
  186SLPC   H5X21451   1.786   5.771   7.086  1.0972 -2.0573 -0.1852
  186SLPC   H5Y21452   1.646   5.651   7.102 -0.8909  2.2102 -3.9531
  186SLPC   C3621453   1.745   5.721   7.287 -0.7454 -0.9237  0.3846
  186SLPC   H6X21454   1.771   5.820   7.330 -2.2927 -1.0575  1.6504
  186SLPC   H6Y21455   1.840   5.664   7.282  0.4613  1.0970 -0.7760
  186SLPC   C3721456   1.652   5.652   7.386 -0.4481  0.2280 -0.1884
  186SLPC   H7X21457   1.638   5.551   7.343 -0.8380 -0.3721  1.3285
  186SLPC   H7Y21458   1.557   5.709   7.397  1.0286  2.4037  1.9813
  186SLPC   C3821459   1.716   5.623   7.523 -0.4755 -0.1573  0.0068
  186SLPC   H8X21460   1.823   5.596   7.512 -0.2581 -0.1502  1.9104
  186SLPC   H8Y21461   1.656   5.543   7.571 -1.0318  0.3554  0.1728
  186SLPC   C3921462   1.718   5.743   7.621 -0.5058 -0.1784 -0.2991
  186SLPC   H9X21463   1.622   5.794   7.600 -0.9055 -0.2521  1.2584
  186SLPC   H9Y21464   1.802   5.804   7.584 -0.5866 -1.7260 -3.1361
  186SLPC  C31021465   1.728   5.706   7.774  0.0056  0.6735 -0.5060
  186SLPC  H10X21466   1.814   5.637   7.792  0.4301  1.4136  0.3175
  186SLPC  H10Y21467   1.649   5.631   7.798  2.1953 -0.6706  2.9172
  186SLPC  C31121468   1.729   5.822   7.877 -0.5346 -0.3229  0.0081
  186SLPC  H11X21469   1.628   5.813   7.922  1.2256 -0.1132  4.1825
  186SLPC  H11Y21470   1.743   5.921   7.828  1.6293 -0.0487  1.1477
  186SLPC  C31221471   1.828   5.814   7.986  0.4904  0.4078  0.1955
  186SLPC  H12X21472   1.929   5.847   7.954  0.4735  2.4383  2.1162
  186SLPC  H12Y21473   1.827   5.709   8.023 -1.6320  0.5745  0.7196
  186SLPC  C31321474   1.795   5.908   8.100 -0.2959 -0.3068  0.2826
  186SLPC  H13X21475   1.705   5.869   8.152 -1.4558  1.7120 -0.1751
  186SLPC  H13Y21476   1.777   6.005   8.048 -0.7403 -1.2011 -1.2668
  186SLPC  C31421477   1.916   5.940   8.188 -0.4084  0.5221  0.7949
  186SLPC  H14X21478   2.000   5.958   8.117 -1.5336  4.9138  0.4759
  186SLPC  H14Y21479   1.931   5.846   8.245  1.0330 -0.1120 -0.5635
  186SLPC  C31521480   1.897   6.049   8.295  0.4919 -0.1710 -0.0850
  186SLPC  H15X21481   1.844   6.130   8.240  0.0798 -0.2988  0.1201
  186SLPC  H15Y21482   1.993   6.090   8.333  0.0205  0.2202  0.6815
  186SLPC  C31621483   1.797   6.024   8.420  0.2655 -0.8938 -0.3509
  186SLPC  H16X21484   1.841   5.967   8.505 -2.3664 -0.1240  1.6038
  186SLPC  H16Y21485   1.696   5.990   8.390  1.0374 -0.7745 -3.2275
  186SLPC  C31721486   1.762   6.163   8.472 -0.0966 -0.2889  0.6503
  186SLPC  H17X21487   1.724   6.221   8.385  1.9365 -1.4350 -1.0165
  186SLPC  H17Y21488   1.860   6.203   8.505 -0.0677  0.2099 -0.0439
  186SLPC  C31821489   1.659   6.168   8.591  0.2489 -0.3049 -0.2980
  186SLPC  H18X21490   1.705   6.102   8.668  0.4266 -0.4286 -0.5105
  186SLPC  H18Y21491   1.560   6.125   8.565 -0.2155 -0.1561  1.1838
  186SLPC  H18Z21492   1.655   6.270   8.635 -0.7026 -0.8763  0.9671
  187SLPC     N21493   2.331   2.581   6.356  0.2022  0.0744 -0.1800
  187SLPC   C1321494   2.414   2.464   6.305  0.4667 -0.4631  0.5565
  187SLPC  H13A21495   2.404   2.379   6.371 -1.0944  1.4228  2.8538
  187SLPC  H13B21496   2.385   2.442   6.203  0.2383 -1.6659  0.8669
  187SLPC  H13C21497   2.515   2.502   6.306  0.9344 -1.6684  2.3165
  187SLPC   C1421498   2.336   2.694   6.248  0.8716  0.1536 -0.2949
  187SLPC  H14A21499   2.260   2.768   6.271  0.4545 -1.1875  2.8664
  187SLPC  H14B21500   2.431   2.745   6.251  1.1601 -0.3065 -1.4688
  187SLPC  H14C21501   2.322   2.663   6.146 -1.5685  0.3562 -0.0513
  187SLPC   C1521502   2.387   2.629   6.489 -0.4126 -0.4289 -0.1826
  187SLPC  H15A21503   2.471   2.696   6.477 -0.3605 -0.7621 -1.7413
  187SLPC  H15B21504   2.304   2.676   6.541  0.5550 -0.0142  1.0262
  187SLPC  H15C21505   2.407   2.537   6.541 -1.7201 -0.4950  0.2194
  187SLPC   C1221506   2.188   2.543   6.376 -0.0285  0.4989 -0.5201
  187SLPC  H12A21507   2.171   2.476   6.459  2.0602  1.2540  0.5392
  187SLPC  H12B21508   2.157   2.489   6.288 -0.4439  1.0038 -0.6804
  187SLPC   C1121509   2.088   2.655   6.398 -0.0792 -0.3987 -0.3255
  187SLPC  H11A21510   1.989   2.609   6.419 -0.8709  0.1126 -2.7802
  187SLPC  H11B21511   2.070   2.716   6.307  0.7847  0.3034 -0.0428
  187SLPC     P21512   2.031   2.858   6.562  0.2182  0.1561 -0.0823
  187SLPC   O1321513   2.091   2.989   6.539 -0.0517  0.0620 -0.6303
  187SLPC   O1421514   1.897   2.839   6.505  0.0784 -0.0111 -0.1612
  187SLPC   O1221515   2.120   2.737   6.512 -0.0331  0.1204  0.1901
  187SLPC   O1121516   2.029   2.826   6.715 -0.3350 -0.2109  0.0238
  187SLPC    C121517   2.142   2.772   6.790  0.5862  0.3607  0.2266
  187SLPC    HA21518   2.237   2.784   6.735 -1.0144  1.2780 -2.4298
  187SLPC    HB21519   2.152   2.828   6.886  1.1290 -0.7437  0.8278
  187SLPC    C221520   2.130   2.625   6.836  0.3261 -0.1437  0.4821
  187SLPC    HS21521   2.092   2.564   6.752  0.8101 -0.7025  0.6648
  187SLPC   O2121522   2.030   2.624   6.939 -0.0745  0.1946  0.3074
  187SLPC   C2121523   1.972   2.502   6.958  0.2219 -0.3726  0.4822
  187SLPC   O2221524   1.993   2.406   6.888  0.0363 -0.5998  0.0403
  187SLPC   C2221525   1.882   2.505   7.081  0.3479  0.1029  0.2931
  187SLPC   H2R21526   1.857   2.610   7.105  2.1063  0.7861 -0.7308
  187SLPC   H2S21527   1.783   2.462   7.055  1.0845 -0.6093 -1.4214
  187SLPC    C321528   2.265   2.577   6.892  0.5073  0.2182  0.9058
  187SLPC    HX21529   2.311   2.640   6.970  0.8165  2.1246 -0.7638
  187SLPC    HY21530   2.334   2.593   6.806 -0.8630  0.3944 -0.1904
  187SLPC   O3121531   2.254   2.442   6.930 -0.1069 -0.7862 -0.0638
  187SLPC   C3121532   2.302   2.343   6.851  0.1706 -0.3593 -0.5807
  187SLPC   O3221533   2.372   2.365   6.752 -0.3540  0.0168 -0.0846
  187SLPC   C3221534   2.275   2.208   6.922 -0.2414  0.2293 -0.2727
  187SLPC   H2X21535   2.230   2.143   6.843  0.0961 -0.2201 -0.1003
  187SLPC   H2Y21536   2.202   2.222   7.005 -0.6219  0.6897 -0.6849
  187SLPC   C2321537   1.942   2.418   7.194  0.6456  0.0007  0.1373
  187SLPC   H3R21538   1.959   2.317   7.151 -1.6750 -0.2894 -0.1830
  187SLPC   H3S21539   1.858   2.397   7.264  2.6446 -0.7460  2.3889
  187SLPC   C2421540   2.068   2.489   7.258  0.1142  0.4880 -0.0597
  187SLPC   H4R21541   2.149   2.500   7.182 -0.5760  0.5698 -0.7849
  187SLPC   H4S21542   2.102   2.419   7.337  2.5333  3.9758  2.1417
  187SLPC   C2521543   2.031   2.626   7.334  0.3037  0.0374  0.3375
  187SLPC   H5R21544   1.932   2.607   7.381 -0.8784 -1.2781 -2.5778
  187SLPC   H5S21545   2.013   2.710   7.264  1.5129  0.0388  0.0220
  187SLPC   C2621546   2.129   2.669   7.447  0.2712  0.0462 -0.2237
  187SLPC   H6R21547   2.142   2.597   7.530  3.1664  2.4319  1.4962
  187SLPC   H6S21548   2.090   2.759   7.500 -0.2493  0.4799 -1.3293
  187SLPC   C2721549   2.270   2.693   7.381  1.0517 -0.8370  0.4924
  187SLPC   H7R21550   2.269   2.772   7.303  0.8115 -1.3336 -0.0140
  187SLPC   H7S21551   2.310   2.605   7.327  0.6933 -0.4680 -0.3851
  187SLPC   C2821552   2.386   2.740   7.483 -0.2647 -0.1033 -0.5643
  187SLPC   H8R21553   2.478   2.748   7.422  0.2190 -0.1038  0.1534
  187SLPC   H8S21554   2.402   2.664   7.563  3.1031  1.1650  0.0611
  187SLPC   C2921555   2.379   2.875   7.549  0.0294  0.3992  1.0905
  187SLPC   H9R21556   2.416   2.952   7.480 -1.4248  0.7627  0.6914
  187SLPC  C21021557   2.341   2.905   7.675  0.1341  0.2744 -0.4973
  187SLPC  H10R21558   2.335   3.013   7.694  3.2892  0.7487 -1.7834
  187SLPC  C21121559   2.276   2.806   7.769 -0.0387 -0.0841 -1.0512
  187SLPC  H11R21560   2.355   2.766   7.837 -1.1091 -1.1080 -0.3770
  187SLPC  H11S21561   2.243   2.719   7.709 -1.3223  0.3279 -0.9607
  187SLPC  C21221562   2.164   2.873   7.844 -0.2216 -0.1646  0.2246
  187SLPC  H12R21563   2.099   2.932   7.778  0.8859  1.9052  0.9437
  187SLPC  C21321564   2.138   2.874   7.976 -0.9999 -0.0713  0.5392
  187SLPC  H13R21565   2.048   2.922   8.017 -0.2198  1.6801  0.2622
  187SLPC  C21421566   2.236   2.818   8.076  0.1271  0.0014 -0.8446
  187SLPC  H14R21567   2.239   2.879   8.168 -0.1881  0.6996 -1.2897
  187SLPC  H14S21568   2.340   2.822   8.037  0.8861 -2.2907  0.8210
  187SLPC  C21521569   2.201   2.667   8.109  0.1193 -0.9906 -0.2222
  187SLPC  H15R21570   2.218   2.611   8.015 -1.7758 -2.5954  0.3606
  187SLPC  H15S21571   2.097   2.635   8.127  0.9696 -3.5059  0.4050
  187SLPC  C21621572   2.285   2.613   8.224  0.0502 -0.6573  0.3337
  187SLPC  H16R21573   2.394   2.628   8.209  0.1711 -0.2530  1.5223
  187SLPC  H16S21574   2.256   2.506   8.236 -1.2937 -0.4876 -1.2373
  187SLPC  C21721575   2.236   2.674   8.362  0.3178  0.3901 -0.3686
  187SLPC  H17R21576   2.126   2.676   8.373  0.4763 -1.2468  1.7907
  187SLPC  H17S21577   2.278   2.776   8.353  1.5663 -0.0820  0.0020
  187SLPC  C21821578   2.298   2.604   8.492  0.2901  0.0103 -0.4472
  187SLPC  H18R21579   2.395   2.650   8.523  0.5621 -2.1397  2.1106
  187SLPC  H18S21580   2.303   2.494   8.483 -0.9432 -0.1505  0.7962
  187SLPC  H18T21581   2.226   2.614   8.576  1.5331  1.8859  0.4298
  187SLPC   C3321582   2.398   2.121   6.962  0.1845 -0.4721  0.1976
  187SLPC   H3X21583   2.484   2.176   7.007  0.5522 -0.3011 -0.7182
  187SLPC   H3Y21584   2.435   2.076   6.868 -1.5935  1.6175 -1.5476
  187SLPC   C3421585   2.349   1.997   7.042  0.6578 -0.1026 -0.6014
  187SLPC   H4X21586   2.429   1.922   7.058  0.9475  0.3643  0.1831
  187SLPC   H4Y21587   2.268   1.953   6.980  0.7238 -0.6595 -0.2934
  187SLPC   C3521588   2.304   2.039   7.188 -0.9943 -0.6350  0.1233
  187SLPC   H5X21589   2.216   2.106   7.179  0.4850  1.0265 -2.4751
  187SLPC   H5Y21590   2.382   2.096   7.243 -0.9928  1.6567 -2.1878
  187SLPC   C3621591   2.263   1.916   7.277 -0.8336  0.2151 -0.4585
  187SLPC   H6X21592   2.353   1.852   7.270 -0.0405  1.3053 -0.3065
  187SLPC   H6Y21593   2.174   1.860   7.242 -1.1316 -0.1617  0.8743
  187SLPC   C3721594   2.238   1.966   7.426  0.4376 -0.4235 -0.0122
  187SLPC   H7X21595   2.314   2.041   7.454  2.5757 -1.8001 -1.9940
  187SLPC   H7Y21596   2.140   2.017   7.412  0.6838  0.1232  0.2570
  187SLPC   C3821597   2.207   1.853   7.517  0.6426  0.0150 -0.4457
  187SLPC   H8X21598   2.300   1.792   7.514  0.2883 -0.8433  3.6744
  187SLPC   H8Y21599   2.114   1.797   7.494  0.2494  0.0825  0.9738
  187SLPC   C3921600   2.172   1.894   7.662  0.6343 -0.7638  0.2211
  187SLPC   H9X21601   2.079   1.955   7.661  0.2205 -1.3923 -0.8823
  187SLPC   H9Y21602   2.255   1.955   7.704  0.9850 -0.3225 -1.0808
  187SLPC  C31021603   2.139   1.775   7.760 -0.7670  0.0679 -0.3611
  187SLPC  H10X21604   2.214   1.696   7.737  0.8852  1.1317  1.2357
  187SLPC  H10Y21605   2.038   1.736   7.734 -1.3212 -0.6981  2.6634
  187SLPC  C31121606   2.148   1.801   7.908  0.7492  0.4293  0.4821
  187SLPC  H11X21607   2.085   1.887   7.939  2.0774  1.3401  0.7073
  187SLPC  H11Y21608   2.252   1.834   7.927  0.5045  1.0973  0.6551
  187SLPC  C31221609   2.117   1.679   7.996 -0.6888  0.5475  0.4088
  187SLPC  H12X21610   2.169   1.584   7.973  0.2792  0.9412  0.9349
  187SLPC  H12Y21611   2.009   1.671   7.968 -0.5010  2.7735 -1.0685
  187SLPC  C31321612   2.124   1.710   8.150  0.4318  0.0383  0.0009
  187SLPC  H13X21613   2.095   1.624   8.215 -3.4468  0.8553 -0.5008
  187SLPC  H13Y21614   2.047   1.788   8.169 -0.4168 -0.3954 -1.5329
  187SLPC  C31421615   2.264   1.747   8.191 -0.0338 -0.4706 -0.3006
  187SLPC  H14X21616   2.302   1.843   8.150 -1.4785  0.2261 -0.0666
  187SLPC  H14Y21617   2.340   1.677   8.150 -1.4054  0.1082 -4.1077
  187SLPC  C31521618   2.262   1.754   8.347  0.0598  0.1112 -0.7731
  187SLPC  H15X21619   2.199   1.679   8.398  0.4958 -0.9758 -1.8199
  187SLPC  H15Y21620   2.235   1.859   8.372  2.6636  1.0189 -1.5856
  187SLPC  C31621621   2.410   1.738   8.397  0.2616  0.4912 -0.1127
  187SLPC  H16X21622   2.467   1.804   8.328  1.4740 -0.5825 -0.1480
  187SLPC  H16Y21623   2.443   1.635   8.375  0.8394  0.3783  1.2164
  187SLPC  C31721624   2.436   1.772   8.541 -0.5476  0.3721  0.2597
  187SLPC  H17X21625   2.420   1.881   8.556 -1.3304  0.1517  1.1287
  187SLPC  H17Y21626   2.538   1.744   8.574  0.0314  1.7521 -0.3588
  187SLPC  C31821627   2.346   1.704   8.640 -0.5253  0.1351 -0.0263
  187SLPC  H18X21628   2.239   1.728   8.618 -0.5394 -2.2428 -2.7712
  187SLPC  H18Y21629   2.367   1.750   8.739 -1.5628 -0.3506  0.4325
  187SLPC  H18Z21630   2.363   1.596   8.654 -1.0021 -0.1372 -1.5056
  188SLPC     N21631   4.220   4.370   6.376 -0.9177  0.0868  0.8718
  188SLPC   C1321632   4.346   4.423   6.311 -0.0145  0.8105  0.0222
  188SLPC  H13A21633   4.331   4.499   6.236 -1.2493  1.0758  0.5252
  188SLPC  H13B21634   4.414   4.469   6.381 -0.0777 -0.4862  0.9486
  188SLPC  H13C21635   4.398   4.344   6.259 -3.3867 -1.9932  0.7082
  188SLPC   C1421636   4.171   4.482   6.460  0.8560  0.3518  0.3582
  188SLPC  H14A21637   4.243   4.499   6.539 -0.1341  0.2932  1.2830
  188SLPC  H14B21638   4.169   4.568   6.395 -0.7395 -1.3746 -1.9635
  188SLPC  H14C21639   4.076   4.453   6.503  0.7255 -0.0887 -0.2288
  188SLPC   C1521640   4.266   4.249   6.447 -0.0894  0.8123 -0.4608
  188SLPC  H15A21641   4.313   4.187   6.372 -0.8711 -1.4299  0.8365
  188SLPC  H15B21642   4.339   4.273   6.522 -2.6957 -2.1472  3.2145
  188SLPC  H15C21643   4.193   4.188   6.498 -0.0880  0.0120 -1.4027
  188SLPC   C1221644   4.122   4.332   6.269 -0.0219 -0.2657 -0.0673
  188SLPC  H12A21645   4.164   4.260   6.200 -0.8156  0.1081 -0.9544
  188SLPC  H12B21646   4.087   4.418   6.214 -2.5980 -1.1942  0.0380
  188SLPC   C1121647   3.999   4.256   6.319 -0.3059  0.0809 -0.2133
  188SLPC  H11A21648   4.030   4.158   6.361 -3.2026 -1.3271 -1.2962
  188SLPC  H11B21649   3.934   4.223   6.236 -0.2456 -0.3324 -0.0947
  188SLPC     P21650   3.850   4.293   6.543  0.2031 -0.4157 -0.0379
  188SLPC   O1321651   3.777   4.165   6.513  0.1159  0.4186 -0.1007
  188SLPC   O1421652   3.958   4.277   6.640  0.6960 -0.0153  0.1152
  188SLPC   O1221653   3.916   4.335   6.408 -0.4278 -0.2220 -0.1124
  188SLPC   O1121654   3.743   4.408   6.570 -0.1376  0.2065  0.2900
  188SLPC    C121655   3.795   4.531   6.609 -0.0194  0.4127 -0.3781
  188SLPC    HA21656   3.848   4.525   6.706  0.9299  0.9910 -0.8472
  188SLPC    HB21657   3.876   4.569   6.544 -1.2530 -1.5501 -3.1480
  188SLPC    C221658   3.677   4.639   6.631 -0.2450  0.2730 -0.5543
  188SLPC    HS21659   3.718   4.737   6.664 -0.1941 -0.0249  0.2850
  188SLPC   O2121660   3.593   4.598   6.741 -0.0044  0.6130 -0.3486
  188SLPC   C2121661   3.648   4.625   6.859  0.2511 -0.7090  0.4908
  188SLPC   O2221662   3.756   4.687   6.875 -0.2044 -0.4896 -0.2610
  188SLPC   C2221663   3.552   4.580   6.971 -0.2094 -0.1404  0.2685
  188SLPC   H2R21664   3.449   4.604   6.938  0.5235 -2.8825 -4.4616
  188SLPC   H2S21665   3.572   4.472   6.981  1.8193 -0.0107 -1.8491
  188SLPC    C321666   3.593   4.667   6.507 -1.0652  0.0128 -0.0217
  188SLPC    HX21667   3.538   4.578   6.470 -0.7715 -0.0926 -0.2017
  188SLPC    HY21668   3.672   4.690   6.433  0.0757  1.1229  1.4864
  188SLPC   O3121669   3.503   4.775   6.530 -0.2025 -0.3031  0.0364
  188SLPC   C3121670   3.377   4.737   6.562 -0.0413  0.5393  0.1680
  188SLPC   O3221671   3.333   4.628   6.581  0.2599 -0.1829 -0.2924
  188SLPC   C3221672   3.293   4.862   6.585  0.6740 -0.2277  0.5158
  188SLPC   H2X21673   3.291   4.915   6.488 -0.7237  0.4906  0.9348
  188SLPC   H2Y21674   3.359   4.919   6.654  2.5262  1.0093 -2.1757
  188SLPC   C2321675   3.594   4.639   7.114 -0.0610 -0.5595  0.1574
  188SLPC   H3R21676   3.573   4.748   7.119  0.2370 -0.4611 -0.6617
  188SLPC   H3S21677   3.704   4.631   7.125 -0.0985  1.2027  2.2493
  188SLPC   C2421678   3.529   4.559   7.225 -0.0858 -0.2448 -0.0402
  188SLPC   H4R21679   3.574   4.458   7.217 -1.6599 -0.8730 -1.2655
  188SLPC   H4S21680   3.419   4.555   7.207  0.1599 -0.3851 -1.5413
  188SLPC   C2521681   3.536   4.603   7.372 -0.2835  0.3520 -0.3025
  188SLPC   H5R21682   3.461   4.543   7.428 -1.0499  1.1825 -0.4333
  188SLPC   H5S21683   3.499   4.707   7.364  0.6102  0.7191  0.3274
  188SLPC   C2621684   3.678   4.586   7.424  0.0060 -0.4345  0.3203
  188SLPC   H6R21685   3.744   4.648   7.360  0.8689  0.3702  1.9432
  188SLPC   H6S21686   3.699   4.477   7.417  0.7249 -0.2211 -0.9751
  188SLPC   C2721687   3.694   4.636   7.568 -0.5742  0.5748 -0.1845
  188SLPC   H7R21688   3.612   4.583   7.620 -0.3704  0.7407  0.3091
  188SLPC   H7S21689   3.688   4.747   7.573  2.8551  0.7443  2.9329
  188SLPC   C2821690   3.830   4.591   7.635 -0.8779  0.6511  0.1958
  188SLPC   H8R21691   3.902   4.639   7.565 -1.1598  0.4051 -0.2703
  188SLPC   H8S21692   3.842   4.480   7.638 -2.6088  0.4916  2.7783
  188SLPC   C2921693   3.840   4.645   7.779 -0.6433  0.2539  1.1878
  188SLPC   H9R21694   3.807   4.575   7.857 -1.7148 -0.2013  0.3423
  188SLPC  C21021695   3.897   4.758   7.810 -0.4894 -0.0570 -0.2041
  188SLPC  H10R21696   3.887   4.789   7.915  1.7173 -2.8168  0.8677
  188SLPC  C21121697   3.964   4.860   7.719 -0.1286  0.0220 -0.1995
  188SLPC  H11R21698   3.893   4.881   7.636 -1.5761  0.7790  1.2004
  188SLPC  H11S21699   4.052   4.808   7.676 -0.1979  0.6878 -1.1342
  188SLPC  C21221700   3.986   4.995   7.793  0.5587 -0.2913 -0.0827
  188SLPC  H12R21701   3.923   5.014   7.881  2.3553 -0.3548  1.2539
  188SLPC  C21321702   4.065   5.097   7.751  0.4503  0.0508  0.2010
  188SLPC  H13R21703   4.081   5.186   7.814 -1.0073 -0.8109  1.8186
  188SLPC  C21421704   4.147   5.093   7.622 -0.5769  0.1030 -0.1746
  188SLPC  H14R21705   4.101   5.153   7.542  0.0035  1.1731  0.2880
  188SLPC  H14S21706   4.152   4.993   7.574 -1.4590 -0.2516  0.4733
  188SLPC  C21521707   4.290   5.153   7.649 -0.2908 -0.0963  0.0200
  188SLPC  H15R21708   4.349   5.088   7.718  2.6853 -0.1141 -2.4402
  188SLPC  H15S21709   4.285   5.252   7.700  0.1629 -1.1457  2.1896
  188SLPC  C21621710   4.368   5.167   7.523 -0.0694 -1.2562  0.7431
  188SLPC  H16R21711   4.457   5.230   7.547 -0.1710 -1.0449  0.5660
  188SLPC  H16S21712   4.300   5.229   7.460 -0.2305 -2.3457 -0.1677
  188SLPC  C21721713   4.415   5.039   7.456  0.7724  0.8177 -0.6622
  188SLPC  H17R21714   4.336   4.964   7.433 -0.1119  1.7423 -0.7042
  188SLPC  H17S21715   4.473   4.995   7.539 -0.6793 -1.9056 -1.0326
  188SLPC  C21821716   4.489   5.075   7.323 -0.3492 -0.2311 -0.1957
  188SLPC  H18R21717   4.416   5.103   7.244  0.4863  0.1506 -0.8398
  188SLPC  H18S21718   4.543   4.985   7.287  0.6627  0.8861 -1.5073
  188SLPC  H18T21719   4.561   5.158   7.340  0.6355 -0.6743 -2.1018
  188SLPC   C3321720   3.150   4.834   6.641 -0.5424 -0.1173  0.1508
  188SLPC   H3X21721   3.165   4.781   6.738 -0.0717 -0.5557 -0.1604
  188SLPC   H3Y21722   3.098   4.770   6.567 -0.8651 -0.4144  0.6325
  188SLPC   C3421723   3.078   4.966   6.660  1.1716 -0.2158 -0.7852
  188SLPC   H4X21724   2.969   4.947   6.661  1.3332 -1.1359  0.9747
  188SLPC   H4Y21725   3.101   5.028   6.570  1.8539 -1.3704 -1.4289
  188SLPC   C3521726   3.126   5.049   6.778  0.1156 -0.4323  0.4753
  188SLPC   H5X21727   3.229   5.092   6.776  0.6441 -1.7049 -0.6894
  188SLPC   H5Y21728   3.116   4.979   6.864 -2.4740 -0.6907 -0.0038
  188SLPC   C3621729   3.040   5.173   6.793 -0.2397  0.7888  0.1421
  188SLPC   H6X21730   2.933   5.145   6.793 -0.0420 -0.0605 -1.6654
  188SLPC   H6Y21731   3.054   5.242   6.707 -0.5500 -0.7834 -1.1894
  188SLPC   C3721732   3.073   5.256   6.914 -0.0778  0.0226 -0.2763
  188SLPC   H7X21733   2.996   5.330   6.943 -0.6839 -0.6717 -0.1074
  188SLPC   H7Y21734   3.165   5.318   6.911  0.4608 -0.7272  0.7324
  188SLPC   C3821735   3.090   5.170   7.038  0.7472  0.5995 -0.0529
  188SLPC   H8X21736   3.190   5.123   7.050 -0.0278 -1.2359 -0.5067
  188SLPC   H8Y21737   3.011   5.091   7.036  0.9564  0.3802  0.2376
  188SLPC   C3921738   3.071   5.266   7.157  0.1954  0.0380 -0.2634
  188SLPC   H9X21739   2.980   5.329   7.153  0.2933  0.2535  0.6070
  188SLPC   H9Y21740   3.153   5.341   7.148  0.1955  0.1798  0.8216
  188SLPC  C31021741   3.066   5.201   7.297 -0.1929  0.3074 -0.0391
  188SLPC  H10X21742   3.004   5.108   7.302  0.0530  0.2699  2.9148
  188SLPC  H10Y21743   3.016   5.282   7.354 -4.0482 -1.1672 -1.1285
  188SLPC  C31121744   3.201   5.151   7.351  0.0420  0.8647  0.6959
  188SLPC  H11X21745   3.299   5.183   7.310 -0.2625  2.6559  1.2747
  188SLPC  H11Y21746   3.209   5.045   7.320 -0.0651  1.2068 -0.5049
  188SLPC  C31221747   3.205   5.150   7.503  0.5958  0.0103  0.4047
  188SLPC  H12X21748   3.212   5.251   7.548 -1.0100 -0.0938  0.9115
  188SLPC  H12Y21749   3.299   5.103   7.541  0.0760 -1.9795 -0.7236
  188SLPC  C31321750   3.088   5.067   7.565  0.6194  0.3513  0.2543
  188SLPC  H13X21751   3.076   4.989   7.487  2.5404 -0.7922  1.0697
  188SLPC  H13Y21752   3.000   5.134   7.570 -0.4140 -0.9693  0.0799
  188SLPC  C31421753   3.127   5.007   7.704  0.4702 -0.1195  0.4887
  188SLPC  H14X21754   3.221   4.950   7.689  0.5533 -0.1479  1.1158
  188SLPC  H14Y21755   3.049   4.941   7.748 -1.1674  2.3145  1.3357
  188SLPC  C31521756   3.159   5.111   7.811  0.5704  0.3899 -0.1089
  188SLPC  H15X21757   3.063   5.161   7.838  0.0145 -1.2884  1.1871
  188SLPC  H15Y21758   3.225   5.182   7.758 -0.1830  1.8045  0.8107
  188SLPC  C31621759   3.225   5.063   7.942 -0.3859  0.1505 -0.2213
  188SLPC  H16X21760   3.174   4.966   7.961  0.2771 -0.6770 -2.4306
  188SLPC  H16Y21761   3.201   5.143   8.015 -0.4705  0.5168 -0.6493
  188SLPC  C31721762   3.381   5.061   7.934  0.2185 -0.8274 -1.4652
  188SLPC  H17X21763   3.404   5.150   7.872  1.0719  0.6360  0.9011
  188SLPC  H17Y21764   3.412   4.963   7.891 -1.3215 -3.0129  2.1907
  188SLPC  C31821765   3.449   5.074   8.075 -0.5748 -0.2618 -0.2571
  188SLPC  H18X21766   3.410   5.156   8.139 -0.7034  0.0592 -0.7396
  188SLPC  H18Y21767   3.559   5.091   8.073 -0.7357  1.0408  0.8040
  188SLPC  H18Z21768   3.436   4.980   8.132  0.9840 -1.3392 -1.6181
  189SLPC     N21769   4.155   5.263   6.185 -0.1341  0.7479  0.1344
  189SLPC   C1321770   4.110   5.381   6.100 -0.4209 -0.5236  0.1478
  189SLPC  H13A21771   4.040   5.444   6.153  0.8773  0.1446  1.0942
  189SLPC  H13B21772   4.188   5.440   6.055 -0.9113  0.0624  0.0642
  189SLPC  H13C21773   4.062   5.343   6.011  1.8056 -0.2256 -1.1966
  189SLPC   C1421774   4.249   5.179   6.107  0.6720  0.3441  0.1498
  189SLPC  H14A21775   4.336   5.242   6.094  1.4219 -0.3469  1.7122
  189SLPC  H14B21776   4.282   5.088   6.155  2.4832 -0.3028 -2.1655
  189SLPC  H14C21777   4.205   5.156   6.010 -0.6332 -2.1970  1.2956
  189SLPC   C1521778   4.030   5.177   6.200 -0.2087 -0.0440 -0.7022
  189SLPC  H15A21779   4.052   5.085   6.253 -0.4046 -0.8426 -1.9925
  189SLPC  H15B21780   3.948   5.238   6.236  0.8693  0.9664  0.0821
  189SLPC  H15C21781   3.989   5.158   6.102  0.3338  1.2211 -1.1823
  189SLPC   C1221782   4.215   5.299   6.321 -0.3234  0.3201 -0.0304
  189SLPC  H12A21783   4.215   5.216   6.390 -1.0660  0.1270 -0.2648
  189SLPC  H12B21784   4.148   5.369   6.369 -0.8442  0.3802 -0.8255
  189SLPC   C1121785   4.354   5.370   6.329 -0.3703 -0.0295 -0.5789
  189SLPC  H11A21786   4.387   5.366   6.435  1.4936 -0.4263 -1.1628
  189SLPC  H11B21787   4.338   5.475   6.297  0.1175 -0.2864 -1.7052
  189SLPC     P21788   4.563   5.200   6.298  0.2951  0.1053  0.0759
  189SLPC   O1321789   4.497   5.094   6.370  0.3226  0.5803 -0.1379
  189SLPC   O1421790   4.637   5.158   6.177  0.4392  0.0275  0.4371
  189SLPC   O1221791   4.458   5.306   6.255  0.5412 -0.0226  0.3718
  189SLPC   O1121792   4.662   5.272   6.399 -0.4097 -0.1549  0.5176
  189SLPC    C121793   4.694   5.408   6.392  0.4651 -0.0172 -0.0476
  189SLPC    HA21794   4.724   5.427   6.287  0.5756  1.7979  0.2981
  189SLPC    HB21795   4.605   5.472   6.410  1.8459  2.2707 -1.1597
  189SLPC    C221796   4.820   5.444   6.482 -0.0859  0.6090  0.0369
  189SLPC    HS21797   4.907   5.376   6.465 -1.4185 -1.4420  1.2003
  189SLPC   O2121798   4.784   5.458   6.615 -0.4529 -0.1283 -0.0894
  189SLPC   C2121799   4.861   5.390   6.705  0.2684  0.4433  0.0726
  189SLPC   O2221800   4.944   5.301   6.688  0.6428  0.0225  0.2095
  189SLPC   C2221801   4.830   5.450   6.845  0.2868 -0.1577 -0.4596
  189SLPC   H2R21802   4.773   5.542   6.822 -1.2752 -0.8779  0.3996
  189SLPC   H2S21803   4.758   5.381   6.895  1.4128 -1.8591 -1.1411
  189SLPC    C321804   4.888   5.573   6.434  0.3670 -0.6887  0.1760
  189SLPC    HX21805   4.804   5.646   6.441  0.2547 -0.7415 -0.5404
  189SLPC    HY21806   4.916   5.561   6.327 -0.8978  1.9121 -0.4867
  189SLPC   O3121807   4.998   5.605   6.523 -0.2224 -0.3538  0.1252
  189SLPC   C3121808   5.103   5.669   6.475 -0.5838  0.4684  0.2856
  189SLPC   O3221809   5.116   5.717   6.361  0.1662 -0.3343 -0.2179
  189SLPC   C3221810   5.208   5.684   6.574  0.2075 -1.0106  0.2541
  189SLPC   H2X21811   5.236   5.792   6.570  1.5948 -1.3331  1.1098
  189SLPC   H2Y21812   5.302   5.636   6.540  1.8447 -0.1113  3.2680
  189SLPC   C2321813   4.939   5.470   6.947  0.0145  0.1169 -0.3447
  189SLPC   H3R21814   5.018   5.542   6.916  1.5606 -1.2844  0.2438
  189SLPC   H3S21815   4.987   5.372   6.969 -0.2455  0.8441  4.0540
  189SLPC   C2421816   4.889   5.515   7.082 -0.7630 -0.5490 -0.2780
  189SLPC   H4R21817   4.833   5.438   7.139  0.1586 -0.1928  1.1385
  189SLPC   H4S21818   4.806   5.586   7.066 -1.0038 -0.6783  0.3750
  189SLPC   C2521819   4.985   5.578   7.183 -0.6694 -0.2167  0.2230
  189SLPC   H5R21820   5.010   5.673   7.132 -1.7085  1.1467  2.1690
  189SLPC   H5S21821   5.085   5.530   7.187  0.3802  1.9980  1.6517
  189SLPC   C2621822   4.934   5.606   7.322  0.2535  0.2239  0.6268
  189SLPC   H6R21823   4.923   5.508   7.372 -0.7864  0.6985  1.3652
  189SLPC   H6S21824   4.840   5.665   7.324  0.3998  0.4560  0.7736
  189SLPC   C2721825   5.041   5.692   7.387  0.1843 -0.3533  0.0326
  189SLPC   H7R21826   5.055   5.795   7.346 -1.9136  1.6908  4.1288
  189SLPC   H7S21827   5.141   5.643   7.383  0.3814 -0.0847  1.4123
  189SLPC   C2821828   4.999   5.712   7.533  0.3460  0.0097 -0.1912
  189SLPC   H8R21829   4.889   5.727   7.536  0.0503 -1.7858 -1.1652
  189SLPC   H8S21830   5.049   5.802   7.575  0.7040 -0.5716  0.6240
  189SLPC   C2921831   5.024   5.591   7.616 -0.7458 -0.2669  0.1865
  189SLPC   H9R21832   4.996   5.503   7.557 -3.1739  0.5190  0.1191
  189SLPC  C21021833   5.073   5.581   7.743 -0.1853  0.4423  0.4346
  189SLPC  H10R21834   5.091   5.480   7.782 -0.0830  0.2678 -0.0625
  189SLPC  C21121835   5.093   5.696   7.836  0.2495 -0.8313  0.7892
  189SLPC  H11R21836   5.001   5.758   7.832 -0.7097 -2.2499  0.3067
  189SLPC  H11S21837   5.168   5.765   7.794 -0.1374 -0.0025  1.4472
  189SLPC  C21221838   5.140   5.667   7.982  1.0979 -0.8604  0.1393
  189SLPC  H12R21839   5.216   5.589   7.993  0.1592 -1.8476 -0.2414
  189SLPC  C21321840   5.082   5.731   8.081  0.1463 -0.3493 -0.6703
  189SLPC  H13R21841   5.114   5.716   8.185 -0.7564  2.3523  0.0297
  189SLPC  C21421842   4.982   5.846   8.088  0.1963 -0.4474  0.1012
  189SLPC  H14R21843   4.915   5.815   8.171  0.3199  0.7544  0.6654
  189SLPC  H14S21844   4.911   5.842   8.003 -0.2416 -0.2318  0.4533
  189SLPC  C21521845   5.047   5.982   8.088 -0.7718 -0.7327  0.1033
  189SLPC  H15R21846   4.964   6.052   8.068 -2.0465 -1.4784  2.5719
  189SLPC  H15S21847   5.107   5.986   7.995  2.7810 -0.7059  2.2652
  189SLPC  C21621848   5.116   6.015   8.221 -0.1175 -0.1784 -0.3020
  189SLPC  H16R21849   5.144   6.123   8.223 -0.9909  0.0717 -1.4096
  189SLPC  H16S21850   5.208   5.953   8.236  0.3240  0.2855 -1.0433
  189SLPC  C21721851   5.011   6.007   8.336  0.0691 -0.7256  0.1750
  189SLPC  H17R21852   4.970   5.905   8.347  0.3765 -0.5754  2.8952
  189SLPC  H17S21853   4.919   6.062   8.304  0.1032  0.3759  1.9227
  189SLPC  C21821854   5.052   6.059   8.472  0.0754  0.9688  0.1855
  189SLPC  H18R21855   4.980   6.024   8.549 -0.1099 -0.1012 -0.4741
  189SLPC  H18S21856   5.053   6.170   8.483 -1.3094  1.2614 -2.5297
  189SLPC  H18T21857   5.144   6.009   8.511  0.0771 -0.8049 -2.0218
  189SLPC   C3321858   5.192   5.641   6.729 -0.1206  0.0398  0.2777
  189SLPC   H3X21859   5.167   5.534   6.711  1.3822 -0.2282 -0.2725
  189SLPC   H3Y21860   5.109   5.694   6.780 -0.8199 -0.8900  0.1223
  189SLPC   C3421861   5.327   5.666   6.795  0.1894 -0.4095 -0.2576
  189SLPC   H4X21862   5.350   5.775   6.790  2.9782 -0.7175  3.1489
  189SLPC   H4Y21863   5.403   5.616   6.732  0.9556  1.0579 -0.5236
  189SLPC   C3521864   5.350   5.619   6.940  0.5620 -0.3218  0.3144
  189SLPC   H5X21865   5.357   5.508   6.950  1.3368 -0.3162 -0.0834
  189SLPC   H5Y21866   5.248   5.642   6.975  0.4116  0.9261 -0.9091
  189SLPC   C3621867   5.467   5.683   7.009  0.6213  0.1412 -0.3629
  189SLPC   H6X21868   5.459   5.793   7.003  5.3436  0.5714 -0.4226
  189SLPC   H6Y21869   5.561   5.652   6.959  0.5388  1.0237 -1.0726
  189SLPC   C3721870   5.460   5.653   7.158 -1.2786 -0.0212  0.4031
  189SLPC   H7X21871   5.471   5.545   7.180 -0.2994  0.2182  1.1616
  189SLPC   H7Y21872   5.361   5.684   7.197 -0.5463 -0.0056  2.3120
  189SLPC   C3821873   5.561   5.724   7.245 -0.3807 -0.6636  0.7692
  189SLPC   H8X21874   5.568   5.827   7.203 -1.8792 -0.5726  0.7135
  189SLPC   H8Y21875   5.664   5.685   7.232  0.3794  1.5525 -0.1927
  189SLPC   C3921876   5.516   5.743   7.393 -0.0329 -0.6809  0.7193
  189SLPC   H9X21877   5.541   5.650   7.449  0.0490 -0.7819  0.5177
  189SLPC   H9Y21878   5.408   5.765   7.407  0.4009  0.5520  2.2746
  189SLPC  C31021879   5.591   5.858   7.454 -0.0278  0.2617  0.2400
  189SLPC  H10X21880   5.551   5.950   7.407 -0.1899 -0.3431 -0.8340
  189SLPC  H10Y21881   5.695   5.836   7.422 -0.6513 -1.8468 -0.4611
  189SLPC  C31121882   5.577   5.890   7.605 -0.0740  0.5961  0.6956
  189SLPC  H11X21883   5.636   5.984   7.613 -2.0605  2.0711 -1.1866
  189SLPC  H11Y21884   5.605   5.811   7.677  0.3905  2.2232  2.3456
  189SLPC  C31221885   5.433   5.938   7.645 -0.0460  0.0716 -0.2204
  189SLPC  H12X21886   5.374   5.844   7.653  1.9039 -1.3668 -2.0918
  189SLPC  H12Y21887   5.393   6.006   7.567  0.2637 -0.4930 -0.8760
  189SLPC  C31321888   5.432   6.030   7.776  0.1879 -0.2933 -0.1909
  189SLPC  H13X21889   5.335   6.082   7.786  1.4123  1.8625  0.8641
  189SLPC  H13Y21890   5.513   6.106   7.781  0.8045 -1.0211  1.2198
  189SLPC  C31421891   5.448   5.958   7.920  0.5412 -0.1017  0.8821
  189SLPC  H14X21892   5.549   5.920   7.942  0.8062 -0.1934 -0.4342
  189SLPC  H14Y21893   5.378   5.872   7.913  0.4371  0.0619 -0.1851
  189SLPC  C31521894   5.411   6.051   8.036 -0.8324  0.0061 -0.3547
  189SLPC  H15X21895   5.392   5.999   8.133  0.1722 -0.2175 -0.2779
  189SLPC  H15Y21896   5.318   6.096   7.995 -0.1963  0.3247 -1.4400
  189SLPC  C31621897   5.520   6.162   8.068  0.0620  0.4566 -1.3413
  189SLPC  H16X21898   5.536   6.213   7.970  2.1270 -0.1015 -1.3164
  189SLPC  H16Y21899   5.609   6.107   8.105 -0.1117  0.8644 -0.2984
  189SLPC  C31721900   5.480   6.255   8.180  0.6275 -0.0140 -0.1482
  189SLPC  H17X21901   5.569   6.295   8.234  1.0779  0.5096 -1.2561
  189SLPC  H17Y21902   5.440   6.187   8.257  1.0750 -1.0254 -0.7962
  189SLPC  C31821903   5.390   6.368   8.135 -0.4510  0.2934 -0.0515
  189SLPC  H18X21904   5.295   6.334   8.089 -0.1213 -1.1293  0.2998
  189SLPC  H18Y21905   5.444   6.436   8.066  0.6333 -1.6849 -1.1994
  189SLPC  H18Z21906   5.348   6.428   8.218 -3.9260 -0.9617 -0.8099
  190SLPC     N21907   5.347   5.109   6.079  0.0566  0.6953  0.1700
  190SLPC   C1321908   5.245   5.219   6.071  0.4921 -0.2844  0.5719
  190SLPC  H13A21909   5.265   5.301   6.139 -0.0710 -0.2806  0.7398
  190SLPC  H13B21910   5.245   5.248   5.967 -1.5365  0.7604  0.8483
  190SLPC  H13C21911   5.148   5.180   6.098  1.1722 -2.4940 -0.1160
  190SLPC   C1421912   5.466   5.147   6.008 -1.1601  0.1690  0.6133
  190SLPC  H14A21913   5.454   5.210   5.921 -1.7096  0.2867  0.7674
  190SLPC  H14B21914   5.531   5.193   6.080 -2.9819 -0.4674  2.7243
  190SLPC  H14C21915   5.524   5.064   5.970 -2.4029  0.5267 -2.2827
  190SLPC   C1521916   5.281   4.985   6.015  0.4690  0.4475  0.0205
  190SLPC  H15A21917   5.349   4.917   5.966  1.1364  0.3515  1.0472
  190SLPC  H15B21918   5.216   4.930   6.082  0.8212 -0.1501 -0.1250
  190SLPC  H15C21919   5.212   5.009   5.936  0.5660 -0.0852 -0.2330
  190SLPC   C1221920   5.366   5.073   6.226 -1.1332  0.2786  0.1191
  190SLPC  H12A21921   5.274   5.083   6.280  0.9297  3.2980  3.2901
  190SLPC  H12B21922   5.408   5.159   6.276 -2.2714  0.8477  0.1022
  190SLPC   C1121923   5.453   4.948   6.267 -0.2786 -0.4835  0.8157
  190SLPC  H11A21924   5.416   4.856   6.218 -1.6727  1.0626 -1.0857
  190SLPC  H11B21925   5.437   4.929   6.375 -1.6868  0.4490  0.7740
  190SLPC     P21926   5.689   5.080   6.306 -0.0713 -0.1355  0.2536
  190SLPC   O1321927   5.783   5.133   6.203 -0.1469 -0.1518  0.4225
  190SLPC   O1421928   5.617   5.170   6.393  0.2288 -0.1459 -0.1718
  190SLPC   O1221929   5.590   4.973   6.235 -0.0450 -0.1259 -0.0019
  190SLPC   O1121930   5.773   4.992   6.394  0.3994 -0.3241  0.2671
  190SLPC    C121931   5.783   4.849   6.380  0.0126 -0.6897 -1.0253
  190SLPC    HA21932   5.720   4.803   6.301  0.1062  0.5247 -1.8270
  190SLPC    HB21933   5.887   4.815   6.358  0.5177  0.7715 -1.0011
  190SLPC    C221934   5.739   4.765   6.503 -0.3758  0.8983  0.5035
  190SLPC    HS21935   5.629   4.775   6.495 -0.2302  3.1470  1.0008
  190SLPC   O2121936   5.800   4.812   6.625 -0.3762  0.2594 -0.2446
  190SLPC   C2121937   5.722   4.856   6.719 -0.7887  1.2599 -0.3768
  190SLPC   O2221938   5.601   4.857   6.715 -0.0594 -0.0138 -0.1344
  190SLPC   C2221939   5.799   4.916   6.836 -0.1732  0.6143  0.1362
  190SLPC   H2R21940   5.893   4.863   6.863  0.4256  2.1537  1.1064
  190SLPC   H2S21941   5.833   5.013   6.794  4.9705  0.5457  3.6808
  190SLPC    C321942   5.779   4.614   6.474  0.2479  0.3945  0.1715
  190SLPC    HX21943   5.889   4.609   6.482  0.2570 -1.0085 -0.6811
  190SLPC    HY21944   5.756   4.583   6.370  2.3115 -0.8380  0.0695
  190SLPC   O3121945   5.724   4.520   6.566 -0.2546  0.3318 -0.1405
  190SLPC   C3121946   5.605   4.457   6.546  0.7770  0.3380  0.3494
  190SLPC   O3221947   5.530   4.470   6.453 -0.3181 -0.0164 -0.8122
  190SLPC   C3221948   5.578   4.360   6.665  0.0239 -1.2389  0.6072
  190SLPC   H2X21949   5.578   4.260   6.616 -0.0060 -1.5631  1.2686
  190SLPC   H2Y21950   5.472   4.380   6.694 -1.1029 -3.7683 -1.5243
  190SLPC   C2321951   5.719   4.936   6.965 -0.1920  0.0849 -0.2181
  190SLPC   H3R21952   5.661   4.843   6.984 -1.6843  1.3754  1.7850
  190SLPC   H3S21953   5.637   5.007   6.939 -0.6882 -0.1997  0.5526
  190SLPC   C2421954   5.817   4.985   7.070  0.0023  0.1899  0.7824
  190SLPC   H4R21955   5.839   5.087   7.030  0.8884 -0.4854 -0.4719
  190SLPC   H4S21956   5.919   4.941   7.077  0.4421  1.2494  1.1999
  190SLPC   C2521957   5.745   5.010   7.204  0.1020 -0.2684  1.1628
  190SLPC   H5R21958   5.652   5.065   7.177  1.9814  0.9879 -3.2614
  190SLPC   H5S21959   5.783   5.087   7.274 -1.5273  1.4853  0.1838
  190SLPC   C2621960   5.713   4.880   7.271  0.0813 -0.6413 -0.6866
  190SLPC   H6R21961   5.800   4.814   7.288  0.0426 -0.8251 -1.1870
  190SLPC   H6S21962   5.647   4.821   7.203 -1.1242  0.4025 -0.4573
  190SLPC   C2721963   5.633   4.897   7.401 -0.4224  0.2157  0.3699
  190SLPC   H7R21964   5.569   4.808   7.420  2.5439 -1.9258  0.6933
  190SLPC   H7S21965   5.573   4.990   7.389 -0.6649  0.0463  0.2808
  190SLPC   C2821966   5.727   4.910   7.519 -0.2354  0.2951  0.2470
  190SLPC   H8R21967   5.791   4.999   7.501  0.5840  0.0966  2.0509
  190SLPC   H8S21968   5.794   4.821   7.518 -1.1227 -0.3906  1.2223
  190SLPC   C2921969   5.662   4.942   7.643  0.2979  0.2511 -0.2914
  190SLPC   H9R21970   5.599   5.033   7.637 -2.5758 -1.6041  0.6171
  190SLPC  C21021971   5.682   4.895   7.774 -0.1970 -0.7416 -0.1886
  190SLPC  H10R21972   5.622   4.932   7.859 -0.8690  1.0495 -1.3909
  190SLPC  C21121973   5.779   4.789   7.824 -0.3124  0.5933 -0.3186
  190SLPC  H11R21974   5.832   4.746   7.736  1.2954  0.0713  0.8881
  190SLPC  H11S21975   5.721   4.702   7.863  1.8395 -0.9142 -0.3569
  190SLPC  C21221976   5.879   4.845   7.924 -0.8769 -0.8455  0.3579
  190SLPC  H12R21977   5.957   4.915   7.889 -0.2638 -2.0756 -0.8016
  190SLPC  C21321978   5.914   4.782   8.042  1.0651  0.3015  0.9997
  190SLPC  H13R21979   5.989   4.836   8.101  1.5117  0.9215 -0.1169
  190SLPC  C21421980   5.853   4.654   8.094  0.5088 -0.1760  0.9815
  190SLPC  H14R21981   5.932   4.577   8.081 -0.5702 -1.1942  0.3412
  190SLPC  H14S21982   5.756   4.627   8.047  0.9760 -1.6982  0.8714
  190SLPC  C21521983   5.839   4.648   8.253 -0.1742  0.1583  0.4373
  190SLPC  H15R21984   5.759   4.719   8.282 -1.0283 -0.9808  0.9228
  190SLPC  H15S21985   5.937   4.683   8.291 -0.2667 -0.1564  0.9873
  190SLPC  C21621986   5.798   4.509   8.313 -0.5265  0.2137  0.6235
  190SLPC  H16R21987   5.889   4.446   8.320 -0.1977  0.6186  0.0854
  190SLPC  H16S21988   5.734   4.468   8.232 -2.5367  2.5610  0.9647
  190SLPC  C21721989   5.728   4.503   8.452 -0.0369 -1.2663  0.0547
  190SLPC  H17R21990   5.646   4.576   8.467  1.0379 -0.3470  1.6597
  190SLPC  H17S21991   5.812   4.518   8.524 -3.0010  1.7836  3.0415
  190SLPC  C21821992   5.671   4.367   8.484 -0.6666 -0.0278 -0.0735
  190SLPC  H18R21993   5.663   4.362   8.594 -0.1595 -1.6462 -0.0935
  190SLPC  H18S21994   5.733   4.279   8.454 -2.4495 -0.7424 -1.8224
  190SLPC  H18T21995   5.571   4.363   8.435 -0.5252  0.4568 -0.4070
  190SLPC   C3321996   5.687   4.347   6.781 -0.0251  0.1022  0.7701
  190SLPC   H3X21997   5.793   4.368   6.757  0.4004 -1.2577  1.4368
  190SLPC   H3Y21998   5.681   4.241   6.813 -1.7947  0.3063  1.1906
  190SLPC   C3421999   5.652   4.435   6.897  1.2084  0.0854  0.1993
  190SLPC   H4X22000   5.543   4.449   6.913  1.3093  1.7406 -0.4582
  190SLPC   H4Y22001   5.701   4.532   6.874  2.8694 -0.7338  0.1339
  190SLPC   C3522002   5.718   4.391   7.027  0.0226 -0.4677  0.1684
  190SLPC   H5X22003   5.828   4.385   7.015 -0.1069 -2.5008 -0.1713
  190SLPC   H5Y22004   5.676   4.289   7.038 -3.2064  0.5507 -1.7929
  190SLPC   C3622005   5.685   4.468   7.164 -0.2611 -0.2627 -0.5972
  190SLPC   H6X22006   5.575   4.484   7.165 -0.0174  2.2114  4.7034
  190SLPC   H6Y22007   5.733   4.568   7.164 -1.9703  0.5610 -1.6300
  190SLPC   C3722008   5.729   4.385   7.287 -0.2684  0.0014  0.3243
  190SLPC   H7X22009   5.837   4.362   7.296 -0.4933 -0.3749  2.3233
  190SLPC   H7Y22010   5.667   4.293   7.295  1.4582 -1.4930 -2.8700
  190SLPC   C3822011   5.693   4.464   7.414  0.1195 -0.5646  0.0996
  190SLPC   H8X22012   5.596   4.516   7.397  0.7415  0.2830 -0.8791
  190SLPC   H8Y22013   5.773   4.539   7.431  2.0261 -2.4049 -0.4857
  190SLPC   C3922014   5.680   4.377   7.544  0.0493  0.0265 -0.2876
  190SLPC   H9X22015   5.779   4.331   7.564 -0.3520 -1.0549 -0.7749
  190SLPC   H9Y22016   5.614   4.290   7.522  0.6892 -0.5568  0.0590
  190SLPC  C31022017   5.636   4.453   7.667  0.1427  0.6347 -0.5695
  190SLPC  H10X22018   5.552   4.524   7.652 -2.4070 -2.2958 -0.6468
  190SLPC  H10Y22019   5.727   4.506   7.705 -0.2522  0.2072  1.0243
  190SLPC  C31122020   5.588   4.368   7.781  0.0486  0.4334  0.0178
  190SLPC  H11X22021   5.534   4.277   7.745 -0.8753  1.8395 -2.2991
  190SLPC  H11Y22022   5.517   4.429   7.842 -2.8333 -1.6245 -1.1430
  190SLPC  C31222023   5.701   4.333   7.885 -0.0273  0.3340  0.0993
  190SLPC  H12X22024   5.772   4.419   7.894 -1.4323  1.6728 -1.2320
  190SLPC  H12Y22025   5.753   4.239   7.858 -0.8249  0.4432 -1.8888
  190SLPC  C31322026   5.658   4.319   8.032 -0.7449 -0.1764  0.6153
  190SLPC  H13X22027   5.616   4.415   8.069 -0.8478 -0.3116  0.8493
  190SLPC  H13Y22028   5.745   4.282   8.091  1.0672 -0.3905 -2.0997
  190SLPC  C31422029   5.562   4.207   8.068  0.0776  0.0848 -0.2839
  190SLPC  H14X22030   5.613   4.109   8.057  0.0264  0.0476 -0.1891
  190SLPC  H14Y22031   5.478   4.221   7.998  1.0223  0.2351 -1.4027
  190SLPC  C31522032   5.509   4.201   8.205  0.0290  0.1247  0.9076
  190SLPC  H15X22033   5.456   4.295   8.232  0.4032  0.5629  0.1403
  190SLPC  H15Y22034   5.595   4.192   8.275 -1.0722 -1.5393  2.0579
  190SLPC  C31622035   5.423   4.077   8.236 -0.1669 -0.3331  0.4459
  190SLPC  H16X22036   5.460   3.993   8.175 -0.3279  0.8290 -1.2962
  190SLPC  H16Y22037   5.318   4.101   8.209 -0.8277 -0.5156  2.7601
  190SLPC  C31722038   5.432   4.042   8.387  0.2326  0.4902  0.6057
  190SLPC  H17X22039   5.433   4.125   8.461  1.3860 -0.7234  2.0076
  190SLPC  H17Y22040   5.525   3.986   8.410  0.3523 -1.6164 -4.3633
  190SLPC  C31822041   5.323   3.943   8.431  0.0422 -0.0764  0.7593
  190SLPC  H18X22042   5.276   3.907   8.337  2.7233  2.0135 -1.4732
  190SLPC  H18Y22043   5.244   3.993   8.491 -0.3489 -1.5827  1.5147
  190SLPC  H18Z22044   5.353   3.855   8.492  0.1186 -0.0809  0.7143
  191SLPC     N22045   5.597   0.106   5.726 -0.1261 -0.0449 -0.6068
  191SLPC   C1322046   5.455   0.084   5.676 -0.8314  0.4126 -0.1813
  191SLPC  H13A22047   5.394   0.079   5.765  0.7782  2.0692  1.0535
  191SLPC  H13B22048   5.420   0.158   5.606  0.0659  1.5820  0.5869
  191SLPC  H13C22049   5.447  -0.013   5.630  0.8758 -0.4170  1.2045
  191SLPC   C1422050   5.677   0.154   5.609 -0.1348  0.1856  0.4634
  191SLPC  H14A22051   5.665   0.102   5.515  0.3379 -1.7450  1.4515
  191SLPC  H14B22052   5.656   0.258   5.586  0.3663  0.1960  0.0482
  191SLPC  H14C22053   5.784   0.141   5.616  0.1856  2.3379 -0.1385
  191SLPC   C1522054   5.660  -0.026   5.772 -0.5479 -0.0410  0.0952
  191SLPC  H15A22055   5.610  -0.057   5.863 -2.8828 -2.5481 -1.9531
  191SLPC  H15B22056   5.663  -0.105   5.700  1.4793 -2.0092  2.2670
  191SLPC  H15C22057   5.763  -0.010   5.798 -0.7092  2.0309 -0.4171
  191SLPC   C1222058   5.596   0.202   5.840  0.5632 -0.3539  0.4819
  191SLPC  H12A22059   5.551   0.296   5.812 -0.0671 -0.7310  0.2356
  191SLPC  H12B22060   5.699   0.232   5.852  0.5328 -0.0106 -0.1017
  191SLPC   C1122061   5.523   0.166   5.968 -0.1957 -0.2749 -0.0188
  191SLPC  H11A22062   5.525   0.260   6.026  0.2446 -1.0594  1.2528
  191SLPC  H11B22063   5.571   0.091   6.035  0.9229 -0.1482 -0.6703
  191SLPC     P22064   5.267   0.217   6.003  0.0546  0.1763 -0.2262
  191SLPC   O1322065   5.278   0.343   5.932 -0.1797 -0.2084  0.0729
  191SLPC   O1422066   5.140   0.148   5.997 -0.2040  0.4589 -0.2899
  191SLPC   O1222067   5.387   0.120   5.954 -0.3380  0.2292  0.3405
  191SLPC   O1122068   5.298   0.246   6.154  0.2312  0.0009 -0.1409
  191SLPC    C122069   5.341   0.149   6.246 -0.4146  0.0910 -0.5834
  191SLPC    HA22070   5.303   0.048   6.220 -0.2865 -0.9718  3.1043
  191SLPC    HB22071   5.452   0.146   6.248 -0.4465 -0.6147  0.4771
  191SLPC    C222072   5.287   0.190   6.395  0.0037  0.0235 -0.2741
  191SLPC    HS22073   5.177   0.183   6.378 -0.2221  2.8185 -0.1404
  191SLPC   O2122074   5.323   0.323   6.434 -0.5208 -0.3786  0.3143
  191SLPC   C2122075   5.247   0.423   6.394 -0.4297 -0.2353  0.3971
  191SLPC   O2222076   5.140   0.408   6.338  0.5165 -0.2793  0.2032
  191SLPC   C2222077   5.318   0.562   6.413  0.5134  0.6858 -0.7976
  191SLPC   H2R22078   5.426   0.535   6.423 -0.2551 -1.7769  1.2991
  191SLPC   H2S22079   5.290   0.620   6.323  0.0127 -0.2907 -1.2704
  191SLPC    C322080   5.325   0.080   6.506 -0.6429 -0.7649  0.0108
  191SLPC    HX22081   5.435   0.088   6.519 -0.6329  0.9810 -0.9992
  191SLPC    HY22082   5.296  -0.022   6.473  0.1556 -0.7014 -0.8958
  191SLPC   O3122083   5.256   0.122   6.627 -0.4163 -0.0943 -0.1030
  191SLPC   C3122084   5.303   0.045   6.725 -0.1080  0.5219  0.2369
  191SLPC   O3222085   5.379  -0.045   6.704 -0.2911 -0.1340 -0.7783
  191SLPC   C3222086   5.248   0.087   6.861  0.6614 -0.1200 -0.3249
  191SLPC   H2X22087   5.245  -0.014   6.909  0.3263 -0.2036 -0.5161
  191SLPC   H2Y22088   5.140   0.112   6.866  1.0324  1.5068 -0.4352
  191SLPC   C2322089   5.274   0.626   6.549 -0.4637 -0.0794 -0.2874
  191SLPC   H3R22090   5.166   0.650   6.554 -0.0629  1.9318 -0.9146
  191SLPC   H3S22091   5.327   0.722   6.566 -2.2958  0.7796  0.6606
  191SLPC   C2422092   5.325   0.542   6.672  0.2964  0.6242 -0.1004
  191SLPC   H4R22093   5.433   0.520   6.653  0.2415  0.5478 -0.3217
  191SLPC   H4S22094   5.270   0.446   6.670  1.2069  0.1080 -1.2845
  191SLPC   C2522095   5.289   0.612   6.807  0.4623 -0.6596  0.0879
  191SLPC   H5R22096   5.194   0.563   6.838  0.7705 -1.1755  0.2224
  191SLPC   H5S22097   5.278   0.721   6.789  2.5559 -0.7638 -2.0060
  191SLPC   C2622098   5.401   0.605   6.910 -0.2480 -0.4144  0.1789
  191SLPC   H6R22099   5.477   0.685   6.891  0.3857 -1.4575 -1.7334
  191SLPC   H6S22100   5.463   0.515   6.888  0.9667  0.8806 -1.8692
  191SLPC   C2722101   5.340   0.616   7.052 -0.0982  0.4364 -0.1044
  191SLPC   H7R22102   5.268   0.533   7.069 -1.6560  1.5928 -0.9662
  191SLPC   H7S22103   5.278   0.708   7.056 -3.1672 -1.5530  0.0264
  191SLPC   C2822104   5.447   0.623   7.165  0.0513 -0.1244  0.2049
  191SLPC   H8R22105   5.521   0.540   7.161  1.8888  1.2705  3.2604
  191SLPC   H8S22106   5.394   0.608   7.262 -0.0308  0.5706  0.2712
  191SLPC   C2922107   5.512   0.757   7.168  0.2483 -0.0102 -0.2424
  191SLPC   H9R22108   5.522   0.803   7.069 -0.1009 -1.8932 -1.1528
  191SLPC  C21022109   5.529   0.835   7.277 -0.0057  0.1441 -1.0057
  191SLPC  H10R22110   5.569   0.936   7.260 -0.3219  0.4542  0.0708
  191SLPC  C21122111   5.502   0.802   7.430 -0.1793  0.1123 -0.4331
  191SLPC  H11R22112   5.501   0.691   7.434 -1.8956  0.0599 -1.7740
  191SLPC  H11S22113   5.393   0.825   7.440 -0.2205 -0.3334  0.1511
  191SLPC  C21222114   5.595   0.872   7.522 -0.0076  0.2408 -0.3226
  191SLPC  H12R22115   5.654   0.951   7.473 -0.9741 -0.5410 -2.8364
  191SLPC  C21322116   5.625   0.842   7.650 -0.3103  0.1146 -0.1275
  191SLPC  H13R22117   5.705   0.901   7.697  1.5348 -2.1037 -0.4081
  191SLPC  C21422118   5.585   0.723   7.733 -0.4487 -0.3504  0.6594
  191SLPC  H14R22119   5.678   0.669   7.761  0.1822  1.0892  1.4210
  191SLPC  H14S22120   5.523   0.664   7.662  1.6925 -0.2520 -1.3583
  191SLPC  C21522121   5.501   0.758   7.854  0.5025 -1.2082 -0.7471
  191SLPC  H15R22122   5.457   0.668   7.903 -0.8340 -0.2021 -0.0432
  191SLPC  H15S22123   5.418   0.828   7.831  0.8302 -0.9330 -1.1091
  191SLPC  C21622124   5.585   0.817   7.973  0.2941  0.5268  0.0812
  191SLPC  H16R22125   5.641   0.905   7.933 -1.3380  2.5093  2.0762
  191SLPC  H16S22126   5.661   0.739   8.000 -0.9028 -0.9446 -0.7397
  191SLPC  C21722127   5.502   0.865   8.098 -1.0058  0.2088 -0.2607
  191SLPC  H17R22128   5.427   0.943   8.073 -0.5048  0.2127 -1.8375
  191SLPC  H17S22129   5.562   0.931   8.165 -0.1691  1.6909 -2.3896
  191SLPC  C21822130   5.438   0.749   8.177 -0.0446 -0.0515  0.3819
  191SLPC  H18R22131   5.399   0.664   8.116  1.1487  1.1697 -2.1681
  191SLPC  H18S22132   5.363   0.799   8.241  0.0666 -0.0956  0.5443
  191SLPC  H18T22133   5.507   0.706   8.252 -0.5385 -0.9747  0.3241
  191SLPC   C3322134   5.337   0.200   6.930 -0.4756 -0.1550  0.3935
  191SLPC   H3X22135   5.281   0.290   6.963  0.5963  0.1851  1.3295
  191SLPC   H3Y22136   5.414   0.231   6.856 -0.3629 -0.8662  0.2130
  191SLPC   C3422137   5.413   0.140   7.050  0.7256 -0.5774  0.3981
  191SLPC   H4X22138   5.467   0.051   7.011  1.0964  0.0204 -0.4806
  191SLPC   H4Y22139   5.338   0.106   7.125 -1.6554 -1.7587 -2.4488
  191SLPC   C3522140   5.508   0.240   7.109  0.4051  0.6032  0.3496
  191SLPC   H5X22141   5.451   0.318   7.163 -0.2403  0.1481  0.3248
  191SLPC   H5Y22142   5.571   0.304   7.043 -0.1204  0.8961  0.1290
  191SLPC   C3622143   5.615   0.164   7.192 -0.1066  0.4458  0.3010
  191SLPC   H6X22144   5.656   0.093   7.116  1.0293  0.8054  0.5679
  191SLPC   H6Y22145   5.565   0.118   7.280 -2.3403  0.0188 -1.1393
  191SLPC   C3722146   5.737   0.240   7.238  0.0358  0.1554  0.2216
  191SLPC   H7X22147   5.784   0.310   7.165  1.4746  0.5152  1.4529
  191SLPC   H7Y22148   5.802   0.161   7.281  0.0450  1.4685  2.7393
  191SLPC   C3822149   5.697   0.341   7.346 -0.2330 -0.1768 -1.0460
  191SLPC   H8X22150   5.615   0.407   7.311 -1.5522 -1.3437 -0.2206
  191SLPC   H8Y22151   5.784   0.409   7.358 -1.9858  1.9526 -0.1086
  191SLPC   C3922152   5.668   0.278   7.481  0.3785  0.2869  0.3747
  191SLPC   H9X22153   5.752   0.205   7.488 -1.0893 -1.5917 -1.1506
  191SLPC   H9Y22154   5.568   0.231   7.488 -0.4937  2.0998  0.2014
  191SLPC  C31022155   5.687   0.374   7.597  0.0307  0.1935 -0.2590
  191SLPC  H10X22156   5.595   0.436   7.601 -1.6187 -2.0425 -1.9835
  191SLPC  H10Y22157   5.782   0.429   7.588  1.4766 -2.3458 -0.9406
  191SLPC  C31122158   5.685   0.299   7.734  0.4631  0.8257  0.3793
  191SLPC  H11X22159   5.774   0.232   7.734 -0.5788 -0.5658  1.1994
  191SLPC  H11Y22160   5.602   0.226   7.735  1.5107 -0.4301 -1.5327
  191SLPC  C31222161   5.672   0.396   7.855 -0.0830  0.0296  0.3433
  191SLPC  H12X22162   5.601   0.478   7.828 -0.7497  0.0725  2.1401
  191SLPC  H12Y22163   5.766   0.450   7.878  1.6159 -2.0383 -1.5288
  191SLPC  C31322164   5.625   0.328   7.987  0.1149  0.0544 -0.1954
  191SLPC  H13X22165   5.693   0.243   8.007  0.7343  0.0576 -2.1354
  191SLPC  H13Y22166   5.527   0.276   7.979 -0.8391  1.8617 -0.6413
  191SLPC  C31422167   5.629   0.423   8.108 -0.6733 -0.4236  0.1556
  191SLPC  H14X22168   5.578   0.520   8.092  1.3420  0.3773 -1.7849
  191SLPC  H14Y22169   5.733   0.461   8.105 -0.9350  0.2680 -0.6343
  191SLPC  C31522170   5.588   0.367   8.246  0.1257 -0.0117  0.1310
  191SLPC  H15X22171   5.613   0.445   8.321 -0.2362  0.8575 -0.6537
  191SLPC  H15Y22172   5.634   0.268   8.267 -0.6149 -0.6181 -1.0713
  191SLPC  C31622173   5.439   0.332   8.257 -0.0380  0.4727 -0.4691
  191SLPC  H16X22174   5.425   0.234   8.207  3.3247 -0.3953  0.1758
  191SLPC  H16Y22175   5.386   0.407   8.193  0.3348  0.5440 -0.6996
  191SLPC  C31722176   5.368   0.337   8.391 -0.5477  0.1303  0.7017
  191SLPC  H17X22177   5.389   0.435   8.439 -2.0411  1.4330 -1.2344
  191SLPC  H17Y22178   5.412   0.264   8.462 -0.7183 -1.3832 -0.7237
  191SLPC  C31822179   5.215   0.322   8.384 -0.3354  0.0300 -0.0491
  191SLPC  H18X22180   5.157   0.340   8.477 -0.1445 -0.5599  0.1834
  191SLPC  H18Y22181   5.184   0.227   8.336  0.1208  1.1549 -2.6791
  191SLPC  H18Z22182   5.199   0.402   8.308 -1.4525  0.8231  0.9996
  192SLPC     N22183   6.125   1.388   6.161 -0.2902 -0.5831  0.1626
  192SLPC   C1322184   6.066   1.282   6.070 -0.0012 -0.4959  0.3013
  192SLPC  H13A22185   5.965   1.302   6.037  0.4559 -0.6918 -1.2623
  192SLPC  H13B22186   6.125   1.257   5.983 -0.0723  0.8346 -0.1359
  192SLPC  H13C22187   6.066   1.188   6.122  2.1849 -0.3659  0.5628
  192SLPC   C1422188   6.139   1.527   6.093  0.2573 -0.5057 -0.6847
  192SLPC  H14A22189   6.051   1.574   6.053  0.9122 -1.8123 -3.7911
  192SLPC  H14B22190   6.195   1.594   6.157  2.0940 -0.5906 -2.1571
  192SLPC  H14C22191   6.211   1.507   6.015  1.9825  1.6777  0.2944
  192SLPC   C1522192   6.265   1.341   6.201  0.8249  0.4555  0.2955
  192SLPC  H15A22193   6.310   1.412   6.269 -1.2574 -0.3845  2.5987
  192SLPC  H15B22194   6.247   1.253   6.261  0.0449 -0.5953 -1.4628
  192SLPC  H15C22195   6.330   1.319   6.117 -0.4918 -1.4533 -0.2380
  192SLPC   C1222196   6.047   1.418   6.284  0.3221 -0.1608 -0.2195
  192SLPC  H12A22197   5.942   1.432   6.263  0.5892  1.1394 -0.7326
  192SLPC  H12B22198   6.075   1.512   6.329 -0.0024 -1.4613  2.8651
  192SLPC   C1122199   6.040   1.299   6.395 -0.5751 -0.5178 -0.2909
  192SLPC  H11A22200   5.997   1.351   6.483  0.0738  1.3732 -1.0374
  192SLPC  H11B22201   6.145   1.280   6.426 -0.7689  1.0091  1.4060
  192SLPC     P22202   5.805   1.207   6.355  0.0315 -0.2369 -0.2162
  192SLPC   O1322203   5.773   1.338   6.295 -0.1266  0.5117  0.2687
  192SLPC   O1422204   5.739   1.086   6.288  0.2254 -0.5277 -0.0398
  192SLPC   O1222205   5.964   1.190   6.355 -0.3175  0.3074  0.3567
  192SLPC   O1122206   5.776   1.204   6.509  0.3993 -0.7472  0.2324
  192SLPC    C122207   5.833   1.118   6.603  0.3909  0.1585 -0.1776
  192SLPC    HA22208   5.917   1.058   6.563  0.4362  1.1728 -1.6539
  192SLPC    HB22209   5.883   1.172   6.686  0.0980 -1.8378  1.3388
  192SLPC    C222210   5.723   1.031   6.671  0.0508  0.0837 -0.2481
  192SLPC    HS22211   5.689   0.972   6.583  1.0810 -2.5884  1.1121
  192SLPC   O2122212   5.619   1.112   6.737  0.1125 -0.4880 -0.0526
  192SLPC   C2122213   5.504   1.055   6.746 -0.1703  0.1278  0.8345
  192SLPC   O2222214   5.475   0.938   6.711 -0.2136 -0.8326 -0.2197
  192SLPC   C2222215   5.411   1.154   6.807  0.9068  1.0616 -0.5437
  192SLPC   H2R22216   5.463   1.242   6.850  0.2780  1.2345 -0.1258
  192SLPC   H2S22217   5.366   1.202   6.717  0.9960  0.6799 -0.7945
  192SLPC    C322218   5.777   0.923   6.775 -0.0410  0.6164  0.2365
  192SLPC    HX22219   5.829   0.840   6.723 -1.0468  0.5193 -0.6249
  192SLPC    HY22220   5.690   0.876   6.826  3.4103 -3.1398  2.9655
  192SLPC   O3122221   5.861   0.976   6.876  0.3639 -0.2691  0.0974
  192SLPC   C3122222   5.816   1.011   6.998 -0.2220 -0.3238 -0.4467
  192SLPC   O3222223   5.699   0.993   7.029  0.2129  0.7178  0.0355
  192SLPC   C3222224   5.936   1.042   7.087 -0.2409 -0.5264 -0.2928
  192SLPC   H2X22225   5.999   1.118   7.038 -1.1048  1.0651  0.9931
  192SLPC   H2Y22226   6.003   0.954   7.085  1.8907  1.0788 -2.5776
  192SLPC   C2322227   5.301   1.099   6.906  0.2327  0.1647 -0.1305
  192SLPC   H3R22228   5.254   1.002   6.879  0.6168 -0.6336  1.9371
  192SLPC   H3S22229   5.224   1.178   6.895  0.0564  0.0190  0.0616
  192SLPC   C2422230   5.348   1.088   7.046  0.0252 -0.4898  0.1154
  192SLPC   H4R22231   5.419   1.173   7.059 -0.1198 -0.3316 -0.1445
  192SLPC   H4S22232   5.404   0.992   7.058  1.1838  0.2079  0.3622
  192SLPC   C2522233   5.230   1.096   7.149 -0.7436 -0.4947 -0.4784
  192SLPC   H5R22234   5.157   1.179   7.136 -0.3595 -0.3758 -2.0214
  192SLPC   H5S22235   5.272   1.118   7.249 -1.2636  1.4527 -0.6717
  192SLPC   C2622236   5.158   0.964   7.160  0.6730  0.2048 -0.3735
  192SLPC   H6R22237   5.220   0.875   7.187 -0.3600 -0.6466 -0.7423
  192SLPC   H6S22238   5.099   0.931   7.071 -1.0571 -0.0839  0.8557
  192SLPC   C2722239   5.047   0.982   7.270  0.3836  0.5978  0.0406
  192SLPC   H7R22240   4.963   1.042   7.231 -1.2033 -1.0450  0.8368
  192SLPC   H7S22241   5.089   1.037   7.357 -0.1788  0.7927  0.1854
  192SLPC   C2822242   5.007   0.848   7.328  0.2063  0.3796  0.2698
  192SLPC   H8R22243   5.097   0.814   7.384  0.8991  2.0207  0.1698
  192SLPC   H8S22244   4.991   0.785   7.238 -0.8745  3.5957 -1.8907
  192SLPC   C2922245   4.880   0.868   7.408 -1.0306 -0.3024  0.5490
  192SLPC   H9R22246   4.788   0.891   7.352 -0.1419  1.3359 -0.2680
  192SLPC  C21022247   4.870   0.841   7.542 -0.3299 -0.0395  0.1520
  192SLPC  H10R22248   4.775   0.872   7.590 -0.4545 -0.2901  0.0694
  192SLPC  C21122249   4.979   0.815   7.640  0.7074 -0.3649 -0.6243
  192SLPC  H11R22250   5.014   0.908   7.689  1.3481 -1.4336  0.9723
  192SLPC  H11S22251   5.071   0.773   7.593  1.3897  0.0646  0.3182
  192SLPC  C21222252   4.926   0.731   7.758  0.1230 -0.8370  0.5948
  192SLPC  H12R22253   4.847   0.656   7.738  0.5846 -1.3979  0.8534
  192SLPC  C21322254   4.974   0.742   7.884  0.3550  0.0227 -0.6265
  192SLPC  H13R22255   4.915   0.705   7.969  0.7998  0.8283  0.0352
  192SLPC  C21422256   5.084   0.823   7.942 -0.6495  0.9965 -0.4061
  192SLPC  H14R22257   5.113   0.918   7.891  0.5838  0.7615 -0.1723
  192SLPC  H14S22258   5.179   0.765   7.931 -0.5266  0.7457  1.8133
  192SLPC  C21522259   5.078   0.868   8.087  0.3646 -1.4994  0.3387
  192SLPC  H15R22260   4.988   0.930   8.104  0.7966  0.2618 -3.2809
  192SLPC  H15S22261   5.161   0.930   8.125  0.2635 -0.7360 -0.6725
  192SLPC  C21622262   5.085   0.748   8.181  0.0979 -0.5205  0.1344
  192SLPC  H16R22263   5.173   0.684   8.159 -1.1557 -1.7246 -1.4818
  192SLPC  H16S22264   4.992   0.688   8.169 -0.0761 -0.8915  2.8444
  192SLPC  C21722265   5.093   0.793   8.330  0.2440  1.1255 -0.4570
  192SLPC  H17R22266   5.174   0.869   8.331  0.2332  1.1699 -1.6422
  192SLPC  H17S22267   4.995   0.840   8.351  0.5518  2.1682 -1.2674
  192SLPC  C21822268   5.132   0.686   8.430 -0.0288  0.1567 -1.0967
  192SLPC  H18R22269   5.236   0.660   8.400  0.3807 -0.7721  1.0693
  192SLPC  H18S22270   5.084   0.587   8.417  0.8655 -0.5789  0.9861
  192SLPC  H18T22271   5.125   0.729   8.532 -1.1511  1.8549 -1.8569
  192SLPC   C3322272   5.897   1.080   7.225 -0.3611 -0.0346 -0.2608
  192SLPC   H3X22273   5.841   0.999   7.276  0.8286 -1.2715 -0.9070
  192SLPC   H3Y22274   5.824   1.164   7.224  0.8457  1.0301  1.0747
  192SLPC   C3422275   6.008   1.142   7.313 -0.1371 -0.3493  0.5888
  192SLPC   H4X22276   6.034   1.243   7.274  0.5250  0.2344  2.4801
  192SLPC   H4Y22277   6.106   1.089   7.314 -0.0689 -0.2507 -0.5427
  192SLPC   C3522278   5.958   1.170   7.456 -0.1852 -0.3881 -0.0019
  192SLPC   H5X22279   5.915   1.077   7.499  0.3646  0.2596  1.9864
  192SLPC   H5Y22280   5.891   1.258   7.459 -1.6849 -1.4909 -0.3168
  192SLPC   C3622281   6.071   1.198   7.550 -1.2403 -0.3728 -0.2808
  192SLPC   H6X22282   6.125   1.273   7.488 -0.7183 -1.8143 -1.6229
  192SLPC   H6Y22283   6.137   1.111   7.569  0.8466  1.2746  0.2121
  192SLPC   C3722284   6.033   1.263   7.683 -0.2630 -0.0817  0.6785
  192SLPC   H7X22285   5.976   1.358   7.670  2.4334  1.6626  1.2890
  192SLPC   H7Y22286   6.131   1.285   7.731  0.7518 -3.4336  0.2203
  192SLPC   C3822287   5.953   1.178   7.782  0.1125 -0.2301 -0.0970
  192SLPC   H8X22288   6.014   1.090   7.811 -0.2453 -1.0182 -1.6585
  192SLPC   H8Y22289   5.864   1.133   7.733 -0.5348 -1.5703  2.2926
  192SLPC   C3922290   5.921   1.260   7.906  0.1932  0.5429  0.5947
  192SLPC   H9X22291   5.851   1.342   7.879  1.4226  2.3083  2.5786
  192SLPC   H9Y22292   6.016   1.296   7.951  1.1431 -0.3048 -0.6890
  192SLPC  C31022293   5.840   1.176   8.006 -0.0942 -0.3018  0.4522
  192SLPC  H10X22294   5.893   1.092   8.056 -3.3182 -0.6981  3.3854
  192SLPC  H10Y22295   5.758   1.132   7.945 -1.5250  2.4236  0.3683
  192SLPC  C31122296   5.773   1.257   8.128 -0.5041 -0.1201  0.3593
  192SLPC  H11X22297   5.685   1.196   8.157 -1.5827  0.3342 -1.8461
  192SLPC  H11Y22298   5.753   1.353   8.076 -0.2731 -0.8984 -1.2135
  192SLPC  C31222299   5.859   1.285   8.251  0.4828  0.1908 -0.0481
  192SLPC  H12X22300   5.932   1.364   8.225 -1.1195  1.5914 -0.3560
  192SLPC  H12Y22301   5.905   1.185   8.269 -1.9180 -1.0318 -0.5136
  192SLPC  C31322302   5.777   1.339   8.368  0.0338 -0.3195 -0.3398
  192SLPC  H13X22303   5.711   1.260   8.409 -2.1214  2.1046  1.0605
  192SLPC  H13Y22304   5.706   1.418   8.334 -0.4020  0.4189  2.1690
  192SLPC  C31422305   5.878   1.384   8.473 -0.1736 -0.0173 -0.5357
  192SLPC  H14X22306   5.949   1.462   8.440  0.3519 -0.0990  0.3924
  192SLPC  H14Y22307   5.935   1.295   8.506  0.2945  0.9348  1.2884
  192SLPC  C31522308   5.804   1.446   8.593 -0.0982 -0.4125 -0.7133
  192SLPC  H15X22309   5.737   1.363   8.626 -0.7687  0.1543 -0.6440
  192SLPC  H15Y22310   5.743   1.534   8.562  0.6797 -0.6075 -2.8884
  192SLPC  C31622311   5.897   1.468   8.711  0.2600 -0.0526  0.5118
  192SLPC  H16X22312   5.934   1.568   8.681 -0.5736 -0.2474 -1.2400
  192SLPC  H16Y22313   5.979   1.393   8.719 -0.2516 -0.7014 -0.1688
  192SLPC  C31722314   5.826   1.472   8.846 -0.4663 -0.5911  0.7224
  192SLPC  H17X22315   5.728   1.522   8.838 -0.5426 -0.9626 -0.8659
  192SLPC  H17Y22316   5.886   1.543   8.908 -0.2560  0.7763 -1.0160
  192SLPC  C31822317   5.821   1.337   8.914  0.8355  0.7164 -0.0229
  192SLPC  H18X22318   5.745   1.277   8.860 -1.0364  0.6013  2.6860
  192SLPC  H18Y22319   5.799   1.337   9.022  0.1085  0.7827 -0.1711
  192SLPC  H18Z22320   5.919   1.286   8.900  0.8847  0.6382  0.6124
  193SOD    SOD22321   4.023   5.303   2.277 -0.0365 -0.9191 -0.4191
  194SOD    SOD22322   5.211   4.997  16.746  0.0070 -0.4184 -0.3038
  195SOD    SOD22323   1.495   4.902  15.725 -0.0732  0.3138 -0.4254
  196SOD    SOD22324   2.439   5.025   1.238  0.0224  0.1919  0.7124
  197SOD    SOD22325   5.726   1.744  14.770 -0.4008  0.2008 -0.1531
  198SOD    SOD22326   6.690   5.120   3.956  0.3122 -0.2068  0.3261
  199SOD    SOD22327   2.495   3.181   5.576  0.1285 -0.4030  0.0963
  200SOD    SOD22328   4.133   3.116  13.690 -0.0730 -0.1058 -0.3948
  201SOD    SOD22329   2.794   2.014  12.652 -0.5589 -0.3885  0.1359
  202SOD    SOD22330   3.322   6.377  14.551 -0.1180  0.5543 -0.1754
  203SOD    SOD22331   4.131   6.030   2.094  0.0234  0.8124 -0.4407
  204SOD    SOD22332   6.375   0.831  10.756  0.3920 -0.1624 -0.1926
  205SOD    SOD22333   0.767   2.771   6.766 -0.4287 -0.6122 -0.3888
  206SOD    SOD22334   6.352   6.005   2.147 -0.2012  0.0870  0.6084
  207SOD    SOD22335   0.226   1.514   5.911  0.8446 -0.8643 -0.0911
  208SOD    SOD22336   5.437   3.408   5.517  0.1254  0.3193  0.1034
  209SOD    SOD22337   1.911   0.752   5.351  0.0726 -0.4558 -0.4293
  210SOD    SOD22338   5.513   0.859   0.252  0.1403  0.2837 -0.0322
  211SOD    SOD22339   3.313   3.185   2.904 -0.2006 -0.3471  0.3040
  212SOD    SOD22340   6.203   6.424   5.691  0.4895 -0.2647 -0.2221
  213SOD    SOD22341   0.732   2.983  16.930  0.4245 -0.2542  0.1190
  214SOD    SOD22342   2.853   4.708   4.624 -0.5724  0.3722  0.0948
  215SOD    SOD22343   4.508   0.081  11.483  0.1335  0.1755 -0.2729
  216SOD    SOD22344   2.952   1.073   3.170  0.0520 -0.1923 -0.3964
  217SOD    SOD22345   4.601   0.405   1.806  0.5702  0.2856 -0.1359
  218SOD    SOD22346   2.915   0.694  12.151 -0.4854 -0.2216  0.4203
  219SOD    SOD22347   1.136   3.767  10.991 -0.0803 -0.1819  0.4453
  220SOD    SOD22348   0.346   6.186  14.228  0.7410  0.2559 -0.1390
  221SOD    SOD22349   3.863   6.673  11.552  0.1199  0.5878 -0.4690
  222SOD    SOD22350   3.883   4.176  14.120  0.2719  0.9739 -0.2034
  223SOD    SOD22351   0.896   3.069   5.519  0.4716  0.3914 -0.4098
  224SOD    SOD22352   2.501   6.609  13.816 -0.5480 -0.4734  0.0476
  225SOD    SOD22353   4.625   6.117   5.915 -0.5695  0.7647  0.4062
  226SOD    SOD22354   1.610   4.270  12.411  0.0802  0.1118  0.0508
  227SOD    SOD22355   1.871   2.828  10.873 -0.0706 -0.2816  0.4876
  228SOD    SOD22356   1.449   6.227  11.429  0.2443  0.5898 -0.2425
  229SOD    SOD22357   0.426   0.570  15.575 -0.0159 -0.3486  0.2148
  230SOD    SOD22358   0.095   3.981  14.807 -0.0397 -0.4549  0.1298
  231SOD    SOD22359   0.229   5.888   6.401 -0.2976  0.0883  0.2660
  232SOD    SOD22360   2.223   5.776   2.660 -0.3152 -0.3664  0.2146
  233SOD    SOD22361   5.511   6.671  16.712  0.1060  0.1014 -0.3477
  234SOD    SOD22362   5.602   5.635  11.961  0.6412  0.3124 -0.3120
  235SOD    SOD22363   2.929   0.037  14.110  0.1536  0.7104  0.0568
  236SOD    SOD22364   4.582   6.319  15.815 -0.1029  0.0846 -0.6525
  237SOD    SOD22365   3.109   6.110  11.733  0.0957 -0.5270 -0.1527
  238SOD    SOD22366   5.583   2.694  11.561  0.0616  0.2427 -0.1445
  239SOD    SOD22367   5.774   0.013  11.614 -0.0390 -0.2833 -0.4043
  240SOD    SOD22368   2.384   0.179  17.013 -0.3930 -0.1409  0.0126
  241SOD    SOD22369   6.468   5.598   6.553  0.1119  0.5549  0.1466
  242SOD    SOD22370   6.221   0.663  11.760  0.3391  0.0188 -0.4158
  243SOD    SOD22371   0.857   0.597   2.658 -0.3364  0.1596 -0.2793
  244SOD    SOD22372   1.706   3.796   2.050 -0.2320  0.1290  0.1067
  245SOD    SOD22373   3.080   2.142   5.121  0.0055 -0.1191 -0.2138
  246SOD    SOD22374   1.492   6.165  17.241 -0.3488  0.1596  0.8762
  247SOD    SOD22375   6.755   0.013   5.162  0.1466  0.3232 -0.6330
  248SOD    SOD22376   1.620   0.585   0.899 -0.4362  0.0233  0.2330
  249SOD    SOD22377   2.107   4.141   6.499  0.5438  0.5172 -0.3790
  250SOD    SOD22378   3.025   2.877   0.806 -0.3092  0.5804  0.3655
  251SOD    SOD22379   2.692   6.436   3.126 -0.1292  0.1898 -0.1063
  252SOD    SOD22380   0.412   5.357  11.326  0.5609 -0.3343  0.1626
  253SOD    SOD22381   5.607   5.123  13.566  0.5694  0.5460  0.1330
  254SOD    SOD22382   0.443   5.219   1.734  0.5008 -0.1197 -0.2622
  255SOD    SOD22383   3.111   2.030   1.734 -0.2714  0.2347  0.0439
  256SOD    SOD22384   3.460   4.584  13.282  0.1084 -0.6662  0.2146
  257SOD    SOD22385   3.896   6.596  16.959 -0.0542  0.0291 -0.4723
  258SOD    SOD22386   3.649   3.453  16.074  0.2631  0.2106 -0.0274
  259SOD    SOD22387   3.734   6.525  12.899 -0.2895  0.3739  0.1593
  260SOD    SOD22388   4.915   5.345   2.247  0.2330 -0.4629  0.0818
  261SOD    SOD22389   2.067   4.023  11.107 -0.4739  0.3259 -0.2181
  262SOD    SOD22390   5.007   0.075   5.819 -0.0258 -0.1228 -0.1344
  263SOD    SOD22391   0.864   5.368   2.286  0.1018 -0.5031  0.1328
  264SOD    SOD22392   1.774   6.749  11.505  0.0286  0.2007  0.4417
  265SOD    SOD22393   4.733   1.771   1.404 -0.0468 -0.4864 -0.0095
  266CLA    CLA22394   6.554   3.506  12.113 -0.0292  0.0272  0.4612
  267CLA    CLA22395   1.579   1.316  14.439 -0.1682  0.1120 -0.0668
  268CLA    CLA22396   2.358   3.293   0.181 -0.2495  0.0115 -0.0756
  269CLA    CLA22397   1.960   5.810  13.342  0.5018 -0.2033  0.0143
  270CLA    CLA22398   6.034   0.669  16.216 -0.1298 -0.1253  0.3512
  271CLA    CLA22399   1.194   4.689   0.855 -0.0666  0.1314  0.1286
  272CLA    CLA22400   4.500   2.616   3.270 -0.3277 -0.5148 -0.1276
  273CLA    CLA22401   2.960   3.155   2.557  0.5355  0.3685 -0.2765
  274CLA    CLA22402   2.981   0.754  12.429  0.0640 -0.2805  0.0102
  275CLA    CLA22403   0.918   1.468   0.024  0.3881 -0.2343 -0.2012
  276CLA    CLA22404   0.070   0.679  16.142 -0.3167 -0.0367 -0.1715
  277CLA    CLA22405   1.507   3.233  12.274 -0.0800 -0.1547 -0.5392
  278CLA    CLA22406   0.675   1.936  12.125  0.1686  0.1672  0.2086
  279CLA    CLA22407   2.496   5.496  12.644 -0.3457  0.1639  0.1340
  280CLA    CLA22408   5.708   6.782   1.717 -0.5769 -0.2010 -0.0690
  281CLA    CLA22409   2.825   6.006  14.323 -0.4819 -0.0248 -0.2168
  282CLA    CLA22410   4.522   6.248   4.985  0.4310  0.1031  0.3883
  283CLA    CLA22411   2.206   1.649   4.391 -0.0674 -0.0213  0.2479
  284CLA    CLA22412   1.846   3.131  11.598 -0.1699  0.2358  0.0179
  285CLA    CLA22413   0.417   4.667   4.773 -0.0762 -0.0707  0.1246
  286CLA    CLA22414   2.166   0.580  17.026  0.0383  0.2877 -0.0578
  287CLA    CLA22415   1.348   3.845   1.385 -0.0201  0.2963  0.3131
  288CLA    CLA22416   4.187   4.269   4.469  0.1283  0.4553 -0.0396
  289CLA    CLA22417   0.815   2.026   4.092 -0.3941  0.0613 -0.0573
  290CLA    CLA22418   4.670   4.655   2.185 -0.3553 -0.0417  0.0905
  291CLA    CLA22419   2.863   0.549  14.469  0.1698  0.1883 -0.1118
  292CLA    CLA22420   6.365   5.342   3.708 -0.0984  0.2007 -0.4667
  293CLA    CLA22421   5.127   1.506   1.692 -0.6587  0.0588 -0.6085
  294CLA    CLA22422   4.952   3.868   2.725  0.1144 -0.2906 -0.4916
  295CLA    CLA22423   4.094   1.183  12.493  0.2697 -0.0487  0.0644
  296CLA    CLA22424   3.107   1.002   3.542 -0.0683 -0.5120  0.6271
  297CLA    CLA22425   0.749   5.721   2.602  0.2333  0.2481  0.0245
  298CLA    CLA22426   6.440   4.742  14.028  0.3757  0.0208 -0.0047
  299CLA    CLA22427   2.648   6.588  15.022  0.4091 -0.2589 -0.1014
  300CLA    CLA22428   4.123   0.803  16.123  0.2184 -0.1315 -0.0045
  301CLA    CLA22429   2.781   6.766  14.605 -0.1100 -0.0762  0.3047
  302CLA    CLA22430   4.904   5.430  13.015  0.3292  0.2291 -0.2763
  303CLA    CLA22431   4.326   2.906  13.715 -0.2360 -0.1179 -0.1929
  304CLA    CLA22432   2.868   1.013   0.810  0.3215  0.0314 -0.0016
  305CLA    CLA22433   4.375   6.131  15.090 -0.2292 -0.5667 -0.3230
  306CLA    CLA22434   5.188   5.631   5.333  0.0682  0.4169 -0.1647
  307CLA    CLA22435   4.706   0.838  14.155  0.1448  0.0559  0.2260
  308CLA    CLA22436   0.275   4.196  15.537 -0.2887  0.1054  0.1870
  309CLA    CLA22437   6.638   6.328   1.101  0.2552  0.0030 -0.2897
  310CLA    CLA22438   3.200   2.207   3.994  0.3323 -0.1781  0.0455
  311CLA    CLA22439   5.804   0.429   0.282 -0.0448  0.0879  0.2696
  312CLA    CLA22440   0.526   1.376  12.817 -0.3514  0.5713  0.3291
  313CLA    CLA22441   4.519   0.235   2.204  0.3277  0.3439 -0.1286
  314CLA    CLA22442   3.093   3.763  16.739  0.3116  0.1469 -0.3284
  315CLA    CLA22443   5.599   6.318   0.858 -0.3480 -0.0441 -0.2333
  316CLA    CLA22444   0.989   0.510   5.014 -0.2003  0.0352  0.1626
  317CLA    CLA22445   2.586   5.676   2.416  0.2011 -0.3236  0.0083
  318CLA    CLA22446   5.288   1.395  14.802  0.0870  0.1217  0.1671
  319TIP3   OH222447   5.364   4.499   3.200  0.3340 -0.0787  0.2216
  319TIP3    H122448   5.441   4.530   3.248  0.4628 -0.1930  0.0892
  319TIP3    H222449   5.358   4.558   3.125  0.0144  0.2253  0.4834
  320TIP3   OH222450   4.188   4.406  16.548 -0.1255 -0.1597  0.1639
  320TIP3    H122451   4.275   4.368  16.559  0.4723  0.9980 -0.4100
  320TIP3    H222452   4.161   4.430  16.637 -0.4232 -1.7114  0.5008
  321TIP3   OH222453   3.319   3.598   0.236 -0.8329 -0.5927  0.1429
  321TIP3    H122454   3.347   3.512   0.204 -0.5719 -0.2737 -0.4918
  321TIP3    H222455   3.278   3.579   0.321 -0.1732 -1.2651  0.3252
  322TIP3   OH222456   4.583   1.716  15.799 -0.4914  0.3280  0.7376
  322TIP3    H122457   4.541   1.745  15.718 -0.9815 -1.0110  0.4867
  322TIP3    H222458   4.510   1.700  15.859 -0.1538  0.9203  1.3031
  323TIP3   OH222459   3.416   0.772  16.984 -0.5830  0.6089  0.2021
  323TIP3    H122460   3.358   0.709  16.941  0.3702 -0.2884  0.2201
  323TIP3    H222461   3.386   0.775  17.074 -2.5755  2.4791 -0.4832
  324TIP3   OH222462   6.151   6.313  13.469  0.1187  0.4842 -0.2190
  324TIP3    H122463   6.114   6.401  13.467  2.2300  1.4064 -0.2397
  324TIP3    H222464   6.196   6.304  13.384 -2.3019 -1.6231 -1.3306
  325TIP3   OH222465   2.707   6.200  11.353 -0.2954  0.1648  0.7409
  325TIP3    H122466   2.776   6.224  11.291  1.1986  2.3300  3.1163
  325TIP3    H222467   2.723   6.107  11.371 -0.0858 -0.2075 -1.2534
  326TIP3   OH222468   4.398   4.981   5.384 -0.1322  0.9264  0.4070
  326TIP3    H122469   4.367   4.922   5.316 -0.2842  1.2963  0.1501
  326TIP3    H222470   4.355   4.951   5.464  1.0155 -0.2752  0.5801
  327TIP3   OH222471   5.336   1.911  11.620  0.3378 -0.0549 -0.2487
  327TIP3    H122472   5.313   1.819  11.612  0.4567 -0.1001 -0.0794
  327TIP3    H222473   5.289   1.941  11.698 -0.6434  0.3277 -0.9711
  328TIP3   OH222474   6.151   1.603   4.556  0.3536  0.1744  0.3143
  328TIP3    H122475   6.074   1.549   4.576  1.5654 -2.6393 -2.2122
  328TIP3    H222476   6.224   1.559   4.599  0.9270  1.5208  0.7494
  329TIP3   OH222477   4.871   1.725   2.093 -0.6575  0.1160  0.1456
  329TIP3    H122478   4.842   1.634   2.105 -1.4111  0.4623  0.9916
  329TIP3    H222479   4.941   1.736   2.158  0.1770 -0.1807 -0.6921
  330TIP3   OH222480   3.757   2.082  10.827  0.5511  0.0507  0.0229
  330TIP3    H122481   3.699   2.146  10.786  0.3587 -0.3183 -0.2852
  330TIP3    H222482   3.842   2.125  10.830  0.2248  0.6634  0.6432
  331TIP3   OH222483   2.248   1.389   4.088  0.0894 -0.3630  0.6723
  331TIP3    H122484   2.285   1.461   4.035  2.2094 -0.7404  1.5860
  331TIP3    H222485   2.298   1.391   4.169  1.2192 -3.8058  0.1417
  332TIP3   OH222486   6.239   3.163  13.840 -0.5307 -0.1602 -0.6335
  332TIP3    H122487   6.283   3.088  13.880 -1.3675  0.0827  0.8041
  332TIP3    H222488   6.266   3.238  13.894  0.9001  0.7065 -2.5130
  333TIP3   OH222489   2.085   2.553  15.852  0.4836 -0.2762 -0.5698
  333TIP3    H122490   2.060   2.646  15.855  0.0406 -0.4372  1.1954
  333TIP3    H222491   2.168   2.553  15.804 -0.5421  0.7845 -2.3913
  334TIP3   OH222492   2.934   5.355  14.274  0.0858  0.3350 -0.2206
  334TIP3    H122493   2.856   5.399  14.308  0.8897  0.0733  2.0338
  334TIP3    H222494   3.006   5.388  14.327  1.0391 -1.9795 -0.0133
  335TIP3   OH222495   1.568   4.002  16.063  0.4747  0.0227 -0.3391
  335TIP3    H122496   1.524   3.922  16.089 -1.8462  1.5696  0.6709
  335TIP3    H222497   1.613   3.980  15.982 -0.4227 -2.1813 -0.2596
  336TIP3   OH222498   4.998   0.694   0.097  0.1006 -0.4728  0.4126
  336TIP3    H122499   5.001   0.599   0.101 -1.4731 -0.7196 -2.3493
  336TIP3    H222500   4.933   0.719   0.162 -3.9150 -1.8405 -2.8249
  337TIP3   OH222501   0.764   2.054  12.396 -0.2422  0.4393 -0.0238
  337TIP3    H122502   0.752   2.023  12.307  0.3798 -2.5377  0.8639
  337TIP3    H222503   0.682   2.031  12.441 -0.4384  1.6450  0.2559
  338TIP3   OH222504   1.531   2.929  11.206 -0.4504 -0.0517  0.0774
  338TIP3    H122505   1.519   2.946  11.113  1.2514 -2.2411 -0.5671
  338TIP3    H222506   1.621   2.955  11.224 -1.2815  1.9824  1.5234
  339TIP3   OH222507   0.266   2.651   4.200  0.2183  0.4682  0.0692
  339TIP3    H122508   0.213   2.726   4.172  0.2489  1.0214  1.4550
  339TIP3    H222509   0.204   2.593   4.244  0.6028  0.7146  0.9416
  340TIP3   OH222510   3.950   3.556  15.658 -0.1862 -0.3535 -0.0267
  340TIP3    H122511   3.977   3.607  15.734  1.7016 -0.7649 -0.3837
  340TIP3    H222512   3.899   3.616  15.604  1.4175  0.9723 -0.1002
  341TIP3   OH222513   0.399   3.712   4.509  0.0896  0.1716  0.6433
  341TIP3    H122514   0.432   3.704   4.599  1.1268  0.1815  0.2630
  341TIP3    H222515   0.471   3.684   4.454 -1.6012 -2.8889 -0.1188
  342TIP3   OH222516   6.162   3.804   1.314 -0.1335  0.5937  0.6189
  342TIP3    H122517   6.136   3.789   1.405 -0.2881 -0.4984  0.3999
  342TIP3    H222518   6.161   3.899   1.304 -2.8651  0.6193  0.9416
  343TIP3   OH222519   6.009   0.102   2.333  0.0820 -0.4025 -0.6989
  343TIP3    H122520   6.032   0.165   2.401  1.0635 -0.1899 -1.2061
  343TIP3    H222521   5.919   0.077   2.352  0.6203 -0.9836  1.1772
  344TIP3   OH222522   6.716   5.712  15.341 -1.0381 -0.6965 -0.1144
  344TIP3    H122523   6.629   5.678  15.322 -2.2016  1.9167  0.3870
  344TIP3    H222524   6.754   5.729  15.255 -1.3925 -0.8950 -0.3140
  345TIP3   OH222525   2.456   4.767  15.732 -0.0357  0.2395  0.4326
  345TIP3    H122526   2.432   4.752  15.641 -3.0557 -0.8692  1.3540
  345TIP3    H222527   2.505   4.688  15.758  1.7333  1.0067 -0.4739
  346TIP3   OH222528   4.352   5.786   4.282  0.6140  0.7405 -0.2982
  346TIP3    H122529   4.364   5.814   4.191  1.7515  1.5998  0.0920
  346TIP3    H222530   4.324   5.865   4.327 -1.6875 -0.0993 -0.2165
  347TIP3   OH222531   0.818   3.858  15.587 -0.2825  0.0226 -0.2207
  347TIP3    H122532   0.824   3.951  15.564  3.0444 -0.0484  0.1804
  347TIP3    H222533   0.908   3.830  15.598 -1.3181 -2.8151  1.5741
  348TIP3   OH222534   0.530   0.415   4.635  0.1275 -0.1402 -0.0692
  348TIP3    H122535   0.520   0.331   4.681 -0.6319  0.7213  1.4042
  348TIP3    H222536   0.614   0.449   4.666  0.3172 -0.2409 -0.4743
  349TIP3   OH222537   3.198   0.405   1.342  0.2535 -0.0087 -0.2990
  349TIP3    H122538   3.177   0.396   1.434  1.4379 -1.6339 -0.1729
  349TIP3    H222539   3.217   0.498   1.331  3.7860 -0.3627  1.9274
  350TIP3   OH222540   4.031   1.481  15.003  0.2257  0.3925 -0.1539
  350TIP3    H122541   4.013   1.558  15.057  1.7136  1.2464 -0.8334
  350TIP3    H222542   4.037   1.515  14.914 -0.1511 -0.6861 -0.5975
  351TIP3   OH222543   1.960   1.901  13.926  0.0419 -0.3590  0.3996
  351TIP3    H122544   1.959   1.913  14.021  0.3191 -0.2805  0.3932
  351TIP3    H222545   1.987   1.986  13.892 -0.7908 -0.1613  0.2089
  352TIP3   OH222546   3.187   6.187   4.453 -0.5323 -0.4843 -0.4865
  352TIP3    H122547   3.104   6.156   4.488 -1.1246  2.0728  0.4318
  352TIP3    H222548   3.200   6.136   4.373 -2.2887 -1.8442  0.0637
  353TIP3   OH222549   0.704   5.336   3.425 -0.0594 -0.3344 -0.5548
  353TIP3    H122550   0.789   5.335   3.381 -0.6196 -1.5251 -1.6526
  353TIP3    H222551   0.682   5.244   3.437 -0.6150 -0.0184  0.8778
  354TIP3   OH222552   1.737   3.006   1.304  0.0100  0.5928 -0.4966
  354TIP3    H122553   1.708   2.926   1.261  1.1471  0.3531 -0.8532
  354TIP3    H222554   1.659   3.041   1.346 -1.0873  0.7243 -2.5956
  355TIP3   OH222555   1.509   0.309  11.446  0.0211 -0.0281  0.7362
  355TIP3    H122556   1.424   0.344  11.422 -0.0967 -1.5885 -1.2575
  355TIP3    H222557   1.556   0.383  11.484 -1.7221  1.1825  0.5740
  356TIP3   OH222558   3.562   0.699  11.361 -0.3981  0.1277  0.1447
  356TIP3    H122559   3.536   0.787  11.333  0.2188  0.5234  0.8077
  356TIP3    H222560   3.479   0.653  11.374 -0.7023  0.1246 -1.7244
  357TIP3   OH222561   2.118   5.813  15.709  0.7586 -0.3443 -0.5603
  357TIP3    H122562   2.038   5.762  15.693  0.0112  0.6923 -0.2221
  357TIP3    H222563   2.100   5.860  15.791  2.4982 -1.6121  0.5901
  358TIP3   OH222564   2.265   0.854  16.418 -0.0106 -0.4378  0.1429
  358TIP3    H122565   2.280   0.872  16.325 -2.0081 -0.2530 -0.1546
  358TIP3    H222566   2.263   0.941  16.459  1.1146 -0.5295  0.4143
  359TIP3   OH222567   0.928   6.174   2.061  0.3707  0.2170  0.4047
  359TIP3    H122568   0.915   6.235   2.133 -2.9378  2.2028 -1.7563
  359TIP3    H222569   1.005   6.205   2.015 -0.4271  1.9294  0.2041
  360TIP3   OH222570   0.615   5.242  13.900  0.3801 -0.0981  0.3608
  360TIP3    H122571   0.700   5.265  13.862  0.7077 -1.3297  0.3340
  360TIP3    H222572   0.620   5.272  13.991  1.1196 -0.8373  0.5642
  361TIP3   OH222573   3.306   0.978  12.522  0.6807 -0.6103  0.3364
  361TIP3    H122574   3.373   0.959  12.588  0.6460 -0.6311  0.3646
  361TIP3    H222575   3.312   0.905  12.460  0.0833 -1.0751  0.8161
  362TIP3   OH222576   0.044   1.314   1.764  0.4659  0.5969  0.4448
  362TIP3    H122577  -0.038   1.363   1.772  0.2144  0.6205 -1.9457
  362TIP3    H222578   0.089   1.356   1.691  0.4036 -2.5074 -1.4449
  363TIP3   OH222579   5.814   5.641   3.208  0.0746 -0.3003  0.0259
  363TIP3    H122580   5.821   5.624   3.302  0.4931  1.1893  0.2772
  363TIP3    H222581   5.782   5.731   3.203  0.7159 -0.1439 -1.2652
  364TIP3   OH222582   5.584   3.332   3.728 -0.8160  0.6975 -0.4400
  364TIP3    H122583   5.655   3.350   3.666  1.0388 -2.2105  0.7228
  364TIP3    H222584   5.505   3.338   3.675  0.6287 -0.7132 -2.8944
  365TIP3   OH222585   5.760   5.692   4.975  0.0123 -0.1809 -0.2758
  365TIP3    H122586   5.775   5.683   4.881 -0.8808 -0.8970 -0.3584
  365TIP3    H222587   5.711   5.614   5.000 -0.4054  0.3571  0.6451
  366TIP3   OH222588   0.458   0.349   3.386 -0.0854  0.3627  0.1266
  366TIP3    H122589   0.379   0.331   3.334  0.8023 -1.4411 -0.6500
  366TIP3    H222590   0.530   0.339   3.323  1.2140 -4.2660  2.1060
  367TIP3   OH222591   2.749   4.751  10.658  0.4644  0.3232 -0.3545
  367TIP3    H122592   2.824   4.695  10.678  0.9443  1.7869  2.1518
  367TIP3    H222593   2.673   4.695  10.675  0.9434  0.1807  1.4249
  368TIP3   OH222594   2.441   5.968   1.762  0.2576 -0.2936  0.1071
  368TIP3    H122595   2.478   5.990   1.847 -0.7427  0.6276  0.3161
  368TIP3    H222596   2.375   5.901   1.781  2.2216 -2.4418 -0.3452
  369TIP3   OH222597   5.232   4.717   2.446  0.0568 -0.0311  0.2619
  369TIP3    H122598   5.138   4.715   2.462 -0.1768  0.1939 -0.9910
  369TIP3    H222599   5.258   4.625   2.445 -0.0617 -0.0738  1.0958
  370TIP3   OH222600   1.363   1.429   2.362 -0.2398  0.1682 -1.0723
  370TIP3    H122601   1.284   1.400   2.316  0.5597 -1.2782 -1.5689
  370TIP3    H222602   1.367   1.374   2.440  0.1675  0.3789 -0.9398
  371TIP3   OH222603   2.091   0.001  16.134  0.4042  0.1002 -0.2382
  371TIP3    H122604   2.003  -0.029  16.114  0.5964 -0.6157 -0.0247
  371TIP3    H222605   2.079   0.079  16.189 -0.0813 -1.4538  1.8981
  372TIP3   OH222606   4.355   0.080  16.830  0.5349  0.0196 -0.5983
  372TIP3    H122607   4.349   0.083  16.735 -2.6691 -1.3740 -0.5313
  372TIP3    H222608   4.274   0.122  16.860  0.1758 -1.9895  1.4265
  373TIP3   OH222609   3.988   1.674   4.181 -0.4115 -0.5247  0.0577
  373TIP3    H122610   3.926   1.701   4.113  1.3606  2.0353 -0.6269
  373TIP3    H222611   3.944   1.602   4.226 -3.0957  0.0087 -1.5695
  374TIP3   OH222612   0.536   3.019   4.865 -0.2954  0.4431 -0.7185
  374TIP3    H122613   0.616   3.062   4.837 -0.5252  0.7162 -0.9664
  374TIP3    H222614   0.467   3.062   4.814 -0.7374  1.0334  0.3659
  375TIP3   OH222615   2.811   3.170  16.137  0.4212 -0.4370 -0.1223
  375TIP3    H122616   2.785   3.249  16.185  0.2189 -1.2795  1.2101
  375TIP3    H222617   2.865   3.121  16.200  1.8354 -0.6313 -1.4685
  376TIP3   OH222618   3.654   1.407  15.649 -0.5833 -0.2240  0.6078
  376TIP3    H122619   3.636   1.497  15.622 -0.3345  0.0163  1.2144
  376TIP3    H222620   3.569   1.372  15.676 -0.4972  0.2083  1.4560
  377TIP3   OH222621   5.334   4.750  15.389 -0.8794 -0.6696  0.4942
  377TIP3    H122622   5.363   4.667  15.350  0.2738  1.3051 -3.1280
  377TIP3    H222623   5.410   4.807  15.382 -2.4969  1.5213  0.4092
  378TIP3   OH222624   6.787   4.222  14.490 -0.0341  0.3045  0.4653
  378TIP3    H122625   6.776   4.272  14.571  0.6452  0.7157  0.3114
  378TIP3    H222626   6.866   4.171  14.505 -0.0876  0.1402  0.1795
  379TIP3   OH222627   5.826   2.861   5.338  0.1600  1.1256 -0.4954
  379TIP3    H122628   5.797   2.809   5.413 -0.7508  0.6218 -1.1869
  379TIP3    H222629   5.916   2.886   5.359  1.8995 -3.6771 -1.6851
  380TIP3   OH222630   0.077   0.805  11.839  0.3511  0.9397  0.6543
  380TIP3    H122631   0.072   0.710  11.846  1.7903  0.7796 -0.2450
  380TIP3    H222632   0.105   0.834  11.926 -1.5271  0.6740  1.3593
  381TIP3   OH222633   4.590   0.943  12.687 -0.1756 -0.5212  0.2541
  381TIP3    H122634   4.674   0.908  12.657 -0.5413 -1.8450  0.7061
  381TIP3    H222635   4.547   0.975  12.608  1.2874  1.3821  0.1936
  382TIP3   OH222636   2.646   5.927  12.625 -0.0751 -0.1808  0.3719
  382TIP3    H122637   2.631   6.016  12.659 -0.7275  0.7472 -2.2189
  382TIP3    H222638   2.567   5.879  12.649 -1.0775  0.8077 -0.8684
  383TIP3   OH222639   4.628   4.137  11.660  0.2130 -0.1235  0.1349
  383TIP3    H122640   4.719   4.166  11.659  0.1082  0.3348  1.8215
  383TIP3    H222641   4.627   4.058  11.607  1.7749 -0.6350  0.8496
  384TIP3   OH222642   5.239   5.039   2.877  0.0624 -0.4482 -0.1631
  384TIP3    H122643   5.334   5.029   2.884  0.1281 -0.8740 -1.4794
  384TIP3    H222644   5.204   4.952   2.897 -0.1343 -0.0443  1.3686
  385TIP3   OH222645   5.747   3.778  11.359 -0.7885 -0.0189  0.3483
  385TIP3    H122646   5.841   3.759  11.365 -0.5139  1.4211  0.6844
  385TIP3    H222647   5.705   3.692  11.371  0.5128 -0.9580 -1.4956
  386TIP3   OH222648   0.608   0.966  15.420 -0.9157 -0.2546  0.2597
  386TIP3    H122649   0.565   1.027  15.480  1.9248  0.8789  1.2179
  386TIP3    H222650   0.624   1.016  15.340 -1.4377 -0.6935 -0.1256
  387TIP3   OH222651   3.688   2.530   5.252 -0.1389 -0.1777  0.3949
  387TIP3    H122652   3.756   2.463   5.262  0.2622  0.4122  1.7303
  387TIP3    H222653   3.736   2.611   5.238 -0.6350 -0.3030 -2.3605
  388TIP3   OH222654   3.605   5.110  13.694  0.2936 -0.3869 -0.5177
  388TIP3    H122655   3.543   5.160  13.748  0.6921  1.4304 -1.7225
  388TIP3    H222656   3.685   5.108  13.746 -0.7388 -2.7477  1.0490
  389TIP3   OH222657   2.827   6.154   5.963  0.6785 -0.0709  0.4780
  389TIP3    H122658   2.825   6.063   5.935  2.7908 -0.6681  2.1060
  389TIP3    H222659   2.868   6.201   5.890  1.4669 -0.7592  0.4794
  390TIP3   OH222660   1.141   6.718  13.639 -0.0837 -0.1890  0.2156
  390TIP3    H122661   1.144   6.810  13.613  0.2588 -0.0268  0.8346
  390TIP3    H222662   1.088   6.717  13.718 -0.1601 -0.5337  0.1599
  391TIP3   OH222663   6.436   6.303   4.381 -0.7914  0.5608  0.1333
  391TIP3    H122664   6.351   6.347   4.386 -1.2384 -0.4156  1.5103
  391TIP3    H222665   6.500   6.374   4.381 -1.5118  1.2533  2.2935
  392TIP3   OH222666   3.966   2.559   2.384  0.8574 -0.0442 -0.2460
  392TIP3    H122667   3.923   2.504   2.319 -0.0052  1.7926 -1.2763
  392TIP3    H222668   4.035   2.604   2.335  0.8275  0.6221  0.3161
  393TIP3   OH222669   3.633   0.526  16.876 -0.4286  0.2834  0.3036
  393TIP3    H122670   3.610   0.571  16.795 -1.3126 -1.3086 -0.3397
  393TIP3    H222671   3.576   0.564  16.942 -0.5907  0.6983 -0.0743
  394TIP3   OH222672   4.436   3.119  13.040  0.1610 -0.0220  0.2753
  394TIP3    H122673   4.343   3.099  13.050  0.6643 -1.3611  2.7216
  394TIP3    H222674   4.481   3.053  13.093  2.6396 -0.6929 -2.4980
  395TIP3   OH222675   3.000   6.594  13.733  0.0365 -0.5794  0.3081
  395TIP3    H122676   3.076   6.547  13.766 -0.2202 -3.4076 -2.9138
  395TIP3    H222677   3.033   6.644  13.658 -0.8660 -0.1940  0.1565
  396TIP3   OH222678   5.006   5.021   3.199 -0.2315  0.8486  0.0396
  396TIP3    H122679   4.952   4.957   3.246  1.8073 -0.0498  1.2252
  396TIP3    H222680   4.956   5.102   3.203 -1.7738 -0.1124  0.5800
  397TIP3   OH222681   1.162   1.174  12.481 -0.7499  0.3285  0.5807
  397TIP3    H122682   1.149   1.080  12.477 -0.3594  0.2805  0.5154
  397TIP3    H222683   1.149   1.204  12.391  1.0332  0.1038  0.2465
  398TIP3   OH222684   0.551   4.679  14.257  0.4553  0.1931 -0.1244
  398TIP3    H122685   0.598   4.689  14.174  2.6089  1.6184  1.1863
  398TIP3    H222686   0.459   4.685  14.234  0.8616 -2.8593 -2.8376
  399TIP3   OH222687   1.994   2.833  17.123 -0.2725  0.5758  0.2420
  399TIP3    H122688   2.070   2.810  17.176  0.4652  0.3731 -0.8631
  399TIP3    H222689   2.003   2.927  17.107  0.1493  0.4196 -0.4799
  400TIP3   OH222690   6.791   4.204   1.291  0.2121 -0.6233 -0.0846
  400TIP3    H122691   6.851   4.185   1.218 -1.3555  0.4316 -1.7021
  400TIP3    H222692   6.778   4.120   1.334  2.2993 -0.9925 -0.1360
  401TIP3   OH222693   5.018   1.091   6.297 -0.0638 -0.6006 -0.7015
  401TIP3    H122694   5.019   1.137   6.380 -0.5843 -2.6071  0.4548
  401TIP3    H222695   4.936   1.117   6.256  0.7723  1.3528 -1.1628
  402TIP3   OH222696   2.734   3.379   5.095 -0.2373  0.3783  0.6007
  402TIP3    H122697   2.686   3.327   5.030  1.2380  2.2844 -2.1188
  402TIP3    H222698   2.681   3.457   5.107  0.0455  0.5354  0.8329
  403TIP3   OH222699   0.169   1.889  12.854  0.1064  0.6115  0.5847
  403TIP3    H122700   0.231   1.876  12.926  0.1514  0.7592  0.5710
  403TIP3    H222701   0.192   1.973  12.817 -1.4471  1.6701  1.9219
  404TIP3   OH222702   5.914   6.522  15.561 -0.2365  0.1796  0.7642
  404TIP3    H122703   5.905   6.588  15.630 -2.8699 -0.2136  0.8831
  404TIP3    H222704   5.884   6.566  15.481 -0.3376 -0.3347  0.5126
  405TIP3   OH222705   6.142   6.342   3.680 -0.3491  0.1496 -0.4394
  405TIP3    H122706   6.146   6.391   3.762 -2.6409  0.8332 -0.7165
  405TIP3    H222707   6.155   6.251   3.705 -2.3150  0.2104  0.8359
  406TIP3   OH222708   1.792   1.247   2.262  0.2112  0.2810  0.2951
  406TIP3    H122709   1.805   1.175   2.325 -0.7132  1.1528  1.5127
  406TIP3    H222710   1.783   1.203   2.178 -1.5262 -1.1432  1.1837
  407TIP3   OH222711   0.075   0.583  12.477  0.1442 -0.2958  0.1155
  407TIP3    H122712   0.127   0.663  12.487 -1.3060  0.7161 -0.3050
  407TIP3    H222713  -0.015   0.614  12.464 -0.6170 -2.0133  1.0415
  408TIP3   OH222714   2.197   5.409   6.062 -0.0792 -0.0231 -0.5627
  408TIP3    H122715   2.182   5.494   6.104  1.4858 -0.7270  1.5161
  408TIP3    H222716   2.259   5.365   6.120 -0.2582 -2.2782 -2.0455
  409TIP3   OH222717   2.339   1.646  12.850  0.9392 -0.2959  0.6235
  409TIP3    H122718   2.290   1.700  12.789 -0.7914 -1.0098  1.3399
  409TIP3    H222719   2.392   1.708  12.900 -2.5994  1.0534  2.8966
  410TIP3   OH222720   6.396   4.968   4.586 -0.0300  0.3344 -0.2090
  410TIP3    H122721   6.442   4.982   4.504  2.5803 -1.8658  0.7856
  410TIP3    H222722   6.429   5.038   4.644  1.1674 -0.4945  0.1294
  411TIP3   OH222723   3.987   0.394  12.403 -0.1528  0.3508 -0.0663
  411TIP3    H122724   4.026   0.478  12.424  0.4844  0.0842 -0.1877
  411TIP3    H222725   4.008   0.338  12.478  1.4634 -0.3788 -1.0355
  412TIP3   OH222726   3.411   3.930   4.803 -0.2592 -0.0280 -0.1820
  412TIP3    H122727   3.433   4.015   4.766 -3.2755  1.4359  1.1725
  412TIP3    H222728   3.334   3.901   4.753 -1.5156 -0.1914  1.7733
  413TIP3   OH222729   6.551   4.998  16.996 -0.0354  0.2335 -0.2975
  413TIP3    H122730   6.603   4.926  16.960  1.9389  1.7931 -0.6166
  413TIP3    H222731   6.585   5.011  17.085  1.0596  2.1445 -0.9790
  414TIP3   OH222732   4.089   6.029   0.901  0.4869 -0.3211  0.3554
  414TIP3    H122733   4.157   5.976   0.860  0.9236  1.5354 -1.4420
  414TIP3    H222734   4.008   5.982   0.884  0.7074  0.2074 -2.3682
  415TIP3   OH222735   2.382   2.512   5.954  0.5831 -0.0164  0.1087
  415TIP3    H122736   2.324   2.444   5.988 -0.1901  0.2168 -0.6843
  415TIP3    H222737   2.322   2.582   5.926  1.3825  1.1885  1.3294
  416TIP3   OH222738   2.844   6.742   3.598 -0.1542 -0.3206  0.0436
  416TIP3    H122739   2.800   6.708   3.676  1.3081 -2.6418 -0.0782
  416TIP3    H222740   2.875   6.828   3.623 -0.3431 -0.7477  1.7859
  417TIP3   OH222741   2.402   5.153  16.968  0.5858  0.1197  0.0971
  417TIP3    H122742   2.393   5.091  16.896 -1.7051  0.1254  0.3522
  417TIP3    H222743   2.328   5.213  16.958  1.6478  1.6345  1.0179
  418TIP3   OH222744   0.370   5.454  12.392 -0.7313  0.2701 -0.0481
  418TIP3    H122745   0.339   5.411  12.472  0.8490  0.7256  0.8207
  418TIP3    H222746   0.340   5.544  12.400 -0.6455  0.2951 -0.0103
  419TIP3   OH222747   1.622   0.005  10.712 -0.0330  0.4431 -0.1967
  419TIP3    H122748   1.697  -0.054  10.706 -0.4137 -0.4635  2.9233
  419TIP3    H222749   1.660   0.092  10.706  1.1141 -0.0282 -0.0311
  420TIP3   OH222750   2.960   2.604   1.112  0.6183 -0.3448 -0.3079
  420TIP3    H122751   2.975   2.510   1.104 -0.4752 -0.4250 -1.4386
  420TIP3    H222752   3.022   2.644   1.050 -0.5920 -0.4477 -1.5989
  421TIP3   OH222753   6.332   2.930   6.479  0.6187 -0.1964  0.2195
  421TIP3    H122754   6.352   2.837   6.476 -1.5147 -0.7061  0.6371
  421TIP3    H222755   6.244   2.934   6.518  0.3926  1.9301 -0.4393
  422TIP3   OH222756   2.550   6.183   1.623 -0.3600  0.8158 -0.0820
  422TIP3    H122757   2.515   6.098   1.651 -0.2724  0.8393  0.0977
  422TIP3    H222758   2.601   6.214   1.698  0.5742  0.4861 -0.5683
  423TIP3   OH222759   6.123   4.160  17.244 -0.0481 -0.1506 -0.3501
  423TIP3    H122760   6.071   4.164  17.325  2.2768  1.8661  1.0990
  423TIP3    H222761   6.108   4.245  17.203  0.6788 -0.2603 -0.8381
  424TIP3   OH222762   6.645   5.366   5.260  0.1528 -0.3964 -0.1583
  424TIP3    H122763   6.569   5.312   5.281  1.4355 -1.1492  2.7499
  424TIP3    H222764   6.674   5.333   5.174 -1.4472 -1.6383 -0.2447
  425TIP3   OH222765   2.174   3.610   0.134 -0.1524 -0.0016 -0.0995
  425TIP3    H122766   2.144   3.607   0.043 -0.3548 -0.2172 -0.0257
  425TIP3    H222767   2.212   3.524   0.149 -0.0407  0.0641 -0.0036
  426TIP3   OH222768   6.237   0.723   5.173 -0.0955  0.6519  0.0239
  426TIP3    H122769   6.326   0.706   5.203 -0.4747 -0.7884  0.3593
  426TIP3    H222770   6.190   0.750   5.252  0.0286  1.3784 -0.1469
  427TIP3   OH222771   4.726   4.306   2.012  0.0641  0.4212  0.3080
  427TIP3    H122772   4.770   4.239   2.064 -2.7164 -0.7522  1.2633
  427TIP3    H222773   4.683   4.362   2.077 -1.6067  0.2553 -0.6177
  428TIP3   OH222774   5.763   1.536   3.248 -0.2949 -0.7816  0.0311
  428TIP3    H122775   5.729   1.466   3.193 -2.0816  0.1317 -0.0813
  428TIP3    H222776   5.689   1.561   3.304 -0.0258  1.6850 -0.6347
  429TIP3   OH222777   1.491   2.748  13.174  0.3251 -0.0161  0.4879
  429TIP3    H122778   1.431   2.795  13.232  1.2418  3.1689 -1.0643
  429TIP3    H222779   1.440   2.730  13.095 -0.3248 -2.6431  1.4298
  430TIP3   OH222780   4.729   2.699   3.093 -0.7127 -0.1504 -0.5331
  430TIP3    H122781   4.652   2.661   3.136 -1.4527 -0.0953 -1.7870
  430TIP3    H222782   4.738   2.650   3.011 -0.6037  1.1519 -1.3190
  431TIP3   OH222783   3.590   1.612  14.282 -0.7382 -0.1161 -0.3707
  431TIP3    H122784   3.650   1.685  14.298 -0.2380 -0.7647  0.7362
  431TIP3    H222785   3.645   1.534  14.286 -1.3623 -0.6030 -1.0393
  432TIP3   OH222786   3.927   5.646  10.710  0.1078  0.5572  1.0607
  432TIP3    H122787   3.933   5.593  10.789  1.1066 -1.9421 -0.6391
  432TIP3    H222788   4.011   5.690  10.704 -0.2092  1.2545  1.7342
  433TIP3   OH222789   0.073   5.303   6.285 -0.2509  0.1368  0.3898
  433TIP3    H122790   0.073   5.375   6.348 -1.0145 -0.0202  0.5747
  433TIP3    H222791  -0.020   5.279   6.276  0.1320 -1.8943  1.5650
  434TIP3   OH222792   0.324   5.345  12.648 -0.1518 -0.0828 -0.1104
  434TIP3    H122793   0.251   5.282  12.647 -1.6815  1.5991  1.7824
  434TIP3    H222794   0.355   5.345  12.739  0.1765  1.4894 -0.2056
  435TIP3   OH222795   3.966   4.532  14.827 -0.3732 -0.0754  0.3363
  435TIP3    H122796   3.905   4.605  14.832 -1.7086 -1.0023 -1.6503
  435TIP3    H222797   3.930   4.467  14.888 -0.3708  0.0812  0.5053
  436TIP3   OH222798   0.284   2.269  12.014  0.1659 -0.1255 -0.1082
  436TIP3    H122799   0.368   2.251  11.972  0.2211  1.4334 -0.6973
  436TIP3    H222800   0.259   2.186  12.054  1.6919 -0.7646 -0.4478
  437TIP3   OH222801   3.269   0.206   5.472  0.0014 -0.3050  0.1369
  437TIP3    H122802   3.354   0.170   5.447 -0.2720 -0.1832 -1.0035
  437TIP3    H222803   3.286   0.298   5.491  0.1581 -0.3237  0.0843
  438TIP3   OH222804   1.818   3.109   0.553 -0.0496  0.3359  0.1449
  438TIP3    H122805   1.890   3.088   0.494 -0.5228  0.3093 -0.4232
  438TIP3    H222806   1.839   3.062   0.634  0.3605 -0.0090 -0.1626
  439TIP3   OH222807   2.188   4.980  15.803  0.3577 -0.0109  0.0172
  439TIP3    H122808   2.216   4.911  15.864  2.6369  0.8919  0.0373
  439TIP3    H222809   2.122   5.030  15.852  1.1953 -0.1061  1.2544
  440TIP3   OH222810   2.210   2.826   3.722 -0.1110  0.3649  0.3088
  440TIP3    H122811   2.195   2.836   3.627  1.5131 -0.0290  0.0077
  440TIP3    H222812   2.181   2.910   3.759 -1.5777  0.2065 -0.4224
  441TIP3   OH222813   5.107   5.706   3.134  0.0763  0.0745 -0.2205
  441TIP3    H122814   5.052   5.684   3.059 -2.6569  4.7363  0.2392
  441TIP3    H222815   5.186   5.742   3.096  0.2444 -0.9066 -0.8357
  442TIP3   OH222816   1.146   1.681  10.879 -0.1785  0.1571 -0.0599
  442TIP3    H122817   1.091   1.687  10.957 -0.0107 -0.4834  0.1029
  442TIP3    H222818   1.089   1.712  10.808  0.0164  1.7844  0.4661
  443TIP3   OH222819   6.219   4.115   5.763  0.0891 -0.0490 -0.3682
  443TIP3    H122820   6.250   4.186   5.707 -0.0287  0.0065 -0.3626
  443TIP3    H222821   6.124   4.122   5.761  0.1031  0.4797  0.5284
  444TIP3   OH222822   4.743   3.048  16.257  0.2098 -0.1924  0.1280
  444TIP3    H122823   4.832   3.076  16.236  0.4066 -0.1544  0.9833
  444TIP3    H222824   4.754   2.961  16.295  0.0905  0.6297  2.0934
  445TIP3   OH222825   4.682   4.707   1.236 -0.1484  0.0725  0.1424
  445TIP3    H122826   4.729   4.701   1.153 -1.1461  0.5942 -0.4765
  445TIP3    H222827   4.733   4.767   1.289 -0.0786  0.5825 -0.4937
  446TIP3   OH222828   5.654   0.098   2.787 -0.8146  0.2799 -0.1971
  446TIP3    H122829   5.560   0.085   2.800 -0.9717  1.6019  0.0822
  446TIP3    H222830   5.673   0.181   2.830  0.6219 -0.3136  0.3707
  447TIP3   OH222831   3.714   5.725   0.606 -0.0525 -0.5628 -0.0156
  447TIP3    H122832   3.657   5.796   0.637 -0.8938 -1.2347 -0.0201
  447TIP3    H222833   3.664   5.645   0.622  0.5517 -1.0984 -0.7754
  448TIP3   OH222834   1.546   0.917   1.078  0.0362 -0.1688  0.2634
  448TIP3    H122835   1.477   0.958   1.130  1.5295  2.0743  0.5562
  448TIP3    H222836   1.626   0.933   1.128  0.9430 -1.5522 -0.7230
  449TIP3   OH222837   3.691   2.867   4.149 -0.2749 -0.0306  0.2251
  449TIP3    H122838   3.767   2.821   4.182  0.0465  0.3097 -0.0374
  449TIP3    H222839   3.721   2.957   4.136 -0.7621  0.1395  0.2765
  450TIP3   OH222840   3.593   2.850  12.884  0.1247  0.1469  0.6209
  450TIP3    H122841   3.636   2.931  12.855  0.3529  0.6013  2.1819
  450TIP3    H222842   3.500   2.867  12.872  0.3030 -0.7972 -2.6757
  451TIP3   OH222843   6.638   6.820   1.107  0.8312 -0.6062  0.2170
  451TIP3    H122844   6.635   6.908   1.070  3.8764  0.2870  1.9131
  451TIP3    H222845   6.642   6.762   1.031  0.1648  0.7898 -0.9034
  452TIP3   OH222846   0.293   1.294  15.165  0.9034 -0.5151  0.2737
  452TIP3    H122847   0.312   1.342  15.084  0.7093  0.1825  0.6349
  452TIP3    H222848   0.204   1.322  15.188  2.0290  1.5436  2.2961
  453TIP3   OH222849   5.779   4.727  16.976  0.1256  0.2904 -0.0481
  453TIP3    H122850   5.702   4.694  17.023  0.5300  0.3156  0.6393
  453TIP3    H222851   5.748   4.741  16.887 -0.8288  0.8561  0.3581
  454TIP3   OH222852   3.902   1.698   3.302 -0.7364  0.2081 -0.6326
  454TIP3    H122853   3.971   1.708   3.369 -0.5754 -0.3607 -0.7132
  454TIP3    H222854   3.850   1.624   3.333  1.1454 -2.0483 -2.6973
  455TIP3   OH222855   2.968   4.810   5.481  0.3462 -0.6410 -0.3706
  455TIP3    H122856   3.052   4.834   5.520  0.1322 -0.2019 -0.1750
  455TIP3    H222857   2.903   4.830   5.549 -0.2329  1.9976 -1.6587
  456TIP3   OH222858   1.834   2.190  12.113  0.3904  0.0553  0.0190
  456TIP3    H122859   1.814   2.259  12.178 -1.4143  2.0078 -2.5007
  456TIP3    H222860   1.750   2.145  12.100  1.2390 -1.7201  0.5715
  457TIP3   OH222861   0.900   4.426   4.999  0.3098 -0.7360 -0.2263
  457TIP3    H122862   0.820   4.468   5.030  0.0067  0.3120 -2.3428
  457TIP3    H222863   0.970   4.466   5.051 -0.5538 -2.0508  2.0171
  458TIP3   OH222864   1.686   2.523   6.483  0.1478 -0.1742 -0.1866
  458TIP3    H122865   1.635   2.490   6.409  0.2131 -1.5518  0.3723
  458TIP3    H222866   1.763   2.467   6.486  0.1679 -0.1009  0.8951
  459TIP3   OH222867   2.177   6.072   3.553 -0.4164 -0.0794 -0.4110
  459TIP3    H122868   2.168   5.990   3.505 -0.5191  0.3886 -1.1915
  459TIP3    H222869   2.099   6.122   3.532 -0.3160  0.2603 -0.0001
  460TIP3   OH222870   2.797   6.377   4.939 -0.1350  0.7599  0.4810
  460TIP3    H122871   2.848   6.451   4.906 -2.0815  2.4604  1.2015
  460TIP3    H222872   2.708   6.412   4.950 -0.6914 -1.1960  2.5030
  461TIP3   OH222873   1.344   4.391  13.296 -0.2482  0.7252  0.0198
  461TIP3    H122874   1.439   4.380  13.290 -0.5415 -1.0553 -1.8756
  461TIP3    H222875   1.321   4.441  13.218 -1.0268 -0.1740 -0.3400
  462TIP3   OH222876   0.330   0.979   3.384  0.2244  0.5065  0.2166
  462TIP3    H122877   0.381   0.917   3.436 -1.1086 -1.0228 -0.2538
  462TIP3    H222878   0.278   0.924   3.325 -0.2416  2.1112 -0.9094
  463TIP3   OH222879   4.770   5.810   3.032 -0.2252  0.3615  0.0195
  463TIP3    H122880   4.826   5.832   2.958 -0.3440  0.3069 -0.0869
  463TIP3    H222881   4.710   5.744   2.997  1.3620 -1.5669  0.8252
  464TIP3   OH222882   4.460   4.562   1.195 -0.4977 -0.3742 -0.4493
  464TIP3    H122883   4.543   4.609   1.202 -2.0789  2.5166 -0.0477
  464TIP3    H222884   4.439   4.564   1.101 -0.4411 -0.4813 -0.4637
  465TIP3   OH222885   1.207   0.367  14.757 -0.1150  0.1869 -0.6912
  465TIP3    H122886   1.198   0.458  14.785  1.4253 -0.4835  2.1820
  465TIP3    H222887   1.230   0.373  14.664  1.3926  2.7936 -0.2076
  466TIP3   OH222888   0.526   6.820  16.692  1.0155  0.2385 -0.1675
  466TIP3    H122889   0.486   6.765  16.624  2.3872  0.1782 -0.9296
  466TIP3    H222890   0.613   6.783  16.705  0.6851  0.1015  1.8227
  467TIP3   OH222891   6.362   2.226  17.012  0.2440  0.8029  0.0492
  467TIP3    H122892   6.328   2.311  17.040 -0.4195  0.9546 -1.2267
  467TIP3    H222893   6.285   2.177  16.983  0.5733 -0.3695  1.0942
  468TIP3   OH222894   2.792   1.351  11.541 -0.7744  0.1797  0.3945
  468TIP3    H122895   2.864   1.361  11.480 -0.8808 -0.5714  0.1382
  468TIP3    H222896   2.713   1.354  11.487 -0.9546  1.1738  0.6950
  469TIP3   OH222897   2.204   0.995  16.095  0.0988  0.4489  0.0719
  469TIP3    H122898   2.183   0.949  16.013 -0.1880  2.3874 -0.9641
  469TIP3    H222899   2.131   0.973  16.154 -0.2392 -0.0932 -0.5342
  470TIP3   OH222900   1.101   4.656   1.506  0.0454  0.1799 -0.4712
  470TIP3    H122901   1.165   4.670   1.436 -0.1444  0.8128 -0.5206
  470TIP3    H222902   1.020   4.633   1.461  0.1255 -0.1962 -0.4256
  471TIP3   OH222903   2.756   5.985   6.316 -0.2041  0.0714 -0.7368
  471TIP3    H122904   2.814   6.003   6.390 -2.1575  1.6141  0.4952
  471TIP3    H222905   2.722   5.897   6.332 -0.3353  0.2584  0.0317
  472TIP3   OH222906   1.387   4.539  14.809 -0.3186  1.0355  0.2613
  472TIP3    H122907   1.456   4.545  14.874  0.9606  2.2545 -1.1760
  472TIP3    H222908   1.321   4.602  14.837 -0.4358  0.5425  1.1223
  473TIP3   OH222909   5.963   2.122  11.411 -0.0256  0.6073  0.4399
  473TIP3    H122910   5.922   2.172  11.340  1.1724  0.4902 -0.3560
  473TIP3    H222911   6.056   2.118  11.387  0.1420 -0.7418  1.2312
  474TIP3   OH222912   0.397   3.238  16.050 -0.4154 -0.0298  0.0657
  474TIP3    H122913   0.435   3.325  16.053  0.3253 -0.2456 -2.3509
  474TIP3    H222914   0.402   3.212  15.958  0.1592 -2.9442  0.8489
  475TIP3   OH222915   5.435   5.359   6.329 -0.1796  0.1543 -0.2216
  475TIP3    H122916   5.452   5.445   6.367 -0.6270 -0.2895  1.0051
  475TIP3    H222917   5.518   5.312   6.336  0.2463  0.6865 -1.4776
  476TIP3   OH222918   3.252   3.609   5.895 -0.2264  0.2181  0.0745
  476TIP3    H122919   3.297   3.537   5.850  2.1574  0.7985  1.4163
  476TIP3    H222920   3.243   3.580   5.985 -0.3145  1.1120  0.3620
  477TIP3   OH222921   4.137   2.087  14.398 -0.5188  0.5987 -0.3712
  477TIP3    H122922   4.163   2.050  14.483  0.8415  0.1755 -0.9702
  477TIP3    H222923   4.080   2.161  14.422 -0.6626  0.1009  0.8975
  478TIP3   OH222924   4.438   4.757  14.338  0.3151  0.1345  0.3435
  478TIP3    H122925   4.522   4.721  14.307 -0.0133 -1.0740  0.8798
  478TIP3    H222926   4.390   4.777  14.257  0.8919  0.3156  0.0377
  479TIP3   OH222927   3.731   2.419  10.780  0.1473 -0.1539  0.0067
  479TIP3    H122928   3.734   2.472  10.700  1.3645  0.7144  0.6236
  479TIP3    H222929   3.820   2.386  10.790 -0.2662 -1.1498  0.4141
  480TIP3   OH222930   0.363   5.930   4.930 -0.0775  0.5601  0.3254
  480TIP3    H122931   0.305   5.956   4.858  1.8679  2.3417 -0.6400
  480TIP3    H222932   0.310   5.943   5.009 -0.9316  2.4435 -0.5133
  481TIP3   OH222933   0.489   3.311  11.830 -0.5377  0.1055  0.3320
  481TIP3    H122934   0.449   3.225  11.818  0.7370 -0.5153  0.4672
  481TIP3    H222935   0.568   3.307  11.776 -0.8084  1.4255 -0.1749
  482TIP3   OH222936   3.338   1.713  11.581  0.0204  0.5641 -0.2027
  482TIP3    H122937   3.290   1.786  11.541 -0.3830 -0.0605 -0.8793
  482TIP3    H222938   3.334   1.643  11.515  0.3333 -0.0974  0.4729
  483TIP3   OH222939   3.787   2.093   3.640  0.3988  0.3635  0.6277
  483TIP3    H122940   3.780   2.188   3.627 -0.3514  0.2882  0.4794
  483TIP3    H222941   3.879   2.074   3.624  0.7090  1.1765  1.3371
  484TIP3   OH222942   1.277   4.888  15.795  0.0720  0.5534 -0.1924
  484TIP3    H122943   1.205   4.836  15.830 -0.0535  1.2675  0.6184
  484TIP3    H222944   1.235   4.961  15.749  0.2777  1.8874  1.6840
  485TIP3   OH222945   0.603   4.412  14.002 -0.0055 -0.2751  0.0184
  485TIP3    H122946   0.648   4.406  13.918 -1.4795 -2.1069 -0.6551
  485TIP3    H222947   0.665   4.458  14.059  0.0920  3.0845 -2.6745
  486TIP3   OH222948   4.582   1.884   3.999 -0.0345 -0.4221  0.2822
  486TIP3    H122949   4.498   1.926   3.980  0.2671 -0.6218 -1.5868
  486TIP3    H222950   4.598   1.903   4.091 -0.7676  2.0831 -0.0659
  487TIP3   OH222951   6.698   3.096   3.949 -0.1392  0.1538  0.0897
  487TIP3    H122952   6.682   3.117   3.857  0.8238  0.1234 -0.0928
  487TIP3    H222953   6.611   3.093   3.989 -0.5249  0.7397 -0.6944
  488TIP3   OH222954   0.782   2.560   0.006 -0.1388  0.2830 -0.2239
  488TIP3    H122955   0.688   2.543   0.016 -0.5293  1.9684 -0.9640
  488TIP3    H222956   0.788   2.652  -0.019  1.7976  0.5261  1.0617
  489TIP3   OH222957   2.324   5.594   1.047  0.3703  0.5726 -0.1722
  489TIP3    H122958   2.392   5.645   1.003  2.1604 -1.8075 -0.2329
  489TIP3    H222959   2.264   5.568   0.977  0.4127  1.0789 -0.3994
  490TIP3   OH222960   5.011   2.296  12.204 -0.2284  0.3360  0.2027
  490TIP3    H122961   5.034   2.317  12.295 -0.5806 -0.3767  0.4601
  490TIP3    H222962   4.948   2.224  12.211  0.8889 -0.7658 -0.6429
  491TIP3   OH222963   2.010   3.477  16.520  0.0653  0.6782  0.3899
  491TIP3    H122964   2.030   3.383  16.518  1.6264  1.0143 -1.1264
  491TIP3    H222965   2.054   3.508  16.599  1.9319  0.6050 -0.5840
  492TIP3   OH222966   3.571   1.112  12.720 -0.7262  0.4315  0.1633
  492TIP3    H122967   3.665   1.104  12.733 -0.7342 -0.9356 -0.5038
  492TIP3    H222968   3.533   1.097  12.807 -0.4172 -0.9753  0.0661
  493TIP3   OH222969   4.101   1.335  15.840 -0.0331  0.1024 -0.1528
  493TIP3    H122970   4.079   1.269  15.775  0.1003 -0.3835  0.2856
  493TIP3    H222971   4.056   1.415  15.811 -0.0193 -0.1268 -0.7989
  494TIP3   OH222972   3.312   4.160  13.401  0.2093  0.2187  0.2332
  494TIP3    H122973   3.357   4.118  13.474  1.6841  2.7117  0.8094
  494TIP3    H222974   3.226   4.183  13.436 -0.8078 -2.6839 -0.2430
  495TIP3   OH222975   0.388   1.521  13.779  0.2114 -0.0433  0.1263
  495TIP3    H122976   0.390   1.587  13.848  0.8262 -0.6594  0.7028
  495TIP3    H222977   0.428   1.444  13.818  2.9334  0.3737 -1.6712
  496TIP3   OH222978   3.429   1.299  12.059 -0.0950  0.4117  0.2331
  496TIP3    H122979   3.479   1.259  11.988  0.6422  0.9947  0.4192
  496TIP3    H222980   3.495   1.321  12.125 -0.6271  0.9323  0.5951
  497TIP3   OH222981   1.076   2.368   2.256 -0.2143  0.0720 -0.1202
  497TIP3    H122982   1.129   2.430   2.207 -0.3726  0.9981  0.8641
  497TIP3    H222983   1.133   2.293   2.270  0.5526  0.7023  0.1617
  498TIP3   OH222984   6.633   3.742  13.942  0.2635  0.3722  0.0325
  498TIP3    H122985   6.714   3.712  13.900  0.4732  3.4916 -1.9507
  498TIP3    H222986   6.646   3.835  13.956 -2.2308  0.5370  1.5667
  499TIP3   OH222987   2.343   4.724  17.139 -0.0789  0.5630 -0.1387
  499TIP3    H122988   2.422   4.749  17.188  3.1668 -0.8386 -4.3184
  499TIP3    H222989   2.315   4.641  17.178  1.1835  0.5131  0.6773
  500TIP3   OH222990   6.246   5.540  14.352  0.0692 -0.1445  0.4742
  500TIP3    H122991   6.233   5.504  14.440  0.5605  1.5250  1.2677
  500TIP3    H222992   6.339   5.563  14.350  0.4435 -1.7074 -1.1028
  501TIP3   OH222993   1.516   3.985   7.171 -0.6302 -0.0952  1.2656
  501TIP3    H122994   1.458   4.061   7.160  0.8425  0.6711 -1.8137
  501TIP3    H222995   1.476   3.916   7.118  1.7663  0.7997 -1.8840
  502TIP3   OH222996   1.349   2.706  16.066 -0.0786  0.0669 -0.1167
  502TIP3    H122997   1.301   2.730  15.987 -1.2460 -0.1506  0.5088
  502TIP3    H222998   1.281   2.674  16.126  0.9831 -1.2906  0.3955
  503TIP3   OH222999   1.335   2.843   3.761 -0.3899  0.1068 -0.1995
  503TIP3    H123000   1.259   2.902   3.765 -0.2474  0.2460  0.5433
  503TIP3    H223001   1.312   2.770   3.819 -0.2221 -0.1622 -0.4730
  504TIP3   OH223002   5.665   4.165   3.679 -0.2044 -0.2554  0.0747
  504TIP3    H123003   5.718   4.094   3.716  3.0870  2.4563  0.8206
  504TIP3    H223004   5.606   4.189   3.751  0.7745 -0.2056  0.8747
  505TIP3   OH223005   6.217   0.945   0.348  0.0478  0.5774  0.0578
  505TIP3    H123006   6.308   0.936   0.376 -0.6346 -0.6461  1.9993
  505TIP3    H223007   6.195   0.861   0.309  0.0785  1.2514 -1.4261
  506TIP3   OH223008   6.210   4.050   2.169 -0.0436  0.0989  0.2826
  506TIP3    H123009   6.235   4.096   2.089 -1.2660  1.7595  0.8199
  506TIP3    H223010   6.289   4.053   2.224  0.9716 -1.5397 -1.0603
  507TIP3   OH223011   3.998   0.523   3.013  0.0139  0.1325  0.8795
  507TIP3    H123012   3.903   0.509   3.009  0.1726 -0.7216 -0.0296
  507TIP3    H223013   4.035   0.445   2.972  1.1130  0.4468  1.2755
  508TIP3   OH223014   3.648   2.769  16.126  0.0505 -0.0909 -0.0246
  508TIP3    H123015   3.607   2.785  16.041  0.0873 -1.2434 -0.2706
  508TIP3    H223016   3.726   2.825  16.125 -0.8558  1.1828 -0.0495
  509TIP3   OH223017   3.604   3.582   4.610  0.1753 -0.0742 -0.3067
  509TIP3    H123018   3.540   3.571   4.680  1.2971 -2.5365  0.3852
  509TIP3    H223019   3.669   3.642   4.647 -1.0740  1.4722 -0.5724
  510TIP3   OH223020   5.515   3.478   3.106  0.5870 -0.9712 -0.1901
  510TIP3    H123021   5.471   3.524   3.034 -0.5850  1.5320  2.0122
  510TIP3    H223022   5.608   3.487   3.087  0.3389  1.1584 -0.5158
  511TIP3   OH223023   5.700   6.775   3.240 -0.0688 -0.2476 -0.1565
  511TIP3    H123024   5.615   6.776   3.284  0.4840  0.8619  0.9423
  511TIP3    H223025   5.760   6.736   3.304  0.2934 -0.8581 -0.8534
  512TIP3   OH223026   5.196   4.418   5.558 -0.5755  0.8262  0.0268
  512TIP3    H123027   5.264   4.482   5.575  1.1273 -1.3770  1.8309
  512TIP3    H223028   5.156   4.401   5.644  0.0625 -1.6462 -0.1216
  513TIP3   OH223029   3.431   5.398  11.186  0.2324  0.3608 -0.0555
  513TIP3    H123030   3.372   5.461  11.228  1.9622  1.8329  0.2215
  513TIP3    H223031   3.375   5.323  11.166 -1.3790  1.0614  1.6629
  514TIP3   OH223032   5.155   5.071   2.597 -0.9604  0.1774  0.4371
  514TIP3    H123033   5.121   4.995   2.645 -0.8581  0.0584  0.3227
  514TIP3    H223034   5.222   5.107   2.654 -1.5437  0.6442  0.8387
  515TIP3   OH223035   6.449   1.519  15.575  0.5052  0.1592 -0.1649
  515TIP3    H123036   6.532   1.472  15.576 -0.2748 -1.3003 -2.0602
  515TIP3    H223037   6.390   1.465  15.627  1.0337  1.8360  2.2703
  516TIP3   OH223038   5.446   2.498   3.318  0.2570  0.2002  0.7248
  516TIP3    H123039   5.422   2.582   3.358 -1.3099  0.8032 -1.3767
  516TIP3    H223040   5.411   2.503   3.229  0.2501 -2.6339  0.5125
  517TIP3   OH223041   3.978   6.574  12.998  0.1225  0.0720  0.1513
  517TIP3    H123042   4.037   6.650  13.000 -0.2328  0.3483  0.2625
  517TIP3    H223043   4.011   6.520  12.926 -0.9228  1.4105 -1.3742
  518TIP3   OH223044   3.320   2.914  12.786  0.5992 -0.2636 -0.3293
  518TIP3    H123045   3.279   2.850  12.728 -0.9913  2.4033 -2.2435
  518TIP3    H223046   3.249   2.943  12.844  0.7888  1.1975 -0.8036
  519TIP3   OH223047   2.638   1.549  14.475 -0.2273  0.4123  0.4316
  519TIP3    H123048   2.613   1.588  14.392  1.4658  0.4980 -0.0488
  519TIP3    H223049   2.713   1.493  14.454 -0.9103 -0.9743  1.5823
  520TIP3   OH223050   0.632   6.147  11.278 -0.6255 -0.4690  0.5452
  520TIP3    H123051   0.643   6.238  11.250 -0.1221 -0.9080 -0.7265
  520TIP3    H223052   0.620   6.152  11.373 -1.7006  1.0035  0.3397
  521TIP3   OH223053   5.928   5.218   1.340 -0.2673  0.2162  0.7233
  521TIP3    H123054   5.874   5.154   1.386 -0.3711  0.3851  0.8371
  521TIP3    H223055   6.017   5.185   1.350 -0.4573 -0.6788 -0.4540
  522TIP3   OH223056   3.820   5.776  15.716  0.1386 -0.2545  0.1024
  522TIP3    H123057   3.774   5.784  15.633  0.3654 -0.6223 -0.0591
  522TIP3    H223058   3.761   5.815  15.780 -0.4415 -0.8312 -0.0860
  523TIP3   OH223059   3.992   2.149   5.604 -0.4166 -0.1023 -0.3736
  523TIP3    H123060   3.965   2.057   5.595 -0.7104  0.0026 -0.5691
  523TIP3    H223061   3.943   2.195   5.535  0.9412 -0.0626 -1.3400
  524TIP3   OH223062   6.127   4.400   4.854  0.2554  0.5195 -0.6662
  524TIP3    H123063   6.158   4.486   4.884  0.0023 -0.1741  1.6829
  524TIP3    H223064   6.037   4.416   4.825  0.1204  1.0084 -0.0006
  525TIP3   OH223065   6.704   6.140   3.077 -0.1085 -0.1170 -0.0132
  525TIP3    H123066   6.694   6.234   3.092 -0.1829 -0.2354  0.7500
  525TIP3    H223067   6.630   6.101   3.125 -0.0891 -0.5565 -0.3429
  526TIP3   OH223068   6.356   6.256  14.104  0.3751  0.0863  0.0071
  526TIP3    H123069   6.409   6.277  14.181  1.7140 -1.7492 -0.4129
  526TIP3    H223070   6.302   6.182  14.132  0.1306  0.0721 -0.5031
  527TIP3   OH223071   2.237   0.512   6.116 -0.0777  0.4083 -0.9702
  527TIP3    H123072   2.150   0.474   6.101  0.1107 -0.8210  0.9198
  527TIP3    H223073   2.295   0.437   6.127  1.1107  1.2297 -1.5081
  528TIP3   OH223074   1.926   3.903   3.112  0.0334 -0.7231  0.1020
  528TIP3    H123075   1.940   3.915   3.205 -0.1333 -1.6839  0.2589
  528TIP3    H223076   1.831   3.892   3.103 -0.0082 -0.1421 -0.2468
  529TIP3   OH223077   4.779   0.014  14.940  0.2029 -0.5595 -0.2102
  529TIP3    H123078   4.705   0.004  15.000 -0.1319  1.9841 -0.1603
  529TIP3    H223079   4.743  -0.008  14.854  0.4418 -3.2597  0.3230
  530TIP3   OH223080   4.072   3.343   0.954  0.1885 -0.5266 -0.3363
  530TIP3    H123081   4.037   3.336   1.043 -0.2950 -1.0667 -0.5634
  530TIP3    H223082   4.007   3.396   0.908  1.1016  0.8807 -0.0349
  531TIP3   OH223083   1.341   2.462   0.768 -0.3234  0.2487  0.2932
  531TIP3    H123084   1.353   2.454   0.674 -0.2943 -0.1923  0.3335
  531TIP3    H223085   1.267   2.404   0.788  0.6020 -0.7934  0.7564
  532TIP3   OH223086   2.493   1.240   1.777 -0.2461 -0.0631 -0.0361
  532TIP3    H123087   2.460   1.313   1.830 -2.5599 -1.6037  0.7049
  532TIP3    H223088   2.467   1.263   1.687  0.1513  0.6101  0.0132
  533TIP3   OH223089   5.403   3.947  13.740 -0.0187 -0.6198 -0.2258
  533TIP3    H123090   5.482   3.996  13.719 -1.0656  0.5788 -1.4148
  533TIP3    H223091   5.399   3.878  13.674 -0.2395 -0.3652 -0.4798
  534TIP3   OH223092   2.647   1.227  14.581  0.2674  0.3835  0.2034
  534TIP3    H123093   2.598   1.222  14.498 -0.6983 -0.3539  0.8031
  534TIP3    H223094   2.584   1.201  14.647  1.7846 -1.6517  0.8896
  535TIP3   OH223095   3.212   3.383  14.108 -0.2549 -0.4685  0.4485
  535TIP3    H123096   3.254   3.330  14.176  0.4378 -0.4936  0.0121
  535TIP3    H223097   3.235   3.339  14.026 -0.3861  0.0279  0.1419
  536TIP3   OH223098   3.840   3.966  16.625  0.3745 -0.0830  0.2438
  536TIP3    H123099   3.829   3.903  16.696 -0.0591 -0.4119 -0.1141
  536TIP3    H223100   3.871   4.046  16.668  0.8335 -0.5132  0.7099
  537TIP3   OH223101   1.593   4.481   5.992  0.2212  0.2732  0.0541
  537TIP3    H123102   1.654   4.460   6.063 -1.3838 -0.0914  1.3730
  537TIP3    H223103   1.516   4.428   6.011 -1.5687  2.8008 -0.0066
  538TIP3   OH223104   3.613   1.625  15.928  0.0989 -0.7216  0.0824
  538TIP3    H123105   3.533   1.663  15.891  0.4465 -1.0797 -1.0509
  538TIP3    H223106   3.583   1.547  15.974 -0.0957 -1.3256 -1.0654
  539TIP3   OH223107   2.050   2.535   0.750 -0.0814  0.6911  0.0261
  539TIP3    H123108   2.070   2.617   0.796  2.0785 -0.2408  0.8302
  539TIP3    H223109   2.035   2.472   0.820  0.1791 -0.0281 -0.5623
  540TIP3   OH223110   0.119   1.861  15.950  0.1123 -0.0790 -0.0570
  540TIP3    H123111   0.034   1.824  15.973 -0.4151  0.4489 -1.1316
  540TIP3    H223112   0.110   1.955  15.964  0.0689  0.1422 -1.5335
  541TIP3   OH223113   1.217   3.805   6.227  0.3467  0.2884 -0.1969
  541TIP3    H123114   1.271   3.736   6.265  0.1377 -0.5252 -1.3514
  541TIP3    H223115   1.230   3.797   6.133 -3.3606 -1.2764 -0.6742
  542TIP3   OH223116   0.249   1.994  12.140  0.0042  0.3536 -0.9989
  542TIP3    H123117   0.183   1.962  12.201  0.8317 -2.2449 -1.4043
  542TIP3    H223118   0.327   2.011  12.194  0.2440 -0.4145 -1.1053
  543TIP3   OH223119   4.290   6.750  12.161 -0.2313 -0.5184  0.4629
  543TIP3    H123120   4.344   6.720  12.234 -1.9627  3.5504  3.5461
  543TIP3    H223121   4.331   6.831  12.132  0.1937 -1.8537 -2.9584
  544TIP3   OH223122   5.332   2.787  16.665 -0.3621  0.0350 -0.6157
  544TIP3    H123123   5.242   2.794  16.633 -0.2227 -0.3895 -1.1055
  544TIP3    H223124   5.325   2.742  16.749 -0.7147  0.9854 -0.1422
  545TIP3   OH223125   3.209   4.107  10.889 -0.4241  0.0770  0.2523
  545TIP3    H123126   3.183   4.188  10.933  0.5690  1.9454 -2.4666
  545TIP3    H223127   3.303   4.099  10.907 -0.4183 -0.1966  0.1011
  546TIP3   OH223128   5.221   4.222  13.423  0.5347  0.2536  0.5266
  546TIP3    H123129   5.299   4.253  13.470  0.4734  3.1342 -1.1404
  546TIP3    H223130   5.172   4.302  13.405 -0.7740 -1.0953 -2.0701
  547TIP3   OH223131   3.764   2.570   0.860 -0.7579 -0.3795  0.2489
  547TIP3    H123132   3.832   2.507   0.883 -0.0391  0.6691  1.0462
  547TIP3    H223133   3.693   2.551   0.921 -0.2946 -0.0176  0.9105
  548TIP3   OH223134   2.158   5.343  15.196  0.4271 -0.0458  0.0644
  548TIP3    H123135   2.207   5.378  15.121  2.2061 -2.5688 -0.0071
  548TIP3    H223136   2.099   5.278  15.157  1.0429 -1.0490  0.8026
  549TIP3   OH223137   3.344   2.181   2.532 -0.3193 -0.6103 -0.7367
  549TIP3    H123138   3.259   2.139   2.538 -0.8671  0.4974 -0.5717
  549TIP3    H223139   3.348   2.216   2.443 -0.0119 -0.7141 -0.7656
  550TIP3   OH223140   6.549   4.896  12.279  0.0936 -0.3263 -0.5245
  550TIP3    H123141   6.524   4.984  12.250 -1.2957 -1.1303 -1.9067
  550TIP3    H223142   6.639   4.905  12.309  0.4431  1.3054 -1.9366
  551TIP3   OH223143   5.353   4.249   4.943 -0.1937 -0.5126  0.2143
  551TIP3    H123144   5.429   4.284   4.989 -0.2456 -0.7394  0.4743
  551TIP3    H223145   5.336   4.312   4.873  0.7301 -0.8697 -0.3496
  552TIP3   OH223146   0.830   0.041  13.551 -0.6709  0.1476 -1.1439
  552TIP3    H123147   0.818  -0.054  13.542  0.2316  0.0563 -1.4841
  552TIP3    H223148   0.888   0.051  13.627 -1.4928  0.4793 -0.5516
  553TIP3   OH223149   5.557   1.021   5.876  0.0657  0.3596  0.2082
  553TIP3    H123150   5.638   1.025   5.926  1.2628  2.5395 -1.8364
  553TIP3    H223151   5.488   1.033   5.942  1.4032 -0.6433  1.8354
  554TIP3   OH223152   1.387   4.107   4.273  0.5132 -0.0496 -0.4671
  554TIP3    H123153   1.322   4.127   4.341  1.9257  0.8518  0.6523
  554TIP3    H223154   1.335   4.090   4.194 -1.1461 -0.7478  0.7331
  555TIP3   OH223155   6.663   4.361  16.747  0.2316  0.2725  0.0239
  555TIP3    H123156   6.595   4.403  16.694  1.0014 -0.6992 -1.7735
  555TIP3    H223157   6.703   4.433  16.797 -1.1377  1.0611  0.0142
  556TIP3   OH223158   3.033   2.047  16.631  0.0731 -0.0953  0.5972
  556TIP3    H123159   2.979   2.085  16.561  0.5238 -0.5690 -0.0150
  556TIP3    H223160   3.007   2.094  16.710  1.2974  2.1939 -0.3049
  557TIP3   OH223161   0.113   0.740   4.717 -0.0535 -0.4602 -0.3453
  557TIP3    H123162   0.042   0.731   4.780 -0.2151 -0.1834 -0.4855
  557TIP3    H223163   0.189   0.701   4.760  0.4996  2.1047  1.0979
  558TIP3   OH223164   1.133   4.051   1.278  0.0309 -0.3403 -0.2848
  558TIP3    H123165   1.176   4.136   1.281  0.6771 -0.6522 -0.5770
  558TIP3    H223166   1.188   3.994   1.332 -1.1659 -0.2413  1.0649
  559TIP3   OH223167   0.177   2.886   1.416  0.3517 -0.7017  0.1139
  559TIP3    H123168   0.093   2.903   1.373  0.5215  1.5677  0.6299
  559TIP3    H223169   0.164   2.913   1.506  1.5098 -0.7745  0.3133
  560TIP3   OH223170   0.338   2.503  17.203 -0.8126  0.2014 -0.1819
  560TIP3    H123171   0.385   2.574  17.160 -0.2547 -1.4659 -2.4461
  560TIP3    H223172   0.373   2.500  17.292 -0.0738  2.0405 -0.3974
  561TIP3   OH223173   6.309   5.276   3.395 -0.0560 -0.3154  0.1484
  561TIP3    H123174   6.329   5.269   3.488  0.2913  0.7851  0.1671
  561TIP3    H223175   6.386   5.317   3.356 -1.4491  2.1976 -0.0915
  562TIP3   OH223176   0.606   6.014   2.293 -0.0219  0.1173  0.0732
  562TIP3    H123177   0.606   6.075   2.367  0.0352  0.5510 -0.2836
  562TIP3    H223178   0.612   6.070   2.216  1.3550 -0.4014 -0.2146
  563TIP3   OH223179   0.241   5.833  12.118  0.0156 -0.1286 -0.6145
  563TIP3    H123180   0.204   5.920  12.138  0.2960 -0.2883  0.6736
  563TIP3    H223181   0.335   5.847  12.113  0.0977 -0.4340  0.0323
  564TIP3   OH223182   0.413   2.459  11.739 -0.4216 -0.0319 -0.7395
  564TIP3    H123183   0.415   2.554  11.749  2.3412  0.1013 -2.0830
  564TIP3    H223184   0.401   2.426  11.827  0.7914  1.5321  0.0394
  565TIP3   OH223185   0.787   3.675  10.435  0.2255  0.7835 -0.1662
  565TIP3    H123186   0.727   3.750  10.435 -1.1650 -0.3132  0.9731
  565TIP3    H223187   0.759   3.622  10.360  0.5650  0.8967 -0.3733
  566TIP3   OH223188   6.707   3.645   3.699 -0.3886  0.2279 -0.0122
  566TIP3    H123189   6.770   3.635   3.771 -0.3419 -0.2754 -0.1220
  566TIP3    H223190   6.740   3.589   3.630 -0.9055  0.0389 -0.1091
  567TIP3   OH223191   6.539   1.088   2.932 -0.1205  0.3105 -0.4076
  567TIP3    H123192   6.601   1.050   2.869  0.7014  1.4368 -0.2852
  567TIP3    H223193   6.534   1.180   2.907  0.0209  0.7068  1.0277
  568TIP3   OH223194   1.971   0.553  15.462  0.0021 -0.0573  0.0395
  568TIP3    H123195   1.897   0.601  15.426 -0.1425 -0.5383 -0.3134
  568TIP3    H223196   1.937   0.465  15.478  0.0130  0.2144  1.5522
  569TIP3   OH223197   3.730   2.084  16.472 -0.1303 -0.0328  0.2717
  569TIP3    H123198   3.675   2.160  16.453  0.7311  1.3205  2.9741
  569TIP3    H223199   3.670   2.009  16.465 -1.4153  1.0422 -0.5743
  570TIP3   OH223200   5.053   5.897  12.051 -0.1781  0.3751  0.2209
  570TIP3    H123201   5.032   5.838  12.124 -0.9102  0.1111 -0.2012
  570TIP3    H223202   5.148   5.888  12.040 -0.5275 -2.1340 -1.0443
  571TIP3   OH223203   2.179   0.386  12.821  0.4025  0.7889 -0.0298
  571TIP3    H123204   2.227   0.444  12.881 -0.6196 -0.6831  2.3028
  571TIP3    H223205   2.110   0.442  12.784 -0.1259  1.2836  1.6335
  572TIP3   OH223206   2.931   0.965  15.311  0.8708  0.0135  0.3079
  572TIP3    H123207   2.850   0.950  15.263 -0.6076  0.4182  2.6042
  572TIP3    H223208   2.993   0.902  15.273 -0.8863 -1.2455 -0.5639
  573TIP3   OH223209   4.061   4.890  12.382 -0.2251 -0.1381  1.2577
  573TIP3    H123210   4.015   4.957  12.331  0.0221 -1.6534 -1.0219
  573TIP3    H223211   4.147   4.885  12.342  0.3086 -0.6761  2.4691
  574TIP3   OH223212   1.080   2.225   2.631 -0.2496  0.8086 -0.2080
  574TIP3    H123213   1.155   2.167   2.617 -1.7082 -1.1087 -0.3408
  574TIP3    H223214   1.098   2.302   2.576  0.3648 -0.7949 -2.3179
  575TIP3   OH223215   3.814   5.291  16.859  0.4394 -0.2363  0.1033
  575TIP3    H123216   3.790   5.344  16.783 -0.4291 -0.4279  0.2329
  575TIP3    H223217   3.909   5.281  16.853  0.6247  1.3563  0.0905
  576TIP3   OH223218   3.121   5.919   1.914 -0.0411  0.2601 -0.1724
  576TIP3    H123219   3.147   6.009   1.893 -0.8285  0.3196 -0.9372
  576TIP3    H223220   3.187   5.865   1.869 -0.1516  0.4408 -0.5563
  577TIP3   OH223221   2.712   0.531  12.187  0.0596  0.1407  0.4565
  577TIP3    H123222   2.629   0.559  12.225 -0.1422 -0.2956  0.3367
  577TIP3    H223223   2.725   0.443  12.221 -0.9161 -0.8810 -1.7579
  578TIP3   OH223224   6.281   4.400   3.158  0.0450 -0.3743  0.7715
  578TIP3    H123225   6.254   4.479   3.111 -0.4260 -0.7471  0.4070
  578TIP3    H223226   6.205   4.342   3.151  0.7684 -1.2543  0.1571
  579TIP3   OH223227   0.659   6.313  12.448 -0.4478 -0.4969  0.2662
  579TIP3    H123228   0.588   6.352  12.398  0.8541  0.5550 -0.8065
  579TIP3    H223229   0.667   6.369  12.525  0.3913  0.4528 -0.5022
  580TIP3   OH223230   1.407   3.900   2.920 -0.4111  0.4966  0.1821
  580TIP3    H123231   1.376   3.842   2.850 -0.1399  0.5545  0.0131
  580TIP3    H223232   1.389   3.988   2.888 -1.5558  0.4935  0.7816
  581TIP3   OH223233   3.635   3.789  15.767  0.1420  0.2942 -0.3635
  581TIP3    H123234   3.641   3.716  15.829  2.5500 -0.4485 -1.3922
  581TIP3    H223235   3.609   3.864  15.821 -0.0396 -0.8152  1.1350
  582TIP3   OH223236   1.194   0.377   4.285 -0.0515  0.3467  0.3391
  582TIP3    H123237   1.130   0.342   4.222 -0.2595  0.8561  0.2628
  582TIP3    H223238   1.141   0.414   4.355  0.1978 -1.0910  1.2958
  583TIP3   OH223239   5.183   5.356  16.309  0.0433 -0.0781 -0.3977
  583TIP3    H123240   5.147   5.271  16.335  0.2009 -0.5062 -1.5218
  583TIP3    H223241   5.260   5.367  16.364 -1.4454  0.5675  1.6051
  584TIP3   OH223242   3.276   0.845  13.991 -0.7001  0.1056  0.3279
  584TIP3    H123243   3.326   0.862  14.071 -0.3055  0.6739 -0.0373
  584TIP3    H223244   3.190   0.885  14.008  0.0080  1.9456 -0.2687
  585TIP3   OH223245   5.467   3.545   1.629 -0.0742 -0.0460  0.2281
  585TIP3    H123246   5.522   3.492   1.570 -1.0469 -1.7390  0.8091
  585TIP3    H223247   5.527   3.611   1.663  1.7063 -1.9983  1.0173
  586TIP3   OH223248   1.535   3.691  12.275 -0.2704  0.4532 -0.4082
  586TIP3    H123249   1.502   3.757  12.337  1.1024  0.9268 -0.1812
  586TIP3    H223250   1.490   3.711  12.193 -1.4667  0.3460  0.2106
  587TIP3   OH223251   3.398   1.299  13.498 -0.6843 -0.3711  0.2365
  587TIP3    H123252   3.486   1.321  13.528  0.0131 -1.6718 -0.7998
  587TIP3    H223253   3.340   1.359  13.546  0.8662  1.3373  0.0197
  588TIP3   OH223254   1.231   4.542  17.188 -0.0356 -0.2991 -0.1985
  588TIP3    H123255   1.144   4.520  17.221 -0.2966  0.4523 -0.3626
  588TIP3    H223256   1.290   4.482  17.234 -0.5849 -0.4862  0.2759
  589TIP3   OH223257   1.406   2.815  12.410 -0.0214  0.1992 -0.5303
  589TIP3    H123258   1.454   2.862  12.341  1.6984 -1.8717 -0.7947
  589TIP3    H223259   1.421   2.867  12.489  2.7041 -0.3674 -0.6117
  590TIP3   OH223260   4.735   2.435   5.079 -0.1163 -0.3020 -0.0490
  590TIP3    H123261   4.750   2.370   5.147  0.1735 -0.3160 -0.1249
  590TIP3    H223262   4.818   2.440   5.032 -0.8007 -1.4676 -1.4277
  591TIP3   OH223263   3.087   5.563   4.330  0.0474  0.3270  0.4699
  591TIP3    H123264   3.030   5.571   4.406 -0.2136 -0.0875  0.3183
  591TIP3    H223265   3.060   5.635   4.272 -1.4405 -0.8696 -0.3328
  592TIP3   OH223266   2.987   2.400   3.294  0.4509 -0.0283  0.1179
  592TIP3    H123267   2.981   2.414   3.199  0.0494  0.9920  0.2905
  592TIP3    H223268   3.055   2.462   3.323  1.9181 -1.6479  0.2379
  593TIP3   OH223269   4.849   1.902   1.589 -0.4185  0.0334 -0.0218
  593TIP3    H123270   4.876   1.835   1.651 -1.0023  0.0824  0.2976
  593TIP3    H223271   4.787   1.957   1.639 -0.3336  0.5018 -0.4276
  594TIP3   OH223272   1.239   4.040  15.682  0.0034  0.4979  0.1169
  594TIP3    H123273   1.307   3.979  15.711  0.2599  1.4075  1.4752
  594TIP3    H223274   1.258   4.121  15.730 -0.5644  1.5317 -1.3505
  595TIP3   OH223275   2.672   5.642  13.933 -0.0146  0.1734 -0.0085
  595TIP3    H123276   2.692   5.549  13.920 -0.0649  0.2607 -0.7052
  595TIP3    H223277   2.713   5.686  13.859 -0.6700  0.6262 -0.1052
  596TIP3   OH223278   6.797   4.094  16.913 -0.2790  0.3433 -0.4497
  596TIP3    H123279   6.758   4.181  16.920 -1.8348 -0.2717 -1.3259
  596TIP3    H223280   6.845   4.095  16.830 -0.2875  0.3578 -0.4532
  597TIP3   OH223281   3.286   2.054   3.167  0.1496  0.1128  0.2330
  597TIP3    H123282   3.227   2.037   3.241  0.5191 -1.0383  0.2668
  597TIP3    H223283   3.355   2.109   3.204 -1.2372  2.0229  0.0394
  598TIP3   OH223284   2.915   1.863   2.531 -0.1749 -0.0457 -0.0151
  598TIP3    H123285   2.945   1.865   2.440 -1.1119 -0.1466 -0.3307
  598TIP3    H223286   2.844   1.798   2.531 -1.0269  0.8792  0.5257
  599TIP3   OH223287   1.612   6.165   4.611  0.3983 -0.3192 -0.0995
  599TIP3    H123288   1.679   6.136   4.550  2.5736 -1.5100  2.7714
  599TIP3    H223289   1.584   6.250   4.577  4.7302  1.1117 -0.3594
  600TIP3   OH223290   2.336   3.496   4.502  0.3339  0.3142  0.3499
  600TIP3    H123291   2.366   3.426   4.560  3.5480  0.9048 -0.4847
  600TIP3    H223292   2.251   3.521   4.537  0.3375 -2.1590  2.2861
  601TIP3   OH223293   6.098   0.912  14.650  0.2216 -0.2995  0.5407
  601TIP3    H123294   6.069   0.852  14.581 -3.1560 -0.3243  1.8616
  601TIP3    H223295   6.173   0.869  14.690  0.0154 -1.9809 -0.8418
  602TIP3   OH223296   0.460   3.520  10.640 -0.4064 -0.8164 -0.3280
  602TIP3    H123297   0.465   3.615  10.652 -0.9087 -0.9008  0.5351
  602TIP3    H223298   0.367   3.499  10.649 -0.5408 -1.1617 -2.3150
  603TIP3   OH223299   2.294   2.369  12.888  0.9450  0.4353  0.2985
  603TIP3    H123300   2.331   2.400  12.806  1.5673  1.6785  1.0245
  603TIP3    H223301   2.359   2.391  12.954  1.5011 -2.6001  0.8652
  604TIP3   OH223302   0.522   2.725  10.708 -0.4721  0.0258  0.0275
  604TIP3    H123303   0.552   2.813  10.684 -0.7129 -0.2389 -1.2555
  604TIP3    H223304   0.603   2.677  10.727 -0.0138 -0.6282 -3.2260
  605TIP3   OH223305   5.740   2.976   0.868  0.2855  0.1326  0.4044
  605TIP3    H123306   5.736   2.995   0.774 -0.4579 -0.0927  0.3840
  605TIP3    H223307   5.697   3.050   0.910 -0.0871 -0.1373  0.5085
  606TIP3   OH223308   5.717   1.345   4.631 -0.2042  0.0249 -0.3608
  606TIP3    H123309   5.791   1.291   4.605  1.9817  1.2919  3.0665
  606TIP3    H223310   5.675   1.297   4.702 -0.7738  0.8165 -0.1497
  607TIP3   OH223311   5.647   1.900  10.931 -0.2268 -0.2336  0.4962
  607TIP3    H123312   5.674   1.950  11.007  0.8651 -0.5705  0.3386
  607TIP3    H223313   5.603   1.963  10.874  1.6884  0.6696  0.0159
  608TIP3   OH223314   1.252   3.423  13.152  0.9560  0.6946 -0.2759
  608TIP3    H123315   1.322   3.382  13.099  1.3570 -0.6397  1.2487
  608TIP3    H223316   1.176   3.366  13.139  0.9215  0.6271  0.2143
  609TIP3   OH223317   3.691   3.110  12.889  0.0501 -0.1952 -0.0699
  609TIP3    H123318   3.615   3.164  12.871 -0.3073 -0.2128  1.3472
  609TIP3    H223319   3.712   3.127  12.981  0.8818 -1.2747 -0.0463
  610TIP3   OH223320   0.780   6.251   0.286 -0.1308 -0.4396  0.0846
  610TIP3    H123321   0.797   6.157   0.282 -1.7965 -0.7729  0.3035
  610TIP3    H223322   0.866   6.291   0.282  0.4953 -1.9117 -1.7197
  611TIP3   OH223323   0.338   6.054   1.165 -0.0106  0.4784 -0.0279
  611TIP3    H123324   0.306   5.970   1.132 -0.6409  1.1767 -1.2149
  611TIP3    H223325   0.293   6.119   1.112  1.0848  1.5483  0.3458
  612TIP3   OH223326   6.118   6.626   4.981  0.4003 -0.3258  0.4651
  612TIP3    H123327   6.100   6.587   5.066  0.8986 -0.6993  0.4005
  612TIP3    H223328   6.201   6.672   4.993  0.9426 -1.1502 -0.0664
  613TIP3   OH223329   1.625   2.117   1.677  0.2547 -0.5750 -0.0308
  613TIP3    H123330   1.575   2.059   1.620  0.2355 -1.5056  0.8985
  613TIP3    H223331   1.707   2.069   1.694  0.7127  0.1540 -0.1307
  614TIP3   OH223332   5.728   0.265  10.540  0.0622 -0.0298 -0.2069
  614TIP3    H123333   5.650   0.319  10.548 -0.1288 -0.2915 -0.2916
  614TIP3    H223334   5.742   0.230  10.628  0.0531 -0.0280 -0.2048
  615TIP3   OH223335   6.268   3.817  11.518  0.4434  0.1338 -0.2182
  615TIP3    H123336   6.297   3.744  11.573 -1.0899 -0.6506 -0.4139
  615TIP3    H223337   6.333   3.821  11.448  0.1303 -1.5599 -0.6309
  616TIP3   OH223338   2.212   6.484  12.772  0.0351 -0.4085 -0.3450
  616TIP3    H123339   2.139   6.425  12.789  0.5086 -0.2223  2.6485
  616TIP3    H223340   2.289   6.440  12.809  0.8834  0.8371 -0.5706
  617TIP3   OH223341   3.884   5.658   0.389 -0.1286  0.6414 -0.1327
  617TIP3    H123342   3.967   5.696   0.416  1.0986 -2.7246  1.0769
  617TIP3    H223343   3.825   5.673   0.463 -0.1286  1.5172 -0.3033
  618TIP3   OH223344   0.759   3.150   3.804  0.4265 -0.5502  0.1204
  618TIP3    H123345   0.684   3.182   3.854 -0.1175  2.1679 -2.2837
  618TIP3    H223346   0.829   3.212   3.822  0.5151 -0.1050 -1.6328
  619TIP3   OH223347   4.399   4.397  12.785 -0.9136 -0.0387  0.0723
  619TIP3    H123348   4.351   4.451  12.723 -2.0591 -1.2457 -0.1133
  619TIP3    H223349   4.352   4.407  12.868  0.1206  0.9075  0.5617
  620TIP3   OH223350   2.674   6.185   2.582  0.0953  0.1785  0.2828
  620TIP3    H123351   2.632   6.264   2.616  0.1394  0.9923 -1.4832
  620TIP3    H223352   2.634   6.113   2.632 -0.7699  1.2270  1.1221
  621TIP3   OH223353   6.608   3.867  10.945 -0.2553  0.1326  0.1484
  621TIP3    H123354   6.539   3.925  10.912  0.0694  1.0099  0.9933
  621TIP3    H223355   6.631   3.903  11.031  1.3614 -0.0502 -0.1856
  622TIP3   OH223356   0.882   0.370   4.502 -0.0310 -0.4062  0.0456
  622TIP3    H123357   0.957   0.420   4.471  0.3216 -0.8516  0.1724
  622TIP3    H223358   0.822   0.369   4.428 -0.3778  0.8602  0.2999
  623TIP3   OH223359   1.659   5.650  11.214  0.6868  0.4450  1.0074
  623TIP3    H123360   1.600   5.579  11.242  0.0578  0.1072 -1.0784
  623TIP3    H223361   1.608   5.699  11.149  1.6449  1.9680  1.3725
  624TIP3   OH223362   3.819   5.416  10.128  0.0919  0.0979  0.2015
  624TIP3    H123363   3.754   5.483  10.149  1.1491  1.0712  0.4503
  624TIP3    H223364   3.874   5.457  10.061 -0.1681 -1.0919 -0.7558
  625TIP3   OH223365   2.377   0.281   6.131 -0.1848  0.0936  0.0180
  625TIP3    H123366   2.442   0.217   6.102 -0.9164 -1.2919  1.3816
  625TIP3    H223367   2.363   0.262   6.223 -1.6708  1.1296  0.0328
  626TIP3   OH223368   5.191   5.880   3.417  0.5770 -0.2384  0.1776
  626TIP3    H123369   5.139   5.954   3.448 -0.2675 -1.2412  1.1727
  626TIP3    H223370   5.138   5.803   3.437  0.2007 -0.9690 -3.3035
  627TIP3   OH223371   4.559   3.489  10.631  0.0809  0.2909 -0.2937
  627TIP3    H123372   4.470   3.461  10.611 -0.0611 -0.4790  1.2901
  627TIP3    H223373   4.548   3.567  10.685  0.4022  1.1020 -1.3910
  628TIP3   OH223374   0.030   4.792  12.977  0.6866 -0.1832 -0.0606
  628TIP3    H123375   0.019   4.865  13.039  2.8486  0.9466 -0.9593
  628TIP3    H223376  -0.043   4.802  12.915  0.1979  0.3955  0.5950
  629TIP3   OH223377   0.797   4.341   0.318  0.4108  0.0559 -0.4267
  629TIP3    H123378   0.815   4.281   0.245  2.4876 -0.1153  0.1759
  629TIP3    H223379   0.882   4.350   0.362 -0.6122  0.8988  1.4133
  630TIP3   OH223380   5.077   6.467  13.692 -0.6260 -0.0294  0.1737
  630TIP3    H123381   5.052   6.512  13.773  0.7248 -1.3181  1.3283
  630TIP3    H223382   5.030   6.384  13.695 -0.0293 -0.3766 -0.0289
  631TIP3   OH223383   3.701   5.660  15.087 -0.0991  0.1126 -0.1407
  631TIP3    H123384   3.707   5.675  15.181  0.1393 -0.2150 -0.1030
  631TIP3    H223385   3.651   5.579  15.078  1.6020 -0.9722 -0.2163
  632TIP3   OH223386   1.015   5.925  15.935 -0.3198  0.4379  0.3117
  632TIP3    H123387   1.086   5.925  15.870 -1.8776 -0.9847 -1.4639
  632TIP3    H223388   0.959   5.999  15.909  0.4110  1.4634  1.6127
  633TIP3   OH223389   5.777   2.432  12.746  0.2518  0.7833 -0.4085
  633TIP3    H123390   5.858   2.414  12.793  0.1030 -1.1742 -0.8460
  633TIP3    H223391   5.708   2.409  12.809  0.0520 -1.1099 -1.2948
  634TIP3   OH223392   2.682   5.100   3.032  0.3407  0.1898 -0.1734
  634TIP3    H123393   2.752   5.105   2.967  0.7214  1.5562  0.3201
  634TIP3    H223394   2.714   5.036   3.096  1.5090  1.3534  0.4491
  635TIP3   OH223395   5.707   4.834  13.164  0.4913  0.0752 -0.2179
  635TIP3    H123396   5.697   4.913  13.111  2.9559  0.6861  0.1500
  635TIP3    H223397   5.660   4.853  13.245 -0.4191  0.4677 -0.8360
  636TIP3   OH223398   5.624   2.971  12.624  0.2352 -0.1581  0.2903
  636TIP3    H123399   5.637   2.974  12.530 -1.7905 -0.2475 -0.0182
  636TIP3    H223400   5.547   3.025  12.640 -0.8736 -2.0332  1.5899
  637TIP3   OH223401   1.623   5.058  11.710  0.7614  0.8803 -0.1581
  637TIP3    H123402   1.672   4.976  11.712 -0.9146 -0.1558 -0.8810
  637TIP3    H223403   1.604   5.077  11.801 -1.3234 -1.0649 -0.1534
  638TIP3   OH223404   4.369   2.516  10.744  0.1471 -0.6969 -0.2500
  638TIP3    H123405   4.316   2.564  10.681 -0.0551 -0.8773 -0.2192
  638TIP3    H223406   4.305   2.471  10.800  0.2917  0.5004  0.9011
  639TIP3   OH223407   2.205   1.039   6.792 -0.5950  0.0851  0.2348
  639TIP3    H123408   2.142   1.005   6.728  0.5779 -1.9940  0.1168
  639TIP3    H223409   2.279   1.069   6.739  0.0794 -0.9789  0.5554
  640TIP3   OH223410   2.480   4.226  12.204 -0.3763 -0.6371 -0.6075
  640TIP3    H123411   2.409   4.275  12.246 -1.1864  0.8461 -3.5185
  640TIP3    H223412   2.560   4.272  12.232 -0.8246 -0.1718 -0.0706
  641TIP3   OH223413   0.876   0.030   2.971 -0.1924  0.4941 -0.4383
  641TIP3    H123414   0.819  -0.040   3.003  0.7146  0.1128  0.3696
  641TIP3    H223415   0.950   0.030   3.032  1.0710  0.4437 -1.9618
  642TIP3   OH223416   4.400   0.705   4.430  0.0638  0.5514 -0.0044
  642TIP3    H123417   4.444   0.635   4.381  1.3943  1.0887  0.3746
  642TIP3    H223418   4.472   0.764   4.454 -0.8169  1.1431  1.1555
  643TIP3   OH223419   2.822   1.039  11.023 -0.3966 -0.0904  0.0070
  643TIP3    H123420   2.750   0.992  10.980 -0.6252  0.1073  0.1763
  643TIP3    H223421   2.854   1.099  10.956 -1.2835  0.7954  0.3695
  644TIP3   OH223422   4.896   2.688   3.702 -0.2770 -0.3226 -0.1652
  644TIP3    H123423   4.933   2.603   3.725 -0.3717 -0.8632 -1.9553
  644TIP3    H223424   4.858   2.675   3.615  1.3814  2.0242 -1.2865
  645TIP3   OH223425   3.291   3.357   3.083  0.0485 -0.2396 -0.5907
  645TIP3    H123426   3.233   3.308   3.140  1.2854 -2.0861 -0.8963
  645TIP3    H223427   3.273   3.449   3.104 -1.6764 -0.8189  0.5756
  646TIP3   OH223428   0.804   5.072   3.519  0.5568  0.1298  0.1625
  646TIP3    H123429   0.894   5.041   3.533  0.3559  0.6502  2.6966
  646TIP3    H223430   0.763   5.002   3.469  1.9040 -0.8569  0.3963
  647TIP3   OH223431   5.686   6.555   3.519 -0.0157  0.4964  0.1757
  647TIP3    H123432   5.610   6.516   3.561 -0.4611  1.5516  0.3821
  647TIP3    H223433   5.731   6.482   3.477 -1.2957 -0.0965 -0.1931
  648TIP3   OH223434   6.135   3.787   2.157  0.2535 -0.2687  0.1107
  648TIP3    H123435   6.166   3.878   2.148 -1.0148  0.1706  0.0834
  648TIP3    H223436   6.041   3.796   2.170  0.4056 -1.4784  2.1873
  649TIP3   OH223437   6.777   4.921  11.696 -0.0279  0.3457 -0.1744
  649TIP3    H123438   6.807   4.997  11.647  0.0105  0.5998  0.2375
  649TIP3    H223439   6.764   4.953  11.785  0.4560 -0.2407  0.1130
  650TIP3   OH223440   4.579   4.075   4.485  0.7666 -0.1587 -0.1277
  650TIP3    H123441   4.596   4.105   4.574 -2.4706  4.2389 -0.7564
  650TIP3    H223442   4.532   3.992   4.495  1.2012 -0.1379  2.2191
  651TIP3   OH223443   0.005   0.847  14.062  0.4349  0.0324 -0.1065
  651TIP3    H123444  -0.068   0.838  14.001 -1.2466  0.2772  1.8027
  651TIP3    H223445   0.029   0.757  14.085 -2.0361 -0.0402  2.4107
  652TIP3   OH223446   6.567   4.036  15.653 -0.3285 -0.4745  0.3623
  652TIP3    H123447   6.543   4.117  15.609  0.4721 -2.0068 -3.1029
  652TIP3    H223448   6.642   4.059  15.708 -1.8583  1.6745  1.5977
  653TIP3   OH223449   3.016   2.116   4.375 -0.6188 -0.0089 -0.5360
  653TIP3    H123450   2.975   2.032   4.352 -0.1678 -0.3866  0.0412
  653TIP3    H223451   2.965   2.181   4.326 -2.5157 -0.3713  0.8956
  654TIP3   OH223452   4.838   0.707   1.521  1.0923  0.2139  0.4004
  654TIP3    H123453   4.927   0.714   1.485  1.0842  1.1874  0.5519
  654TIP3    H223454   4.793   0.785   1.491  0.0984 -0.5566 -0.1461
  655TIP3   OH223455   4.205   1.824  12.133 -0.2492 -0.2845  0.3800
  655TIP3    H123456   4.153   1.898  12.101  1.9227  1.1927  0.1648
  655TIP3    H223457   4.226   1.847  12.223  0.7584 -0.4707  0.1881
  656TIP3   OH223458   1.437   2.671   1.362 -0.7514 -0.0517 -0.1187
  656TIP3    H123459   1.472   2.584   1.382 -0.5865  0.0246 -0.0704
  656TIP3    H223460   1.354   2.654   1.318  0.1393 -0.2782 -1.7484
  657TIP3   OH223461   3.454   1.158  15.296  0.1310  0.0803  0.4255
  657TIP3    H123462   3.442   1.089  15.361  0.9431 -0.3522  0.1307
  657TIP3    H223463   3.538   1.138  15.255  1.3850  2.3979  1.7426
  658TIP3   OH223464   6.331   4.775  13.717 -0.4391  0.3493 -0.8060
  658TIP3    H123465   6.367   4.777  13.805 -0.5815 -0.4204 -0.7207
  658TIP3    H223466   6.292   4.687  13.709  1.1083 -0.2326 -2.2451
  659TIP3   OH223467   4.494   2.135   5.696  0.0074  0.0642 -0.0017
  659TIP3    H123468   4.431   2.133   5.624 -0.8466  1.0436  0.6842
  659TIP3    H223469   4.495   2.046   5.731 -1.1048  0.0701  0.0554
  660TIP3   OH223470   2.739   2.586   5.245  0.3266  0.5750  0.2115
  660TIP3    H123471   2.689   2.545   5.174 -1.2149  1.5846  0.7029
  660TIP3    H223472   2.755   2.515   5.307 -1.1057  0.4006  0.3887
  661TIP3   OH223473   4.083   0.765  15.568 -0.1629  0.3345 -0.4901
  661TIP3    H123474   4.089   0.812  15.651  0.0543  0.5132 -0.6074
  661TIP3    H223475   4.142   0.812  15.509 -0.7419  0.5402 -0.9054
  662TIP3   OH223476   3.300   2.103   1.872 -0.1774  0.4319 -0.1139
  662TIP3    H123477   3.303   2.048   1.949 -0.1361  0.6698  0.0567
  662TIP3    H223478   3.356   2.058   1.808 -1.1861 -0.3846 -0.4267
  663TIP3   OH223479   4.093   6.332   4.832 -0.2757 -0.0372  0.4347
  663TIP3    H123480   4.103   6.245   4.872 -0.9713 -0.2919  0.0664
  663TIP3    H223481   4.093   6.392   4.907  2.8473 -0.0888  0.5405
  664TIP3   OH223482   4.794   2.239   0.161  0.3707 -0.2978 -0.4009
  664TIP3    H123483   4.865   2.296   0.191  0.8126  0.3095 -2.4880
  664TIP3    H223484   4.837   2.162   0.126  0.2452  1.2169 -4.1402
  665TIP3   OH223485   5.723   3.656  13.617  0.0712 -0.1504 -0.1108
  665TIP3    H123486   5.725   3.610  13.701 -1.4911 -0.0534 -0.0187
  665TIP3    H223487   5.815   3.677  13.600  0.5744 -1.4532  0.8596
  666TIP3   OH223488   3.651   4.474  13.374 -0.0096  0.8625 -0.1155
  666TIP3    H123489   3.701   4.540  13.422 -1.0566 -0.7198  3.3154
  666TIP3    H223490   3.699   4.393  13.388  0.0543  0.4723 -2.4256
  667TIP3   OH223491   3.621   4.075  17.179 -0.0721  0.2831 -0.1724
  667TIP3    H123492   3.586   4.058  17.267 -0.9409  1.1784 -0.3385
  667TIP3    H223493   3.707   4.033  17.179  0.1746  0.7609  1.2949
  668TIP3   OH223494   0.355   4.139  15.868 -0.2894  0.3595  0.0715
  668TIP3    H123495   0.352   4.131  15.773 -0.7112 -3.0607  0.3040
  668TIP3    H223496   0.268   4.112  15.897 -0.3886  2.0511  1.4056
  669TIP3   OH223497   3.003   3.218  17.063  0.1209 -0.3163 -0.2938
  669TIP3    H123498   3.056   3.283  17.107 -1.1797  0.4300  0.2056
  669TIP3    H223499   2.922   3.214  17.114 -0.6056 -0.8770 -1.4623
  670TIP3   OH223500   5.374   3.716  12.368  0.2649  0.4375 -0.0531
  670TIP3    H123501   5.285   3.703  12.334  0.9983 -0.9683 -1.5025
  670TIP3    H223502   5.406   3.794  12.322 -0.2298  0.9378  0.4628
  671TIP3   OH223503   5.704   1.123   1.448  0.5982 -0.0808  0.3158
  671TIP3    H123504   5.668   1.148   1.363 -1.2589 -0.5440  0.9267
  671TIP3    H223505   5.688   1.028   1.454  1.4356 -0.1961  0.8476
  672TIP3   OH223506   6.140   4.301  15.490  0.1116 -0.0284  0.5501
  672TIP3    H123507   6.064   4.307  15.432  0.1672  2.6930  0.6974
  672TIP3    H223508   6.199   4.241  15.445 -0.5536  0.7515 -1.4421
  673TIP3   OH223509   1.352   5.081  12.307  0.1324 -0.2623  0.3576
  673TIP3    H123510   1.293   5.020  12.264  0.5676  0.7372 -1.7450
  673TIP3    H223511   1.330   5.166  12.270  3.4579  0.0162 -1.2157
  674TIP3   OH223512   2.697   6.071   5.420  0.6838  0.3118 -0.8706
  674TIP3    H123513   2.652   6.104   5.498  1.0853 -0.9087 -0.1205
  674TIP3    H223514   2.669   6.130   5.349 -1.1627  0.2726 -0.1828
  675TIP3   OH223515   2.908   1.294  12.252 -0.4293  0.1972  0.1100
  675TIP3    H123516   2.854   1.310  12.174 -1.0075 -1.1022  0.2335
  675TIP3    H223517   2.976   1.234  12.223 -0.2226  0.2712  0.4376
  676TIP3   OH223518   2.885   4.551   3.647  0.5668 -0.5624  0.3378
  676TIP3    H123519   2.858   4.470   3.690  1.4043 -2.1576 -2.0439
  676TIP3    H223520   2.819   4.568   3.581  1.3577 -0.3020 -0.4008
  677TIP3   OH223521   5.374   1.241   5.388 -0.0442 -0.0698 -0.4771
  677TIP3    H123522   5.468   1.249   5.403  0.3042 -3.5700 -0.3559
  677TIP3    H223523   5.365   1.166   5.329 -2.7370  0.3975 -0.7353
  678TIP3   OH223524   5.532   2.095  11.705 -0.1492  0.1794  0.9097
  678TIP3    H123525   5.623   2.074  11.681 -0.4544 -0.2260  0.0681
  678TIP3    H223526   5.480   2.029  11.659 -0.7412 -1.1156  3.3404
  679TIP3   OH223527   1.581   3.603   2.142  0.1316 -0.0046  0.2700
  679TIP3    H123528   1.594   3.544   2.217 -0.5576 -0.8738 -0.2849
  679TIP3    H223529   1.506   3.567   2.096 -0.8823  1.8548  0.4193
  680TIP3   OH223530   5.795   2.440  13.852 -0.0287  0.2813 -0.3219
  680TIP3    H123531   5.877   2.482  13.827 -0.3311  0.4776 -1.0007
  680TIP3    H223532   5.727   2.493  13.811 -0.4209 -0.7447 -1.0160
  681TIP3   OH223533   3.721   6.565  16.786  0.8830 -0.1639 -0.2190
  681TIP3    H123534   3.641   6.616  16.770 -0.9304 -3.5115 -2.3530
  681TIP3    H223535   3.777   6.584  16.710  1.0750  0.2176  0.0158
  682TIP3   OH223536   1.921   4.983   2.503  0.0958  0.6793 -0.2635
  682TIP3    H123537   1.978   5.051   2.540 -0.4609  0.8854  0.2175
  682TIP3    H223538   1.899   4.927   2.577 -1.7534  1.6126 -0.0953
  683TIP3   OH223539   1.780   4.826   5.018  0.1428 -0.6680  0.2236
  683TIP3    H123540   1.726   4.805   4.942 -0.6434 -1.1289  0.9067
  683TIP3    H223541   1.828   4.745   5.037 -0.8867 -1.0487  1.2185
  684TIP3   OH223542   0.738   3.667  11.651  0.0650 -0.0402 -0.6685
  684TIP3    H123543   0.737   3.741  11.712 -0.9749 -2.4938  2.4610
  684TIP3    H223544   0.645   3.647  11.637  0.3248 -2.1867  0.4465
  685TIP3   OH223545   5.574   1.355  15.835 -0.9436 -0.0804  0.6678
  685TIP3    H123546   5.530   1.338  15.751 -1.0715 -0.5203  0.8242
  685TIP3    H223547   5.509   1.332  15.901 -0.2941 -1.2389  0.9080
  686TIP3   OH223548   2.260   4.986   3.130  0.3074 -0.0076 -0.7979
  686TIP3    H123549   2.324   4.918   3.151 -0.4893 -0.0477  1.6623
  686TIP3    H223550   2.296   5.066   3.168 -0.7562  0.1119 -0.0191
  687TIP3   OH223551   3.584   2.273  12.918 -0.1826 -0.2193  0.2334
  687TIP3    H123552   3.522   2.280  12.845 -0.1490 -2.1698 -0.0047
  687TIP3    H223553   3.631   2.192  12.901  1.9059  0.8473  0.8504
  688TIP3   OH223554   6.740   2.645  14.767  0.0211 -0.1161 -0.0401
  688TIP3    H123555   6.819   2.605  14.804 -0.9365 -1.9206  0.0989
  688TIP3    H223556   6.701   2.576  14.714 -2.3451  0.2093  1.2178
  689TIP3   OH223557   6.367   3.201   5.656 -0.6609  0.0357  0.0616
  689TIP3    H123558   6.451   3.243   5.637 -0.4585 -1.0158 -1.4953
  689TIP3    H223559   6.304   3.253   5.606 -0.9189  0.6785  1.0397
  690TIP3   OH223560   2.783   0.705  11.151  0.3315  0.1258 -0.3685
  690TIP3    H123561   2.759   0.785  11.105  0.4626  0.7875  0.6786
  690TIP3    H223562   2.721   0.639  11.120 -1.2024  1.1774  0.3839
  691TIP3   OH223563   3.260   6.323  11.796 -0.6586 -0.0920 -0.6250
  691TIP3    H123564   3.335   6.382  11.788  1.1402 -2.5060 -2.3264
  691TIP3    H223565   3.251   6.307  11.890  0.8324  0.3986 -0.3907
  692TIP3   OH223566   6.673   6.403   1.982 -0.6530  0.1819  0.2980
  692TIP3    H123567   6.647   6.460   2.055  0.1811  0.1176  0.6481
  692TIP3    H223568   6.591   6.383   1.938 -1.0165  1.2963  0.4315
  693TIP3   OH223569   0.675   1.878  10.887 -0.4939 -0.9685 -0.2081
  693TIP3    H123570   0.757   1.910  10.924 -1.3552  0.4740  0.4524
  693TIP3    H223571   0.612   1.885  10.958 -1.1013 -2.5496 -0.5635
  694TIP3   OH223572   3.688   2.614   4.314 -0.3600 -0.3433  0.3410
  694TIP3    H123573   3.691   2.540   4.375  2.5357 -1.3558 -0.9403
  694TIP3    H223574   3.777   2.649   4.315 -0.5618  0.3418 -2.4335
  695TIP3   OH223575   4.178   5.974  16.942  0.0548 -0.3414  0.1764
  695TIP3    H123576   4.092   5.984  16.982  0.5197 -0.9039  1.3430
  695TIP3    H223577   4.234   5.940  17.013  0.8979 -1.3231 -0.9372
  696TIP3   OH223578   1.446   5.257   0.858 -0.0094  0.4172 -0.0540
  696TIP3    H123579   1.530   5.301   0.847 -0.0311  0.7775  1.1371
  696TIP3    H223580   1.468   5.167   0.878  0.0845  0.4672  0.0650
  697TIP3   OH223581   4.784   3.898  17.251 -0.0550 -0.2185 -0.5910
  697TIP3    H123582   4.797   3.804  17.262 -0.6429 -0.2849 -0.4096
  697TIP3    H223583   4.750   3.928  17.336 -1.1066 -0.0808 -1.0436
  698TIP3   OH223584   5.559   2.620  14.809  0.0231 -0.5088  0.0449
  698TIP3    H123585   5.552   2.553  14.741 -2.6829 -1.6607  1.3774
  698TIP3    H223586   5.556   2.572  14.892  1.1695  1.0292  1.0271
  699TIP3   OH223587   2.225   2.124   1.443  0.3327  0.5224 -0.0526
  699TIP3    H123588   2.191   2.038   1.468  1.4449  0.9913  3.4406
  699TIP3    H223589   2.147   2.179   1.436 -0.0950  0.2780  2.3193
  700TIP3   OH223590   5.002   1.551   2.913  0.4644 -0.2017  0.0868
  700TIP3    H123591   4.965   1.640   2.910  1.1913  0.0971 -0.0375
  700TIP3    H223592   4.928   1.496   2.936 -0.3336  0.2561 -1.2769
  701TIP3   OH223593   0.186   6.561  16.243 -0.1667  0.3091 -0.4349
  701TIP3    H123594   0.218   6.475  16.269 -3.9690 -0.9729  0.2978
  701TIP3    H223595   0.185   6.558  16.147  1.1835  0.1436 -0.4546
  702TIP3   OH223596   5.226   0.691   3.371 -0.4980  0.3252 -1.0431
  702TIP3    H123597   5.209   0.780   3.403 -0.8229 -0.3562  0.7287
  702TIP3    H223598   5.321   0.687   3.361 -0.5317  1.0599 -1.7078
  703TIP3   OH223599   5.271   4.325  10.556 -0.1320  0.2122 -0.1565
  703TIP3    H123600   5.210   4.340  10.627 -0.4894  0.1902 -0.4557
  703TIP3    H223601   5.350   4.374  10.580  0.5296 -1.4979  1.2640
  704TIP3   OH223602   0.029   3.631  16.528 -0.5913 -0.2441  0.0282
  704TIP3    H123603  -0.001   3.671  16.447  0.2728  1.2055  0.4224
  704TIP3    H223604   0.093   3.565  16.501 -1.8924 -1.2840 -0.6005
  705TIP3   OH223605   5.431   3.964  14.384  0.2874 -0.3215 -0.1947
  705TIP3    H123606   5.349   3.915  14.384  0.0984 -0.0239 -1.5729
  705TIP3    H223607   5.499   3.898  14.398 -0.1184 -0.7164 -0.1083
  706TIP3   OH223608   4.923   4.144  11.946  0.1328  0.1254 -0.4079
  706TIP3    H123609   4.987   4.140  12.017  0.8599 -0.9167 -1.1057
  706TIP3    H223610   4.973   4.178  11.871 -0.4819  0.6504 -0.5796
  707TIP3   OH223611   6.457   0.702  11.856  0.3578 -0.2383 -0.8695
  707TIP3    H123612   6.524   0.753  11.812 -1.0586  2.2673 -0.2114
  707TIP3    H223613   6.505   0.632  11.900  2.3990  0.7934 -1.4243
  708TIP3   OH223614   3.938   2.537  11.386  0.5814 -0.2552 -0.2384
  708TIP3    H123615   3.900   2.515  11.301 -2.1511 -0.6561  1.0209
  708TIP3    H223616   4.004   2.603  11.367 -2.0811  1.9224 -2.3606
  709TIP3   OH223617   4.482   2.017   0.648  0.3845  0.0314  0.2621
  709TIP3    H123618   4.502   1.954   0.579  1.9100  0.3723  0.3839
  709TIP3    H223619   4.422   1.970   0.707 -1.7257  0.0731 -1.7994
  710TIP3   OH223620   0.707   4.982  11.929 -0.3300  0.0963 -0.8963
  710TIP3    H123621   0.799   4.983  11.901 -0.5977  2.4191 -1.7981
  710TIP3    H223622   0.680   4.891  11.918  2.0116 -0.7386 -0.1082
  711TIP3   OH223623   5.876   4.215  14.068  0.2667 -0.7062  0.3157
  711TIP3    H123624   5.940   4.229  14.137  1.1821 -0.3371 -0.5916
  711TIP3    H223625   5.920   4.246  13.988 -0.8948 -0.8050 -0.3705
  712TIP3   OH223626   1.646   2.828   2.197 -0.2086 -0.1194 -0.3285
  712TIP3    H123627   1.614   2.888   2.130  0.7978  0.7649 -0.0488
  712TIP3    H223628   1.584   2.755   2.197 -0.3868  0.0196 -1.9957
  713TIP3   OH223629   2.353   4.693   2.773  0.1507  0.1810 -0.3789
  713TIP3    H123630   2.359   4.683   2.678 -0.2622  0.0651 -0.3940
  713TIP3    H223631   2.401   4.774   2.791  0.9738 -0.2561 -0.5811
  714TIP3   OH223632   1.779   3.371   0.111  0.0291 -0.2540 -0.2177
  714TIP3    H123633   1.709   3.426   0.148  1.3885  1.8936 -0.7513
  714TIP3    H223634   1.810   3.319   0.185 -1.5143 -0.5875  0.2186
  715TIP3   OH223635   5.191   0.870   6.263  0.2830  0.0851 -0.2038
  715TIP3    H123636   5.114   0.927   6.257 -0.6167 -1.1642 -0.8766
  715TIP3    H223637   5.154   0.782   6.277  1.5135 -0.7293 -1.8943
  716TIP3   OH223638   2.060   3.375  14.551  0.3297  0.2172 -0.4500
  716TIP3    H123639   2.011   3.316  14.609 -1.2171  1.5444 -0.3841
  716TIP3    H223640   2.101   3.316  14.487 -0.7778 -0.9786 -0.0826
  717TIP3   OH223641   0.475   3.972   1.057  0.1254  0.5278 -0.9596
  717TIP3    H123642   0.538   3.938   0.993  0.4631 -0.3842 -0.1401
  717TIP3    H223643   0.496   4.065   1.063  0.7226  0.4313 -1.4537
  718TIP3   OH223644   4.801   1.129   1.801 -0.4504  0.4012 -0.5450
  718TIP3    H123645   4.814   1.193   1.731  0.0402  0.4826 -0.3779
  718TIP3    H223646   4.706   1.121   1.809 -0.5330  1.7856  0.0308
  719TIP3   OH223647   3.193   5.034  14.572 -0.3595 -0.6164  0.3803
  719TIP3    H123648   3.263   5.016  14.509  0.0298 -1.0684  0.9352
  719TIP3    H223649   3.184   4.953  14.622 -0.3091 -0.0989  1.2453
  720TIP3   OH223650   1.721   0.988  13.818 -0.4751 -0.1475  0.1328
  720TIP3    H123651   1.707   1.008  13.910  0.7668 -0.6382  0.4493
  720TIP3    H223652   1.676   1.058  13.770  1.7388  2.0529  1.1696
  721TIP3   OH223653   3.670   2.622   5.690  0.2017  0.0816 -0.4902
  721TIP3    H123654   3.582   2.609   5.656  0.3948 -1.8719 -0.2614
  721TIP3    H223655   3.661   2.618   5.785  0.5023  0.1675 -0.4566
  722TIP3   OH223656   2.112   6.228  11.268 -0.0863 -0.0908 -0.0543
  722TIP3    H123657   2.028   6.274  11.264 -0.5113 -0.9068 -0.6277
  722TIP3    H223658   2.119   6.183  11.184  0.7656 -0.3165  0.1308
  723TIP3   OH223659   2.944   5.130   4.734 -0.3044  0.0241  0.0454
  723TIP3    H123660   2.939   5.083   4.817 -3.5150  1.5052  0.7377
  723TIP3    H223661   2.983   5.214   4.756 -1.6302  0.6139  0.1483
  724TIP3   OH223662   5.270   6.156  16.324 -0.2747 -0.2176 -0.4941
  724TIP3    H123663   5.297   6.248  16.320 -0.5488 -0.0783  0.6377
  724TIP3    H223664   5.309   6.123  16.406 -0.2931 -1.0736 -0.8187
  725TIP3   OH223665   2.215   5.693  12.033 -0.5306 -0.3049 -0.0234
  725TIP3    H123666   2.267   5.620  11.999 -1.8322 -1.9356  1.4695
  725TIP3    H223667   2.255   5.714  12.118  0.5976  1.5627 -0.9604
  726TIP3   OH223668   5.399   2.588   4.696 -0.1489 -0.9633  0.4437
  726TIP3    H123669   5.460   2.656   4.665 -0.3564 -0.2770  1.5201
  726TIP3    H223670   5.443   2.505   4.676  1.5963 -0.4584  2.1417
  727TIP3   OH223671   5.855   0.933  16.168 -0.5235  0.0998 -0.2078
  727TIP3    H123672   5.894   0.965  16.087  0.3135  1.1718  0.5959
  727TIP3    H223673   5.909   0.857  16.193 -1.2409 -0.6891 -1.0344
  728TIP3   OH223674   1.397   6.082  16.369 -0.2352  0.3673 -0.2326
  728TIP3    H123675   1.415   6.156  16.311  0.4762  0.8081  0.5389
  728TIP3    H223676   1.335   6.117  16.433 -1.1067 -0.1496 -0.7983
  729TIP3   OH223677   0.625   4.742  16.205  0.8373 -0.3248  0.1904
  729TIP3    H123678   0.688   4.677  16.236 -0.6698 -1.7907  0.1958
  729TIP3    H223679   0.678   4.822  16.194  2.6742 -1.4828  0.3133
  730TIP3   OH223680   1.190   3.276   6.113  0.3816  0.0483  0.0677
  730TIP3    H123681   1.143   3.195   6.090 -0.7783  0.6760  0.2064
  730TIP3    H223682   1.267   3.275   6.056 -1.7279  0.8786 -2.9451
  731TIP3   OH223683   4.308   1.860  12.375 -0.4195  0.5818  0.1900
  731TIP3    H123684   4.330   1.810  12.453 -3.0541 -0.2684  0.4226
  731TIP3    H223685   4.328   1.951  12.398  1.9684 -0.0314  0.6477
  732TIP3   OH223686   4.575   1.463  11.325  0.1307  0.0746  0.3136
  732TIP3    H123687   4.589   1.376  11.362 -0.4058  0.1178  0.6246
  732TIP3    H223688   4.509   1.450  11.257  1.2205 -0.0302 -0.7392
  733TIP3   OH223689   2.725   0.586   5.533 -0.0878  0.3991 -0.1304
  733TIP3    H123690   2.750   0.523   5.466  0.5984  0.0511  0.4486
  733TIP3    H223691   2.799   0.646   5.539 -0.1380  0.4182  0.3361
  734TIP3   OH223692   2.006   0.417  16.069 -0.2948 -0.0645  0.2975
  734TIP3    H123693   2.041   0.369  15.994  1.2662  0.3343  0.7495
  734TIP3    H223694   1.975   0.350  16.129 -1.7675 -0.3864 -0.7877
  735TIP3   OH223695   5.963   2.152   2.204  0.3020 -0.1447  0.2567
  735TIP3    H123696   5.979   2.184   2.293  2.1290  1.5371 -0.6419
  735TIP3    H223697   6.007   2.067   2.201  1.1396  0.2678  0.6463
  736TIP3   OH223698   4.294   1.468  10.711 -0.1711  0.1539  0.7800
  736TIP3    H123699   4.375   1.422  10.690  0.1489  1.4605 -0.9555
  736TIP3    H223700   4.314   1.560  10.698 -2.3030  0.4114 -0.9800
  737TIP3   OH223701   6.321   0.967  11.115 -0.0055 -0.1028 -0.2337
  737TIP3    H123702   6.410   0.938  11.136  0.7587  1.2613 -1.4757
  737TIP3    H223703   6.319   0.968  11.020 -0.7785  1.5815 -0.2067
  738TIP3   OH223704   5.500   6.430   3.945 -0.6951 -0.6044 -0.0994
  738TIP3    H123705   5.494   6.397   4.035 -1.3129 -0.2192  0.0008
  738TIP3    H223706   5.423   6.486   3.934  0.0833  0.4342 -0.4214
  739TIP3   OH223707   5.138   5.958  13.346 -0.1334 -0.5684 -0.2432
  739TIP3    H123708   5.119   6.052  13.340 -0.9183 -0.8282 -2.1673
  739TIP3    H223709   5.066   5.923  13.400  1.9703  0.4008  3.3336
  740TIP3   OH223710   4.741   4.923   3.662  0.7147 -0.1129 -0.0530
  740TIP3    H123711   4.689   4.843   3.671  0.9954 -0.0938  1.8621
  740TIP3    H223712   4.820   4.906   3.712  1.3460  0.8888 -0.7046
  741TIP3   OH223713   0.853   5.554   4.847  0.1926 -0.4211  0.1422
  741TIP3    H123714   0.898   5.638   4.853  1.1728 -0.7734 -1.9878
  741TIP3    H223715   0.910   5.493   4.894 -1.7449  0.5070  3.9342
  742TIP3   OH223716   6.540   6.772   1.961 -0.3470 -0.0905 -0.2092
  742TIP3    H123717   6.454   6.739   1.938  0.1698 -1.0890 -0.7454
  742TIP3    H223718   6.595   6.754   1.885  0.6585 -0.6917  0.6380
  743TIP3   OH223719   2.005   3.100   2.645  0.0012  0.2573  0.3287
  743TIP3    H123720   2.074   3.038   2.619  0.4709  0.7592  0.3676
  743TIP3    H223721   1.933   3.083   2.584 -0.1647 -0.8566  0.8254
  744TIP3   OH223722   4.076   0.043  16.086  0.0694  0.0998 -0.4210
  744TIP3    H123723   4.014  -0.015  16.130  0.9686 -1.1410 -0.7671
  744TIP3    H223724   4.160   0.026  16.128  0.3825  1.0479 -0.6364
  745TIP3   OH223725   3.472   6.370  14.374  0.1126 -0.1863 -0.3446
  745TIP3    H123726   3.475   6.412  14.288  1.0601  0.2032 -0.1292
  745TIP3    H223727   3.488   6.277  14.356 -1.7097 -0.4344 -0.7932
  746TIP3   OH223728   5.442   6.345  16.412  0.1525 -0.3221  0.0997
  746TIP3    H123729   5.428   6.406  16.484  0.3021 -0.8126  0.5467
  746TIP3    H223730   5.503   6.389  16.354 -1.7060  1.0298 -0.8839
  747TIP3   OH223731   2.955   4.378   1.394 -0.1479 -0.3788 -0.4788
  747TIP3    H123732   2.965   4.473   1.388 -0.6387 -0.2166  1.0328
  747TIP3    H223733   2.881   4.358   1.336 -0.9924  0.3444  0.3321
  748TIP3   OH223734   3.815   6.320   3.645 -0.8477 -0.6308  0.0706
  748TIP3    H123735   3.837   6.244   3.700 -1.4976 -2.6857 -2.4256
  748TIP3    H223736   3.845   6.295   3.557 -1.1029  2.0122 -0.7974
  749TIP3   OH223737   2.591   1.714  14.245 -0.0664  0.4828  0.0707
  749TIP3    H123738   2.504   1.689  14.213 -0.2614  0.4114  0.6465
  749TIP3    H223739   2.631   1.761  14.172  0.4843 -1.8704 -1.1912
  750TIP3   OH223740   5.005   2.343  12.473  0.3433  0.7418 -0.1655
  750TIP3    H123741   4.912   2.364  12.478 -0.1554 -1.2327 -0.6694
  750TIP3    H223742   5.041   2.370  12.557 -1.3252 -1.3214  1.2692
  751TIP3   OH223743   3.503   5.420  13.094  0.2323 -0.0972  0.9126
  751TIP3    H123744   3.574   5.401  13.155  0.0933 -1.5748  0.6399
  751TIP3    H223745   3.430   5.367  13.126  0.2456 -1.1134 -0.6936
  752TIP3   OH223746   5.099   2.951  15.912  0.2824  0.1450 -0.3169
  752TIP3    H123747   5.138   3.037  15.928  1.4932 -0.4960  0.2379
  752TIP3    H223748   5.174   2.894  15.892 -0.5253 -0.7453 -0.8611
  753TIP3   OH223749   2.848   0.233   3.218  0.1356  0.4555 -0.0624
  753TIP3    H123750   2.850   0.146   3.258 -2.7098  0.9035  1.1374
  753TIP3    H223751   2.890   0.290   3.283 -0.4974  0.4352  0.3687
  754TIP3   OH223752   1.596   1.689   2.775 -0.2468  0.3407 -0.1264
  754TIP3    H123753   1.527   1.632   2.806 -0.0327  0.1847  0.0612
  754TIP3    H223754   1.666   1.682   2.840  0.0798  0.2433 -0.4818
  755TIP3   OH223755   3.365   6.637   0.896 -0.0276 -0.0446  0.3111
  755TIP3    H123756   3.436   6.661   0.837  0.0908 -1.0782  0.0183
  755TIP3    H223757   3.359   6.709   0.958  0.7553  0.4086 -0.1391
  756TIP3   OH223758   6.510   0.950  13.304  0.0749  0.3592 -0.0642
  756TIP3    H123759   6.466   0.872  13.338 -0.9421  2.6870  4.2976
  756TIP3    H223760   6.440   1.014  13.291  1.2816  1.7015 -0.1636
  757TIP3   OH223761   5.743   3.061   3.090 -0.2673 -0.1551 -0.2317
  757TIP3    H123762   5.818   3.002   3.083  0.4053  0.5180  1.1507
  757TIP3    H223763   5.729   3.072   3.184 -0.6593  1.5288 -0.4580
  758TIP3   OH223764   3.505   4.533   5.431  0.0151 -0.0540  0.2719
  758TIP3    H123765   3.559   4.562   5.357 -0.0739 -0.7633 -0.0780
  758TIP3    H223766   3.566   4.487   5.488  0.3057  1.4541  1.1927
  759TIP3   OH223767   3.967   4.261  12.599 -0.0447 -0.1022 -0.2213
  759TIP3    H123768   3.974   4.243  12.505  0.9281 -0.2971 -0.1216
  759TIP3    H223769   3.946   4.177  12.638 -0.2652 -0.0585 -0.2471
  760TIP3   OH223770   6.298   0.865  15.464 -0.1688 -0.0622 -0.5487
  760TIP3    H123771   6.263   0.857  15.553 -0.7361  0.3160 -0.7334
  760TIP3    H223772   6.340   0.780  15.447  0.3394  0.0336  0.2443
  761TIP3   OH223773   0.875   4.183  14.047  0.7751  0.1556 -0.7063
  761TIP3    H123774   0.961   4.146  14.026  2.2804  2.5657  1.0032
  761TIP3    H223775   0.860   4.160  14.138  0.7471  1.8501 -0.2664
  762TIP3   OH223776   5.807   0.076   5.128  0.3867  0.7986  0.5383
  762TIP3    H123777   5.892   0.098   5.090  1.5755 -2.2749  1.2364
  762TIP3    H223778   5.788  -0.012   5.095 -1.3722  0.4738  2.3055
  763TIP3   OH223779   0.445   1.371   2.156  0.2607  0.2865 -0.3739
  763TIP3    H123780   0.387   1.443   2.134  0.1225  0.3429  0.1531
  763TIP3    H223781   0.386   1.300   2.183  0.3526 -0.3345 -1.7499
  764TIP3   OH223782   3.565   1.848  16.588  0.1685  0.3435  0.2644
  764TIP3    H123783   3.572   1.752  16.585 -1.0443  0.1665  2.0520
  764TIP3    H223784   3.471   1.864  16.599  0.2505  1.7793 -1.0942
  765TIP3   OH223785   3.466   1.078   2.573 -0.5419 -0.1983 -0.3070
  765TIP3    H123786   3.539   1.040   2.524 -0.7873 -1.8277  0.5578
  765TIP3    H223787   3.390   1.064   2.517 -0.3976  0.3522 -0.6424
  766TIP3   OH223788   5.426   5.099   2.379 -0.4347  0.0519  0.3029
  766TIP3    H123789   5.439   5.094   2.474  0.5964 -0.0543  0.1605
  766TIP3    H223790   5.431   5.008   2.350  1.0966  0.2491 -0.0851
  767TIP3   OH223791   2.252   2.675   2.236  0.0795  0.9200 -0.2126
  767TIP3    H123792   2.315   2.608   2.208 -1.3168 -0.8961  0.9103
  767TIP3    H223793   2.210   2.704   2.155 -0.5416 -0.8267 -0.5272
  768TIP3   OH223794   0.814   5.613   5.652  0.0643 -0.0221 -0.1646
  768TIP3    H123795   0.842   5.531   5.613 -0.0313 -0.4530  0.6752
  768TIP3    H223796   0.729   5.594   5.692  0.0054  0.4979 -0.0282
  769TIP3   OH223797   4.644   3.931   2.175 -0.5493  0.0507 -0.3872
  769TIP3    H123798   4.556   3.900   2.153 -0.5871  1.4556 -2.3924
  769TIP3    H223799   4.651   3.919   2.270 -2.7488 -0.4352 -0.2591
  770TIP3   OH223800   4.897   0.918   0.917  0.1855 -0.0512  0.3781
  770TIP3    H123801   4.806   0.889   0.925 -0.1871  1.0639  0.3206
  770TIP3    H223802   4.945   0.839   0.892 -0.8643 -0.5229 -0.2169
  771TIP3   OH223803   2.136   3.862  13.800 -0.3920 -0.1555 -0.2457
  771TIP3    H123804   2.214   3.806  13.801  0.8331  1.5188  0.0164
  771TIP3    H223805   2.143   3.910  13.717 -1.3454 -0.2808 -0.3943
  772TIP3   OH223806   1.320   5.162   1.318  0.1577  0.2265 -0.5127
  772TIP3    H123807   1.331   5.162   1.223  3.3306 -3.6657 -0.2708
  772TIP3    H223808   1.407   5.184   1.352 -0.5441 -0.0514  1.5157
  773TIP3   OH223809   1.944   0.855  15.100 -0.0817  0.4499  0.1076
  773TIP3    H123810   1.923   0.891  15.014  4.3086  1.1754 -0.7699
  773TIP3    H223811   2.005   0.918  15.138  3.1246 -3.0920  1.0247
  774TIP3   OH223812   5.146   5.271  10.659 -0.7022 -0.8331  0.5290
  774TIP3    H123813   5.232   5.270  10.701  0.5449  3.5879 -1.5825
  774TIP3    H223814   5.156   5.216  10.581  1.0318  1.5038 -0.9770
  775TIP3   OH223815   4.380   1.262  14.885 -0.0256  0.5584  0.3272
  775TIP3    H123816   4.314   1.223  14.827 -0.7961  0.9679  0.9224
  775TIP3    H223817   4.382   1.204  14.962  0.7841  0.1821  0.0373
  776TIP3   OH223818   0.496   0.795   1.438  0.0986  0.1260 -0.0185
  776TIP3    H123819   0.438   0.719   1.429  2.0117 -1.3469 -0.0766
  776TIP3    H223820   0.535   0.806   1.352 -0.0355  1.0834  0.0373
  777TIP3   OH223821   4.809   0.706   2.429  0.0282 -0.0102 -0.4113
  777TIP3    H123822   4.740   0.763   2.462 -0.5827 -0.2261 -1.2981
  777TIP3    H223823   4.845   0.751   2.353 -1.9561 -1.7752 -2.4729
  778TIP3   OH223824   5.960   2.260  15.466  0.3432 -0.8197 -0.9316
  778TIP3    H123825   6.045   2.218  15.455  1.1136  0.3644  0.2278
  778TIP3    H223826   5.958   2.329  15.399  1.8088  1.4192  1.2286
  779TIP3   OH223827   2.924   6.385   5.190 -0.3382 -0.0777 -0.5879
  779TIP3    H123828   2.909   6.367   5.097 -2.1504 -0.6270 -0.2136
  779TIP3    H223829   3.005   6.337   5.210  0.1102  0.1047 -1.8873
  780TIP3   OH223830   1.081   6.079  12.395 -0.1012 -0.2302 -0.2259
  780TIP3    H123831   1.056   6.083  12.488 -0.9146  0.5671 -0.4702
  780TIP3    H223832   1.107   5.988  12.381  0.8685 -0.1516  0.9983
  781TIP3   OH223833   4.619   5.516  16.079  0.1489 -0.4332  0.0995
  781TIP3    H123834   4.709   5.516  16.112  0.1471  1.0623  0.1425
  781TIP3    H223835   4.568   5.557  16.149 -0.7786 -2.3543  0.5816
  782TIP3   OH223836   5.000   2.622  15.354 -0.0742 -0.4289 -0.3013
  782TIP3    H123837   4.941   2.617  15.279  0.1332 -3.6269 -0.3279
  782TIP3    H223838   4.942   2.633  15.429 -0.3664  1.4114 -0.7751
  783TIP3   OH223839   0.227   0.887  16.782 -1.3396 -0.3352 -0.2881
  783TIP3    H123840   0.139   0.850  16.782 -1.5880  0.2421  0.2536
  783TIP3    H223841   0.265   0.858  16.865 -1.3938  0.2800 -0.0439
  784TIP3   OH223842   0.885   5.695  15.830  0.6149 -0.2698 -0.3412
  784TIP3    H123843   0.930   5.771  15.867  0.3277 -0.5039  0.5025
  784TIP3    H223844   0.907   5.623  15.889  0.6027 -0.7752 -0.9424
  785TIP3   OH223845   4.710   5.223  11.352  0.0602  0.4201 -0.2406
  785TIP3    H123846   4.784   5.170  11.322 -0.3018 -0.4885  0.4737
  785TIP3    H223847   4.683   5.271  11.274 -1.3222 -2.4672 -1.6240
  786TIP3   OH223848   2.428   5.431  13.092  0.3496  0.3581 -0.8358
  786TIP3    H123849   2.379   5.510  13.114  0.4046  0.9764 -2.8868
  786TIP3    H223850   2.373   5.359  13.123 -0.4132  1.1508 -0.3477
  787TIP3   OH223851   5.208   6.495  13.187  0.0766  0.2842  0.0702
  787TIP3    H123852   5.153   6.570  13.211 -0.2726  0.5902 -1.6067
  787TIP3    H223853   5.297   6.525  13.202 -0.0565  1.0875 -0.7020
  788TIP3   OH223854   0.387   4.153  13.604 -0.0950 -0.2450  0.0999
  788TIP3    H123855   0.435   4.203  13.539  0.4282  1.1433  1.5160
  788TIP3    H223856   0.438   4.072  13.615  2.0130  1.2337  1.6328
  789TIP3   OH223857   0.216   2.560  16.781  0.2003  0.3525 -0.0848
  789TIP3    H123858   0.157   2.523  16.847  1.0776  1.1139  1.1459
  789TIP3    H223859   0.171   2.639  16.752  0.8626  1.2597  1.2922
  790TIP3   OH223860   1.641   5.676  13.661 -0.3640  0.6468  0.1889
  790TIP3    H123861   1.675   5.756  13.622 -0.0413  1.1507  1.4535
  790TIP3    H223862   1.716   5.640  13.709  0.3905 -2.0592 -2.8518
  791TIP3   OH223863   3.115   1.965   0.364  0.4694 -0.6631 -0.1025
  791TIP3    H123864   3.033   1.989   0.321  0.2719 -1.4719 -0.1941
  791TIP3    H223865   3.118   2.018   0.443  1.5867  2.0099 -1.8535
  792TIP3   OH223866   2.679   6.783   0.978 -0.4220 -0.2245  0.0472
  792TIP3    H123867   2.616   6.753   1.043 -0.3300 -0.2543  0.1212
  792TIP3    H223868   2.716   6.863   1.016  0.8176 -1.1345  0.7571
  793TIP3   OH223869   0.706   5.447   0.575  0.5782 -0.2137  0.1005
  793TIP3    H123870   0.689   5.362   0.616 -0.2233  0.0252  0.2715
  793TIP3    H223871   0.702   5.429   0.481  0.3041 -0.3521  0.1363
  794TIP3   OH223872   3.732   6.484  11.596 -0.2456 -0.3520  0.0133
  794TIP3    H123873   3.723   6.490  11.691  0.0210  0.1797  0.0094
  794TIP3    H223874   3.712   6.393  11.575  0.6974 -0.7211  0.6886
  795TIP3   OH223875   5.065   0.875  11.169 -0.1033  0.6344  1.1146
  795TIP3    H123876   5.041   0.959  11.131  0.7124  1.2590  1.9644
  795TIP3    H223877   5.153   0.858  11.137 -0.6576 -0.3920  0.1208
  796TIP3   OH223878   6.559   2.620   5.098 -0.7735 -0.8768  0.0298
  796TIP3    H123879   6.539   2.559   5.027  1.7804 -3.0753  1.1461
  796TIP3    H223880   6.581   2.565   5.173  1.0061  1.4069  1.2476
  797TIP3   OH223881   2.095   4.912  16.939 -0.5167  0.0359  0.4142
  797TIP3    H123882   2.186   4.882  16.928 -0.2714  0.4545  1.2230
  797TIP3    H223883   2.042   4.837  16.914  0.0397  0.0433 -0.8443
  798TIP3   OH223884   1.266   4.761  15.012  0.2783 -0.3849 -0.1439
  798TIP3    H123885   1.195   4.782  14.951  0.7308 -0.5130 -0.7182
  798TIP3    H223886   1.224   4.709  15.081 -0.6537  1.5398  0.7632
  799TIP3   OH223887   3.156   4.115  10.604  0.2479  0.1356 -0.4277
  799TIP3    H123888   3.165   4.090  10.696  0.0996  0.0353 -0.4405
  799TIP3    H223889   3.224   4.066  10.559 -0.1931 -0.4261 -0.4895
  800TIP3   OH223890   5.797   6.342  16.290  0.2644  0.2236 -0.2544
  800TIP3    H123891   5.835   6.429  16.284  0.7455  0.0078 -0.3158
  800TIP3    H223892   5.777   6.331  16.384  0.1551  0.4135 -0.2536
  801TIP3   OH223893   6.013   4.567  13.594 -0.0331 -0.8948 -0.0914
  801TIP3    H123894   6.096   4.586  13.638  0.0965 -0.9840 -0.2996
  801TIP3    H223895   5.948   4.617  13.644  0.1267 -0.9246  0.1477
  802TIP3   OH223896   1.204   6.782   2.553  0.8292 -0.4059  1.0069
  802TIP3    H123897   1.206   6.772   2.458 -1.1243  1.6107  0.7205
  802TIP3    H223898   1.296   6.780   2.579  1.3613 -1.5664 -0.8360
  803TIP3   OH223899   3.516   4.503  13.932  0.4977  0.1683  0.0839
  803TIP3    H123900   3.491   4.478  14.021  0.4521 -0.1291 -0.0128
  803TIP3    H223901   3.568   4.583  13.944  1.7996 -0.7117  0.5139
  804TIP3   OH223902   4.576   2.824   5.888  0.1679  0.2213 -0.5212
  804TIP3    H123903   4.567   2.873   5.806 -0.6357 -1.1319 -1.2534
  804TIP3    H223904   4.515   2.867   5.948  0.5396  1.0346 -0.7153
  805TIP3   OH223905   1.377   4.700   5.522 -0.2152  0.1720 -0.4669
  805TIP3    H123906   1.467   4.700   5.554 -0.5280 -1.9064  0.5275
  805TIP3    H223907   1.382   4.659   5.436 -0.2768 -0.5354 -0.1407
  806TIP3   OH223908   5.358   5.827   5.140  0.8842  0.2322  0.3562
  806TIP3    H123909   5.300   5.768   5.189  0.2954 -0.3868 -1.0562
  806TIP3    H223910   5.438   5.830   5.192  0.5274 -0.9771  1.0043
  807TIP3   OH223911   3.219   0.959  12.835 -0.3669 -0.2721 -0.1434
  807TIP3    H123912   3.180   0.967  12.922 -1.4721 -0.1555 -0.6391
  807TIP3    H223913   3.144   0.959  12.775  0.4018 -0.0138 -1.1210
  808TIP3   OH223914   4.930   3.717   3.299 -0.4635 -0.1252 -0.6557
  808TIP3    H123915   4.892   3.758   3.376  0.0197  0.3882 -0.6867
  808TIP3    H223916   5.019   3.694   3.325 -0.7765 -1.2949 -0.5926
  809TIP3   OH223917   0.611   6.658  16.963 -0.3261  0.0009 -0.0998
  809TIP3    H123918   0.545   6.721  16.932 -1.3973 -1.3991 -0.7255
  809TIP3    H223919   0.570   6.616  17.039  0.1971 -0.2642  0.0354
  810TIP3   OH223920   2.484   6.663   5.489 -0.4862 -0.2601 -0.0688
  810TIP3    H123921   2.574   6.668   5.457 -0.5246 -1.4807 -0.3960
  810TIP3    H223922   2.491   6.683   5.582 -0.1964  2.0190 -0.5536
  811TIP3   OH223923   2.501   0.210  12.742 -0.0789  0.6619  0.0169
  811TIP3    H123924   2.498   0.282  12.805  1.0416  1.5913 -0.9634
  811TIP3    H223925   2.443   0.143  12.779 -0.0262  1.4914  1.6422
  812TIP3   OH223926   4.375   4.619  17.144 -0.2528  0.3296 -0.2974
  812TIP3    H123927   4.343   4.646  17.059 -0.2644  0.0864 -0.3688
  812TIP3    H223928   4.469   4.607  17.132 -0.3234 -0.1277 -0.3838
  813TIP3   OH223929   0.168   6.464  12.367  0.4737 -0.3492 -0.9639
  813TIP3    H123930   0.091   6.438  12.315  0.0972 -0.4824 -0.3457
  813TIP3    H223931   0.154   6.557  12.384  0.5812 -0.3135 -1.0681
  814TIP3   OH223932   2.879   0.804   3.641  0.3814 -0.1247 -0.3050
  814TIP3    H123933   2.815   0.836   3.577  0.7297 -0.9429 -1.0710
  814TIP3    H223934   2.958   0.855   3.624  0.8268 -1.1348 -1.2892
  815TIP3   OH223935   4.439   0.691  11.849  0.0779 -0.3587  0.1959
  815TIP3    H123936   4.346   0.716  11.847  0.4472  1.0435  0.1782
  815TIP3    H223937   4.474   0.722  11.766  0.2278 -2.2999 -0.4925
  816TIP3   OH223938   2.718   3.553  11.699 -0.1002 -0.4793  0.5956
  816TIP3    H123939   2.790   3.554  11.763 -0.5752  1.9234  1.1350
  816TIP3    H223940   2.677   3.639  11.709 -0.3554 -0.1685 -2.7816
  817TIP3   OH223941   2.658   4.530   5.028  0.3719 -0.1503 -0.2766
  817TIP3    H123942   2.597   4.502   5.096  0.9775 -3.1815 -0.9229
  817TIP3    H223943   2.744   4.526   5.070  0.6066 -0.6287 -0.8033
  818TIP3   OH223944   2.421   1.932   3.408  0.2251 -0.7025 -0.0641
  818TIP3    H123945   2.418   1.948   3.503  1.5670  1.1511 -0.2963
  818TIP3    H223946   2.509   1.958   3.382 -0.6977  0.5111 -2.1031
  819TIP3   OH223947   1.637   6.518  15.354 -0.0417 -0.4207 -0.6276
  819TIP3    H123948   1.591   6.459  15.413  0.8216 -1.7836 -1.2829
  819TIP3    H223949   1.725   6.526  15.391 -0.2739  0.7863 -0.3219
  820TIP3   OH223950   3.739   2.201  14.917 -0.2620 -0.1161  0.0533
  820TIP3    H123951   3.674   2.155  14.864 -0.1060 -1.5734  1.1005
  820TIP3    H223952   3.809   2.224  14.855 -0.4467 -1.0870 -0.5142
  821TIP3   OH223953   6.157   4.344   3.875  0.2789  0.3229  0.5306
  821TIP3    H123954   6.066   4.338   3.904 -0.3404  2.0657 -0.9389
  821TIP3    H223955   6.206   4.370   3.953 -0.7023  0.7601  1.0041
  822TIP3   OH223956   5.102   1.876  11.776  0.3984 -0.6065  0.0060
  822TIP3    H123957   5.046   1.877  11.698 -0.2163  0.3454  0.4550
  822TIP3    H223958   5.068   1.947  11.831  0.2956 -1.7978  1.5082
  823TIP3   OH223959   0.231   5.253  16.117  0.3286  0.1721  0.2547
  823TIP3    H123960   0.168   5.282  16.183 -0.2808 -0.9753  0.2057
  823TIP3    H223961   0.176   5.221  16.045  0.9638 -0.9577  0.2650
  824TIP3   OH223962   6.456   2.729  14.718 -0.3439 -0.3699  0.6156
  824TIP3    H123963   6.527   2.789  14.742 -1.2506  0.3914  1.4354
  824TIP3    H223964   6.493   2.675  14.649  0.5906  0.9269  0.0761
  825TIP3   OH223965   5.422   4.994  12.665  0.2139 -0.4019 -0.5335
  825TIP3    H123966   5.421   5.007  12.760  0.8175 -0.7082 -0.4844
  825TIP3    H223967   5.353   5.052  12.632 -0.9426 -1.3023  0.2301
  826TIP3   OH223968   0.162   1.069   3.592 -0.3658 -0.1346  0.0985
  826TIP3    H123969   0.169   0.999   3.657  2.9512  0.6522  0.6969
  826TIP3    H223970   0.226   1.046   3.524  0.1870  1.8475 -0.0899
  827TIP3   OH223971   3.648   2.709  16.683  0.1213 -0.5542  0.1754
  827TIP3    H123972   3.623   2.631  16.732  0.0482  0.1601  1.2872
  827TIP3    H223973   3.590   2.778  16.715  0.3991  0.0358 -0.5638
  828TIP3   OH223974   0.830   6.499  11.850  0.2879 -0.4660 -0.6290
  828TIP3    H123975   0.871   6.419  11.818  2.7798  0.4478  0.1778
  828TIP3    H223976   0.786   6.473  11.931  0.4409 -1.1720 -0.7704
  829TIP3   OH223977   6.022   1.898  11.581 -0.2173 -0.1606 -0.3042
  829TIP3    H123978   5.993   1.976  11.534 -2.0350 -0.9042 -0.4361
  829TIP3    H223979   6.101   1.870  11.535 -0.6689  0.4616 -1.4769
  830TIP3   OH223980   1.614   4.093  14.713 -0.0170  0.1785 -0.3157
  830TIP3    H123981   1.555   4.163  14.687 -0.0181 -0.0821 -1.0214
  830TIP3    H223982   1.561   4.013  14.706  0.1169  0.0574  0.0357
  831TIP3   OH223983   0.807   1.677   5.776  0.1477 -0.1900 -0.4293
  831TIP3    H123984   0.726   1.672   5.826  1.2816 -3.3320  1.2894
  831TIP3    H223985   0.867   1.727   5.831  0.3883 -0.8376 -0.0870
  832TIP3   OH223986   5.409   4.040  14.842 -0.3792 -0.0476  0.5190
  832TIP3    H123987   5.444   4.014  14.757  0.8153  1.1186  0.6215
  832TIP3    H223988   5.314   4.032  14.833 -0.1816 -1.5410 -0.3729
  833TIP3   OH223989   5.309   1.175  12.527 -0.4601  0.4408 -0.7411
  833TIP3    H123990   5.358   1.230  12.588 -1.4104  1.1791 -0.6398
  833TIP3    H223991   5.270   1.237  12.465 -3.0426  0.0639  0.4362
  834TIP3   OH223992   0.232   6.002  12.913 -0.4540 -0.7393 -0.1946
  834TIP3    H123993   0.297   6.027  12.848 -1.8591 -0.3536 -1.4735
  834TIP3    H223994   0.176   5.938  12.869 -0.1768 -2.0759  1.3133
  835TIP3   OH223995   1.371   4.543  16.321 -0.4346 -0.8006 -0.0256
  835TIP3    H123996   1.439   4.553  16.388 -2.6175 -0.0407  2.1380
  835TIP3    H223997   1.318   4.469  16.352 -1.2307 -0.6996 -1.1153
  836TIP3   OH223998   0.090   4.247  16.108 -0.1914 -0.4014 -0.1924
  836TIP3    H123999   0.105   4.155  16.131  0.2928  0.0623  1.4256
  836TIP3    H224000  -0.003   4.261  16.127 -0.3584 -0.6476 -0.8046
  837TIP3   OH224001   0.990   0.872  16.730  1.1066 -0.1343  0.0030
  837TIP3    H124002   1.054   0.894  16.662  0.7021 -0.1026 -0.3672
  837TIP3    H224003   0.943   0.796  16.696  0.7111  0.0541  0.1232
  838TIP3   OH224004   2.833   5.906   5.906  0.3780  0.2387  0.2238
  838TIP3    H124005   2.812   5.878   5.817 -0.7985  0.9752  0.2676
  838TIP3    H224006   2.923   5.876   5.920  0.1893 -0.8528 -0.8158
  839TIP3   OH224007   2.482   4.695  12.816 -0.2902 -0.0486  0.2581
  839TIP3    H124008   2.551   4.718  12.754 -0.2096 -2.3805 -0.5878
  839TIP3    H224009   2.413   4.760  12.802  0.7950  0.9693 -0.4469
  840TIP3   OH224010   3.166   6.803   1.490 -0.1642 -0.0523  0.0036
  840TIP3    H124011   3.218   6.875   1.527 -0.1492  1.5618 -3.0220
  840TIP3    H224012   3.226   6.757   1.432 -1.3806  0.2314 -1.5153
  841TIP3   OH224013   4.195   6.270   5.729  0.0824 -0.3875  0.6747
  841TIP3    H124014   4.202   6.365   5.722  1.3776 -0.4628  0.8970
  841TIP3    H224015   4.127   6.256   5.796  0.3963  0.3839  1.1603
  842TIP3   OH224016   3.246   0.527  16.425 -0.5137  0.0564  0.3245
  842TIP3    H124017   3.328   0.477  16.430 -0.2318  0.5367  0.5002
  842TIP3    H224018   3.178   0.462  16.444 -0.1727 -0.3333  0.2349
  843TIP3   OH224019   4.887   5.071  16.512  0.0197  0.2974 -0.1152
  843TIP3    H124020   4.793   5.077  16.491 -0.0007 -0.5507 -0.2898
  843TIP3    H224021   4.920   5.003  16.453  0.6675  0.3201  0.2200
  844TIP3   OH224022   2.580   0.692  15.421 -0.3660  0.2362  0.2088
  844TIP3    H124023   2.595   0.602  15.390 -0.5573  0.4385 -0.4935
  844TIP3    H224024   2.531   0.733  15.350  1.0076  1.3308 -0.1264
  845TIP3   OH224025   6.526   4.933  11.327  0.3354  0.2495  0.2752
  845TIP3    H124026   6.515   4.928  11.232  2.3913 -0.4329  0.0524
  845TIP3    H224027   6.436   4.930  11.361 -0.3611 -1.4924 -1.5538
  846TIP3   OH224028   0.890   5.201   4.778  0.4922 -0.0907 -0.0756
  846TIP3    H124029   0.818   5.143   4.802 -0.1783  0.1250 -1.4831
  846TIP3    H224030   0.848   5.275   4.734  1.4945  0.5163 -0.0369
  847TIP3   OH224031   0.950   5.573   5.244  0.0053  0.0684 -0.4645
  847TIP3    H124032   0.921   5.621   5.166 -0.6226  0.4880  0.0228
  847TIP3    H224033   0.923   5.628   5.317 -0.0328 -0.6607  0.0726
  848TIP3   OH224034   5.688   5.015   5.365 -0.7496  0.3373 -0.7535
  848TIP3    H124035   5.684   5.092   5.421  0.4519  0.2046 -0.4796
  848TIP3    H224036   5.781   5.001   5.349 -0.9187 -1.3924 -0.3306
  849TIP3   OH224037   5.747   2.755  15.250 -0.6298  0.1170  0.3955
  849TIP3    H124038   5.824   2.809  15.267 -0.5005 -0.5718  2.1116
  849TIP3    H224039   5.720   2.779  15.162  1.1592  0.8404  0.0203
  850TIP3   OH224040   4.863   3.746   0.739  0.2858 -0.0609 -0.4739
  850TIP3    H124041   4.897   3.831   0.711  1.0999 -0.1290  0.2727
  850TIP3    H224042   4.790   3.768   0.797  0.9159  0.1467  0.2488
  851TIP3   OH224043   5.590   6.271  13.790  0.3531  0.2201  0.1386
  851TIP3    H124044   5.508   6.227  13.768  0.0328  0.3067  1.1410
  851TIP3    H224045   5.658   6.215  13.754 -0.0980 -0.5896  0.5380
  852TIP3   OH224046   4.291   4.273   6.933  0.0005 -0.4029  0.4053
  852TIP3    H124047   4.334   4.252   6.850 -1.2485  0.8977 -0.6043
  852TIP3    H224048   4.361   4.306   6.989  0.5811  0.2005 -0.6667
  853TIP3   OH224049   2.667   2.745   0.164  0.1372  0.2510 -0.3876
  853TIP3    H124050   2.598   2.724   0.101 -0.3796  0.4895  0.0973
  853TIP3    H224051   2.712   2.661   0.178 -0.1155  0.0719 -0.6307
  854TIP3   OH224052   5.769   5.081   3.588  0.4175 -0.0752  0.4338
  854TIP3    H124053   5.717   5.121   3.519 -0.5319 -2.5605 -0.3483
  854TIP3    H224054   5.705   5.036   3.644  1.5066 -1.4340  0.6280
  855TIP3   OH224055   5.285   1.893   3.068 -0.3079  0.1368 -0.2747
  855TIP3    H124056   5.359   1.852   3.113  0.1071  0.8802 -0.2790
  855TIP3    H224057   5.301   1.874   2.975 -1.0292 -1.1760 -0.1380
  856TIP3   OH224058   2.195   6.658  16.598 -0.1512  0.0846  0.1976
  856TIP3    H124059   2.204   6.566  16.621  0.2839  0.4384  1.4586
  856TIP3    H224060   2.119   6.688  16.648 -0.5450  0.3152 -0.5257
  857TIP3   OH224061   3.686   0.211   2.682  0.2346  0.1973 -0.2520
  857TIP3    H124062   3.620   0.262   2.729  1.1110  1.0278  0.1107
  857TIP3    H224063   3.640   0.175   2.606 -0.5296  1.1152 -0.2301
  858TIP3   OH224064   5.034   1.237  15.277 -0.3008  0.6376  0.8187
  858TIP3    H124065   5.086   1.161  15.248  1.1898  1.7416  0.5314
  858TIP3    H224066   5.077   1.312  15.235 -1.9281  1.6205  0.8849
  859TIP3   OH224067   5.218   4.675   3.684  0.1400  0.3662 -0.2746
  859TIP3    H124068   5.170   4.634   3.613 -0.1135 -0.0914  0.1586
  859TIP3    H224069   5.308   4.680   3.652 -0.1125  0.8577 -0.9227
  860TIP3   OH224070   0.136   4.018   3.480  0.8687  0.1177  0.1380
  860TIP3    H124071   0.170   4.107   3.467  1.0881  0.1980  1.2173
  860TIP3    H224072   0.113   4.015   3.573 -0.9601 -0.3263 -0.3048
  861TIP3   OH224073   5.048   5.554  12.535  0.0694 -0.2041  0.6201
  861TIP3    H124074   5.063   5.460  12.540  0.6798 -0.1542 -0.2305
  861TIP3    H224075   4.959   5.562  12.502  0.3540 -0.4786 -0.2129
  862TIP3   OH224076   0.811   4.750   2.195  0.1084  0.6999  0.5690
  862TIP3    H124077   0.746   4.694   2.154  0.9138 -0.5579  0.9870
  862TIP3    H224078   0.762   4.801   2.260 -0.6476  0.5938  0.0877
  863TIP3   OH224079   4.924   3.581  17.016 -0.1900  0.1175  0.2358
  863TIP3    H124080   4.910   3.634  17.095  3.3694  0.7320  0.5459
  863TIP3    H224081   4.907   3.491  17.044 -0.3785  0.4849  1.3442
  864TIP3   OH224082   0.095   6.061   1.852  0.3143 -0.3093  0.1698
  864TIP3    H124083   0.056   6.071   1.765  1.2826  0.6090 -0.1675
  864TIP3    H224084   0.160   6.131   1.858 -0.3983  0.2421  1.9975
  865TIP3   OH224085   0.223   1.240   5.723 -0.6651 -0.1412  0.6614
  865TIP3    H124086   0.308   1.201   5.706  1.2430  3.0471  2.3636
  865TIP3    H224087   0.189   1.194   5.799  1.4990  1.3208  2.5781
  866TIP3   OH224088   6.461   4.862   1.735 -0.0420  0.4549 -0.2537
  866TIP3    H124089   6.457   4.957   1.731 -1.1572  0.3917 -0.8301
  866TIP3    H224090   6.435   4.841   1.825 -1.9537  0.6077 -0.7396
  867TIP3   OH224091   4.605   3.507   3.900  0.8267 -0.3243 -0.5059
  867TIP3    H124092   4.632   3.597   3.919 -0.1950 -0.2969  0.9033
  867TIP3    H224093   4.683   3.455   3.918  0.6933  0.0153  1.0933
  868TIP3   OH224094   4.403   5.183  11.805  1.0394  0.4409  0.2592
  868TIP3    H124095   4.383   5.091  11.824  0.8915  0.6448  1.1002
  868TIP3    H224096   4.464   5.179  11.731 -0.4526 -0.2779 -0.9734
  869TIP3   OH224097   2.159   5.436   3.002  0.3112 -0.4190  0.3076
  869TIP3    H124098   2.101   5.397   3.068  0.4443 -0.6626  0.2777
  869TIP3    H224099   2.244   5.394   3.016  0.4388 -0.1909  0.2325
  870TIP3   OH224100   4.155   2.524  14.246  0.3765  0.1997  0.1554
  870TIP3    H124101   4.153   2.455  14.179  0.7773  0.7651 -0.4468
  870TIP3    H224102   4.131   2.604  14.199 -0.9008  0.3506  1.0208
  871TIP3   OH224103   1.139   5.030  10.958 -0.0011  0.0114  0.1315
  871TIP3    H124104   1.154   5.116  10.918  0.8582  0.7713  2.0154
  871TIP3    H224105   1.091   4.981  10.891  0.4345  1.5876 -1.3958
  872TIP3   OH224106   5.484   4.168  14.158 -0.2480  0.0107 -0.8070
  872TIP3    H124107   5.441   4.131  14.235  0.5717 -2.4288 -1.4783
  872TIP3    H224108   5.517   4.253  14.187  0.5401 -1.1025  1.7050
  873TIP3   OH224109   1.279   6.492  14.387 -0.4039 -0.3278 -0.1127
  873TIP3    H124110   1.243   6.457  14.306 -0.0223  1.0754 -0.8955
  873TIP3    H224111   1.233   6.574  14.401 -0.5613 -0.6255  1.1713
  874TIP3   OH224112   4.701   1.056   4.764  0.3041  0.1558 -0.2952
  874TIP3    H124113   4.790   1.021   4.757 -0.0380 -0.7941  0.1209
  874TIP3    H224114   4.646   0.980   4.778 -0.3978  0.8933  1.0144
  875TIP3   OH224115   2.182   4.854   4.529 -0.2095  0.0859 -0.0405
  875TIP3    H124116   2.099   4.878   4.487 -1.4355 -0.4757  1.9921
  875TIP3    H224117   2.157   4.795   4.599  2.0337 -0.8394  0.0123
  876TIP3   OH224118   5.760   6.358  12.325 -0.0144  0.0201  0.1235
  876TIP3    H124119   5.718   6.284  12.368 -1.1572  0.2366 -0.5761
  876TIP3    H224120   5.853   6.349  12.345 -0.4318 -0.3139  1.9586
  877TIP3   OH224121   6.740   0.755   4.913 -0.4331  0.3956  0.0761
  877TIP3    H124122   6.687   0.827   4.880 -0.7753  0.2344  0.2711
  877TIP3    H224123   6.765   0.781   5.002 -0.9926  0.0457  0.3400
  878TIP3   OH224124   3.122   3.223  15.438  0.3695  0.4630 -0.0058
  878TIP3    H124125   3.200   3.230  15.383  0.5977  0.2024  0.2831
  878TIP3    H224126   3.049   3.237  15.378  0.5346 -1.7555 -0.7534
  879TIP3   OH224127   2.740   0.185   1.204 -0.0835 -0.0842  0.0906
  879TIP3    H124128   2.670   0.233   1.161  1.2577  0.0840 -1.9635
  879TIP3    H224129   2.820   0.229   1.175  0.8719  0.0360  2.7747
  880TIP3   OH224130   0.479   3.850   5.214  0.2416  0.3462  0.1222
  880TIP3    H124131   0.475   3.812   5.302  1.2609 -0.2634 -0.0811
  880TIP3    H224132   0.543   3.921   5.222  2.2339 -1.2879 -0.6691
  881TIP3   OH224133   2.022   2.015  11.456  0.7030  0.5146  0.4613
  881TIP3    H124134   2.079   1.952  11.499  0.8574  0.0836 -0.3645
  881TIP3    H224135   1.938   1.970  11.446  0.5385  0.7662  0.7093
  882TIP3   OH224136   3.621   1.786  14.913  0.3355 -0.0990  0.0466
  882TIP3    H124137   3.575   1.705  14.936 -1.1705  0.7117 -0.0910
  882TIP3    H224138   3.619   1.838  14.993  3.9536 -1.3806  1.0766
  883TIP3   OH224139   3.201   1.002  10.610 -0.0914  0.1657 -0.0318
  883TIP3    H124140   3.283   0.972  10.572 -1.3085 -0.4905 -2.2166
  883TIP3    H224141   3.134   0.943  10.575 -1.4539  0.3458  2.1315
  884TIP3   OH224142   3.830   4.306  13.056 -0.2341  0.6642  0.3792
  884TIP3    H124143   3.857   4.319  13.147  0.6723  1.8477 -0.0461
  884TIP3    H224144   3.903   4.341  13.004 -1.0350  0.6098 -0.8030
  885TIP3   OH224145   4.817   1.594  12.517  0.1278  0.3550  0.1047
  885TIP3    H124146   4.759   1.569  12.588  0.1100  0.4031  0.1075
  885TIP3    H224147   4.758   1.609  12.442  0.0501  1.3362  0.3650
  886TIP3   OH224148   3.470   0.525  14.750 -0.0240 -0.0335 -0.0331
  886TIP3    H124149   3.389   0.484  14.781 -0.3838 -0.7039 -1.8015
  886TIP3    H224150   3.530   0.518  14.823 -0.8899 -1.4471  0.5658
  887TIP3   OH224151   1.938   0.871  12.924  0.3749  0.4793 -0.6497
  887TIP3    H124152   2.033   0.880  12.936 -0.0013  1.6158  1.6821
  887TIP3    H224153   1.900   0.935  12.983 -1.9409 -1.7961  0.4266
  888TIP3   OH224154   1.667   4.074   4.839  0.0874  0.0792  0.3013
  888TIP3    H124155   1.701   3.987   4.858 -0.4030  0.2876  2.2411
  888TIP3    H224156   1.702   4.095   4.753  0.4286 -1.9228 -0.0773
  889TIP3   OH224157   4.848   0.258   4.532  0.0582 -0.0918  0.4175
  889TIP3    H124158   4.893   0.248   4.617  0.2655 -1.3424  0.1687
  889TIP3    H224159   4.767   0.303   4.553 -1.2695 -2.9408  1.7517
  890TIP3   OH224160   4.323   3.677   5.034 -0.0825 -0.3337  0.0634
  890TIP3    H124161   4.264   3.718   4.971 -0.4109 -1.0707 -0.1113
  890TIP3    H224162   4.365   3.606   4.986  1.3134  0.4735  0.0491
  891TIP3   OH224163   1.228   3.354   3.870 -0.2757  0.4050 -0.5935
  891TIP3    H124164   1.260   3.398   3.949  0.5068 -2.0844  0.5132
  891TIP3    H224165   1.197   3.269   3.900  0.1856 -0.6600 -2.9902
  892TIP3   OH224166   4.413   6.248   4.247 -0.5657 -0.3625 -0.4625
  892TIP3    H124167   4.509   6.254   4.243 -0.5614 -0.6256 -0.7799
  892TIP3    H224168   4.384   6.339   4.238 -0.2251  0.2920  3.9905
  893TIP3   OH224169   4.168   6.168   3.950  0.0237  0.2256 -0.2709
  893TIP3    H124170   4.241   6.139   4.005 -0.4319  0.2467  0.3399
  893TIP3    H224171   4.173   6.263   3.952  1.2593  0.2295 -1.9322
  894TIP3   OH224172   3.162   6.189  11.198  0.3159 -0.1507  0.5810
  894TIP3    H124173   3.070   6.166  11.194  1.0163 -2.9445 -0.9280
  894TIP3    H224174   3.192   6.187  11.107  1.9408  0.2294  1.0871
  895TIP3   OH224175   1.844   5.485   2.309  0.3389 -0.0210  0.8357
  895TIP3    H124176   1.937   5.475   2.329 -0.0048 -0.9943  2.0068
  895TIP3    H224177   1.837   5.462   2.216  1.3196  0.4835  0.6267
  896TIP3   OH224178   1.327   2.462  12.328  0.0598  0.3043 -0.5860
  896TIP3    H124179   1.243   2.477  12.372  0.7171  0.0382  0.7825
  896TIP3    H224180   1.365   2.549  12.317  1.1396  0.1882  1.9001
  897TIP3   OH224181   6.220   5.204   2.743 -0.3102 -0.4975 -0.0156
  897TIP3    H124182   6.251   5.156   2.819  1.9314  1.2773  0.2645
  897TIP3    H224183   6.167   5.275   2.780 -0.3615 -0.4439 -0.1929
  898TIP3   OH224184   3.549   1.237  16.032 -0.2000  0.0686  0.2042
  898TIP3    H124185   3.484   1.173  16.064  1.4677 -1.9161 -0.2696
  898TIP3    H224186   3.632   1.207  16.070  0.6934  1.6751 -0.4517
  899TIP3   OH224187   4.401   0.310  13.211  0.1074  0.0255 -0.6380
  899TIP3    H124188   4.446   0.387  13.177  1.0208 -0.3006 -0.1939
  899TIP3    H224189   4.458   0.236  13.188  0.6980 -0.2096  1.4606
  900TIP3   OH224190   5.786   3.728   5.507 -0.1069  0.7167 -0.1802
  900TIP3    H124191   5.748   3.795   5.451  0.8242  0.8222 -0.6906
  900TIP3    H224192   5.796   3.771   5.592 -1.5130  0.5563  0.0879
  901TIP3   OH224193   2.607   4.271  14.255  0.3301  0.1401 -0.0438
  901TIP3    H124194   2.515   4.281  14.279  0.1522 -0.6758 -0.3661
  901TIP3    H224195   2.610   4.188  14.207  0.7115  1.5644 -2.5652
  902TIP3   OH224196   0.023   5.487   3.227  0.2935 -0.7904 -0.0618
  902TIP3    H124197   0.083   5.434   3.279 -0.2402 -1.9332 -0.5795
  902TIP3    H224198  -0.006   5.556   3.286  1.8806 -0.4111  0.2758
  903TIP3   OH224199   2.703   5.604   5.791 -0.4381 -0.0922 -0.0274
  903TIP3    H124200   2.654   5.538   5.840  0.8337 -1.1611 -0.1440
  903TIP3    H224201   2.791   5.566   5.781 -0.0839  1.0070 -1.3250
  904TIP3   OH224202   0.907   6.590  12.812 -0.3838  0.4627  0.4369
  904TIP3    H124203   0.910   6.686  12.806 -2.1397  0.3973 -2.7793
  904TIP3    H224204   0.993   6.562  12.780 -1.0539  0.9201 -1.8603
  905TIP3   OH224205   3.075   4.737   4.752 -0.0835  0.7012  0.4572
  905TIP3    H124206   3.082   4.762   4.844  2.1307 -1.1789  0.8537
  905TIP3    H224207   3.128   4.802   4.705 -0.0147  0.8094  0.6873
  906TIP3   OH224208   3.902   4.201   3.984 -0.1906  0.1268 -0.2556
  906TIP3    H124209   3.961   4.141   3.937 -0.1771  0.8509 -1.1681
  906TIP3    H224210   3.957   4.239   4.053  0.6765  1.4802 -1.6628
  907TIP3   OH224211   1.828   5.757  15.770 -0.1651 -0.1667 -0.3128
  907TIP3    H124212   1.794   5.671  15.747 -0.3172 -0.2958  0.3808
  907TIP3    H224213   1.804   5.814  15.696 -2.6617 -0.0461  0.5521
  908TIP3   OH224214   1.940   2.075  15.707  0.3591 -1.1698 -0.1656
  908TIP3    H124215   1.994   2.017  15.761 -2.0687 -1.7984  1.6599
  908TIP3    H224216   1.941   2.034  15.620 -1.1384 -3.9420  1.0216
  909TIP3   OH224217   1.407   2.423  15.774  0.0265  0.3759 -0.2350
  909TIP3    H124218   1.482   2.475  15.744  1.9575 -0.2678  3.1674
  909TIP3    H224219   1.446   2.343  15.809 -2.3759 -0.5893  0.3534
  910TIP3   OH224220   6.237   6.533  16.041 -0.3524  0.0355  0.6282
  910TIP3    H124221   6.331   6.535  16.057  0.0113 -0.0851 -1.3465
  910TIP3    H224222   6.219   6.613  15.992 -0.8480 -1.1209 -1.1244
  911TIP3   OH224223   0.743   4.928   5.792 -0.6267  0.7563 -0.2277
  911TIP3    H124224   0.733   4.946   5.885 -1.1940  1.0561 -0.3422
  911TIP3    H224225   0.795   4.848   5.788 -0.1853  1.0117  0.3352
  912TIP3   OH224226   6.405   2.220   1.189 -0.1171 -0.2116  0.4579
  912TIP3    H124227   6.447   2.307   1.192 -0.6548  0.0482  0.4570
  912TIP3    H224228   6.399   2.199   1.096  1.6722 -1.0612  0.5110
  913TIP3   OH224229   2.268   3.069  11.807 -0.2486 -0.1222  0.0237
  913TIP3    H124230   2.359   3.066  11.779  0.6679 -0.8212  2.8768
  913TIP3    H224231   2.224   3.003  11.753  1.2476 -0.7678 -0.4199
  914TIP3   OH224232   0.112   5.489  15.362 -0.0983 -0.2648  0.0925
  914TIP3    H124233   0.026   5.447  15.356  1.3801 -3.8200  2.1401
  914TIP3    H224234   0.104   5.549  15.436 -0.6844 -0.9080  0.5586
  915TIP3   OH224235   6.384   4.416  13.035 -0.1797  0.0649 -0.1733
  915TIP3    H124236   6.388   4.320  13.033  0.7328  0.0673  1.1311
  915TIP3    H224237   6.369   4.441  12.944  1.2594 -1.2600 -0.7960
  916TIP3   OH224238   0.333   0.969   1.624 -0.0007 -0.1888  0.5834
  916TIP3    H124239   0.239   0.959   1.609  0.1252  1.0810 -1.2240
  916TIP3    H224240   0.372   0.959   1.537  1.5647 -0.9643  1.3555
  917TIP3   OH224241   4.106   1.489  11.104  0.2114  0.3845 -0.0120
  917TIP3    H124242   4.077   1.580  11.111  1.0983  0.4916  3.2141
  917TIP3    H224243   4.129   1.478  11.011 -0.8482  3.1333 -0.6448
  918TIP3   OH224244   6.804   0.765   5.876  0.0880  0.1550 -0.1934
  918TIP3    H124245   6.887   0.796   5.840  0.3640 -1.1677 -0.7122
  918TIP3    H224246   6.769   0.706   5.809 -0.6385 -0.3109  0.5888
  919TIP3   OH224247   0.952   2.965  15.302 -0.0628 -0.0385 -0.6063
  919TIP3    H124248   0.916   3.050  15.278 -0.8353 -0.3997 -0.7363
  919TIP3    H224249   0.980   2.926  15.219  1.3723  0.5696 -0.4252
  920TIP3   OH224250   5.043   0.618  16.347  0.7998  0.0489 -0.1891
  920TIP3    H124251   5.137   0.633  16.363  0.9622  0.4816 -1.4434
  920TIP3    H224252   5.010   0.582  16.429  1.7761  1.2360  0.7488
  921TIP3   OH224253   2.485   0.283  11.760 -0.0364  0.3214 -0.2894
  921TIP3    H124254   2.552   0.342  11.795  1.1257 -1.5967  0.8094
  921TIP3    H224255   2.424   0.269  11.832  2.0540 -3.1841  0.9474
  922TIP3   OH224256   3.996   2.732  11.806  0.4460  0.1085 -0.5742
  922TIP3    H124257   3.917   2.720  11.752  0.2046  0.2187 -0.2465
  922TIP3    H224258   3.991   2.823  11.835  0.6081  0.0656 -0.4145
  923TIP3   OH224259   4.368   5.084  14.074  0.3168  0.3975  0.2784
  923TIP3    H124260   4.284   5.108  14.035  1.1139 -1.1992 -2.5561
  923TIP3    H224261   4.357   5.102  14.167 -3.3986 -0.3520  0.0598
  924TIP3   OH224262   2.029   6.384   2.940  0.4901 -0.1701  0.7107
  924TIP3    H124263   2.114   6.423   2.921  0.0939  0.7295  0.7799
  924TIP3    H224264   2.010   6.330   2.863  0.6058  0.5139  0.1941
  925TIP3   OH224265   1.090   5.115  11.797 -0.5063 -0.7643  0.0882
  925TIP3    H124266   1.110   5.097  11.705 -1.1436 -1.0761  0.0039
  925TIP3    H224267   1.007   5.163  11.794  0.1474  0.3878  0.4271
  926TIP3   OH224268   0.924   3.469  11.870 -0.3939 -0.1201 -0.6760
  926TIP3    H124269   0.869   3.449  11.795 -0.1599 -0.6050 -0.7198
  926TIP3    H224270   0.865   3.509  11.934 -0.8612 -0.9325 -0.5967
  927TIP3   OH224271   1.550   0.168  15.902  0.1849  0.0010  0.2305
  927TIP3    H124272   1.634   0.186  15.858 -0.1159 -0.3961 -0.5242
  927TIP3    H224273   1.491   0.235  15.867 -0.0160 -0.2204  0.1429
  928TIP3   OH224274   1.260   4.276  11.310 -0.4340  0.0267 -0.2655
  928TIP3    H124275   1.282   4.234  11.226  0.6799 -0.3722  0.2201
  928TIP3    H224276   1.336   4.329  11.331 -0.9345  0.5469  0.2337
  929TIP3   OH224277   1.754   5.116   5.457  0.5771 -0.3110  0.0693
  929TIP3    H124278   1.720   5.075   5.536 -1.5859  0.0926 -0.6130
  929TIP3    H224279   1.743   5.050   5.389  1.2950 -0.2235 -0.1339
  930TIP3   OH224280   3.283   1.174   1.365 -0.4649  0.0983  0.0806
  930TIP3    H124281   3.254   1.198   1.277  0.2511  2.4104  0.4262
  930TIP3    H224282   3.203   1.179   1.418 -0.7390 -0.4494 -0.2822
  931TIP3   OH224283   0.608   6.693   2.551  0.4210  0.4537  0.5711
  931TIP3    H124284   0.682   6.748   2.527  1.3834 -1.8259 -1.8848
  931TIP3    H224285   0.643   6.633   2.616  0.4431  0.0530  0.1870
  932TIP3   OH224286   1.128   4.769   2.149 -0.2362  0.1595 -0.5535
  932TIP3    H124287   1.036   4.745   2.147  0.1730 -1.5271  0.1293
  932TIP3    H224288   1.173   4.689   2.175  1.4925  0.7630 -1.5988
  933TIP3   OH224289   6.007   4.981   3.447 -0.1168  0.0874  0.0008
  933TIP3    H124290   6.054   4.912   3.495  0.0462 -0.8599 -1.4697
  933TIP3    H224291   5.920   4.982   3.486  0.7020  0.9761  1.8938
  934TIP3   OH224292   1.011   3.392  14.563  0.2261  0.2842  0.8817
  934TIP3    H124293   0.964   3.359  14.487  0.0403  1.5746  0.4271
  934TIP3    H224294   1.088   3.336  14.570  0.9310  0.9570 -1.0465
  935TIP3   OH224295   1.676   1.381   3.011  0.4266 -0.4901 -0.6944
  935TIP3    H124296   1.712   1.297   3.040  0.4967 -0.5193 -0.8676
  935TIP3    H224297   1.617   1.358   2.939  0.9847 -0.3156 -1.2039
  936TIP3   OH224298   3.548   6.775  11.921  0.0372  0.5821 -0.0256
  936TIP3    H124299   3.484   6.824  11.869  1.1233  1.0499 -0.9321
  936TIP3    H224300   3.620   6.836  11.934  0.6758 -0.2238  0.2658
  937TIP3   OH224301   4.725   1.304   2.496  0.3429 -0.0602  0.5696
  937TIP3    H124302   4.796   1.298   2.432  0.2340 -1.2739  0.5439
  937TIP3    H224303   4.648   1.328   2.443  0.2257 -1.1922  0.2108
  938TIP3   OH224304   1.629   5.900  14.840  0.0159 -0.2363  0.2307
  938TIP3    H124305   1.548   5.926  14.884 -0.9797 -0.2034 -1.5340
  938TIP3    H224306   1.670   5.983  14.815 -0.7899 -0.2428 -1.2319
  939TIP3   OH224307   2.266   1.856  13.337  0.5828 -0.3456 -0.3579
  939TIP3    H124308   2.198   1.918  13.310  0.4498 -0.1220  0.4719
  939TIP3    H224309   2.346   1.908  13.338  0.7143 -0.5370 -1.0520
  940TIP3   OH224310   6.688   2.984   5.712  0.5037 -0.3099  0.3731
  940TIP3    H124311   6.765   3.001   5.766  0.1594 -0.1923  0.8234
  940TIP3    H224312   6.697   3.046   5.639  1.2815 -0.8905 -0.0317
  941TIP3   OH224313   5.334   6.512   4.844  0.0674 -0.3017  0.2239
  941TIP3    H124314   5.291   6.597   4.842 -0.3878 -0.5303  0.1763
  941TIP3    H224315   5.303   6.471   4.925  0.3736 -0.3763  0.3050
  942TIP3   OH224316   5.096   5.388   4.954  0.3482 -0.5300  0.1572
  942TIP3    H124317   5.089   5.304   4.998  1.4339 -0.0277  1.3376
  942TIP3    H224318   5.022   5.391   4.894 -1.3996 -1.0601  2.2477
  943TIP3   OH224319   0.064   1.179   3.284 -0.3922  0.2437 -0.1772
  943TIP3    H124320   0.043   1.089   3.258 -0.9581 -0.0855  1.3706
  943TIP3    H224321   0.144   1.200   3.235 -0.6929 -0.8196 -1.1360
  944TIP3   OH224322   3.196   3.606   0.838  0.1941 -0.1837  0.3276
  944TIP3    H124323   3.221   3.648   0.920  0.1649  0.0334  0.2262
  944TIP3    H224324   3.112   3.646   0.815  0.3233 -0.0609  0.0629
  945TIP3   OH224325   3.689   5.713   4.417  0.0738 -0.1844 -0.0309
  945TIP3    H124326   3.656   5.714   4.327  1.7056  1.2619 -0.6311
  945TIP3    H224327   3.618   5.674   4.468 -0.9463 -0.8481 -1.9064
  946TIP3   OH224328   3.366   4.246   6.383  0.6633  0.3801 -0.3786
  946TIP3    H124329   3.331   4.281   6.465  3.1740  0.5662  0.6636
  946TIP3    H224330   3.387   4.155   6.402  2.8479  0.8826 -0.2732
  947TIP3   OH224331   2.420   0.298   3.860  0.1899  0.1213 -0.3571
  947TIP3    H124332   2.410   0.312   3.954  1.5007 -1.3680  0.0241
  947TIP3    H224333   2.336   0.260   3.833 -0.0548  0.2082  0.2603
  948TIP3   OH224334   5.093   0.111  14.000  0.2674  0.2454 -0.1083
  948TIP3    H124335   5.052   0.169  13.936 -0.8102 -0.7287 -0.3274
  948TIP3    H224336   5.122   0.036  13.949  1.0590  0.2943  0.2695
  949TIP3   OH224337   6.340   0.533  15.722 -0.2230  0.7156 -0.0959
  949TIP3    H124338   6.380   0.598  15.779  0.2454  2.1313 -2.0025
  949TIP3    H224339   6.246   0.545  15.733 -0.1300  1.1701  0.1788
  950TIP3   OH224340   4.865   2.268  15.491  0.0244  0.1006  0.5581
  950TIP3    H124341   4.820   2.221  15.561 -1.4179  3.0994  1.7296
  950TIP3    H224342   4.799   2.278  15.423  0.6251 -0.4654 -0.1099
  951TIP3   OH224343   2.730   3.383   1.128 -0.3829  0.1569  0.1712
  951TIP3    H124344   2.773   3.300   1.108  2.5472  1.5987  0.2232
  951TIP3    H224345   2.723   3.428   1.044  0.6584  1.0446  0.5511
  952TIP3   OH224346   5.007   2.067   2.853  0.0134 -0.6787 -0.0133
  952TIP3    H124347   4.971   2.069   2.941  0.4921 -1.2371  0.1976
  952TIP3    H224348   5.087   2.120   2.858  0.5638 -1.5119  0.1299
  953TIP3   OH224349   6.172   2.731  10.931  0.0170 -0.0200 -0.0607
  953TIP3    H124350   6.229   2.789  10.882 -0.1927  0.7254  0.5701
  953TIP3    H224351   6.109   2.789  10.974  0.1719 -0.6560  1.0640
  954TIP3   OH224352   2.585   2.991  16.825 -0.3525  0.5075  0.2594
  954TIP3    H124353   2.634   2.943  16.891 -1.5562  1.4442  1.8633
  954TIP3    H224354   2.580   3.080  16.858 -0.6973  1.0633 -1.2445
  955TIP3   OH224355   6.121   3.739   2.727  0.0001  0.2394 -0.1025
  955TIP3    H124356   6.123   3.734   2.631 -0.9936 -1.3985 -0.0463
  955TIP3    H224357   6.029   3.732   2.750  0.4553 -2.8238  1.1087
  956TIP3   OH224358   5.788   5.213  16.186 -0.1383  0.2431 -0.1040
  956TIP3    H124359   5.789   5.262  16.269 -0.1588  0.8280 -0.4472
  956TIP3    H224360   5.720   5.147  16.198  1.0693 -0.8388  1.0066
  957TIP3   OH224361   0.700   1.578   4.334 -0.1062 -0.2264 -0.5034
  957TIP3    H124362   0.712   1.585   4.240  1.3803 -0.2100 -0.3301
  957TIP3    H224363   0.725   1.665   4.368  0.6416 -0.6366  0.0121
  958TIP3   OH224364   2.286   4.999  16.629 -0.3377 -0.4136  0.4048
  958TIP3    H124365   2.283   4.939  16.704 -0.6771 -1.8455 -0.7372
  958TIP3    H224366   2.378   5.025  16.623  0.1809 -2.3070 -0.2287
  959TIP3   OH224367   4.557   6.584  16.361 -0.3503 -0.0790 -0.5023
  959TIP3    H124368   4.562   6.567  16.266 -0.7688 -0.4398 -0.4611
  959TIP3    H224369   4.467   6.560  16.385 -0.7198  1.4519 -0.2963
  960TIP3   OH224370   2.312   4.790   6.904 -0.0073  0.1929 -0.3427
  960TIP3    H124371   2.229   4.801   6.950  0.0592 -0.4554 -0.0568
  960TIP3    H224372   2.318   4.696   6.886  0.3416  0.3250 -0.9764
  961TIP3   OH224373   3.470   4.994   4.688 -0.2385  0.3850  0.1307
  961TIP3    H124374   3.537   4.929   4.705 -1.8704 -1.5844 -0.7555
  961TIP3    H224375   3.486   5.022   4.598  2.4064  3.6409  1.4868
  962TIP3   OH224376   5.330   5.398   3.751 -0.2942 -0.1530  0.6152
  962TIP3    H124377   5.387   5.370   3.823  2.2218  2.0195 -0.4779
  962TIP3    H224378   5.309   5.317   3.705  0.5309 -1.2050  2.0353
  963TIP3   OH224379   4.273   4.878   6.117 -0.2395  0.5656  0.2070
  963TIP3    H124380   4.203   4.898   6.055 -0.9229 -0.4987  0.6319
  963TIP3    H224381   4.265   4.784   6.133 -1.3015  1.1298  3.3815
  964TIP3   OH224382   3.644   5.997  13.722  0.4481  0.2932 -0.1828
  964TIP3    H124383   3.643   5.938  13.646  2.7321  0.1839 -0.1710
  964TIP3    H224384   3.573   6.058  13.706 -1.1883 -1.7085 -0.8143
  965TIP3   OH224385   5.938   4.502   3.785  0.0147  0.3700  0.2693
  965TIP3    H124386   6.016   4.489   3.732 -0.1952 -1.7352  0.4447
  965TIP3    H224387   5.971   4.500   3.875 -0.2947 -0.8713  0.3520
  966TIP3   OH224388   4.768   2.358  13.394  0.0223  0.0286 -0.2564
  966TIP3    H124389   4.854   2.387  13.422  0.3059 -0.0802 -1.0029
  966TIP3    H224390   4.707   2.413  13.443  0.4669 -1.0952  1.6328
  967TIP3   OH224391   4.143   4.846   1.327  0.1650 -0.0082 -0.0557
  967TIP3    H124392   4.199   4.769   1.335  1.5363  1.1132  1.4745
  967TIP3    H224393   4.054   4.814   1.344  0.6231 -1.3686 -0.1755
  968TIP3   OH224394   6.220   4.995  13.097 -0.2310 -0.4570  0.0877
  968TIP3    H124395   6.259   5.049  13.166 -1.1804 -1.2985  1.3163
  968TIP3    H224396   6.178   4.922  13.145 -0.7336 -1.1589 -1.3901
  969TIP3   OH224397   1.576   3.662  14.231  0.1717 -0.3480  0.5194
  969TIP3    H124398   1.606   3.575  14.257 -1.3746 -1.3053 -0.8007
  969TIP3    H224399   1.502   3.645  14.172  1.3915  1.8030 -1.7116
  970TIP3   OH224400   4.447   1.157   0.147  0.2430  0.2213 -0.1856
  970TIP3    H124401   4.362   1.186   0.115  0.2197  1.1862  0.7261
  970TIP3    H224402   4.510   1.207   0.095  0.2584 -0.6021 -0.9630
  971TIP3   OH224403   4.113   4.805   3.144  0.5765 -0.3163 -0.5195
  971TIP3    H124404   4.045   4.737   3.143 -0.6298  0.8345 -3.9438
  971TIP3    H224405   4.195   4.757   3.135 -0.0036 -1.5072  0.3158
  972TIP3   OH224406   0.935   1.358  12.362 -0.5432  0.1346 -0.2068
  972TIP3    H124407   0.949   1.433  12.420 -1.6771  0.1553  0.0457
  972TIP3    H224408   0.848   1.326  12.385 -0.0707 -1.2575 -0.3296
  973TIP3   OH224409   6.017   4.348   2.417  0.6608 -0.4490  0.4249
  973TIP3    H124410   6.008   4.303   2.501 -1.3259 -1.3820 -0.2720
  973TIP3    H224411   5.965   4.296   2.356 -0.5900  2.0473 -0.6959
  974TIP3   OH224412   1.235   1.559   0.048  0.3977  0.4825  0.4868
  974TIP3    H124413   1.141   1.549   0.035  0.1920  1.8892  0.8090
  974TIP3    H224414   1.267   1.469   0.060 -0.9737  0.0365  0.9263
  975TIP3   OH224415   3.852   1.480  16.960  0.2498 -0.3294 -0.0009
  975TIP3    H124416   3.782   1.539  16.931 -0.1559 -0.6224  0.3690
  975TIP3    H224417   3.903   1.531  17.023 -1.7203 -1.2157  2.4089
  976TIP3   OH224418   6.515   6.382  16.233 -0.1593 -0.0124 -0.3394
  976TIP3    H124419   6.489   6.310  16.175  1.7803 -0.7479 -0.3323
  976TIP3    H224420   6.604   6.359  16.262  1.2158  3.2113 -1.7151
  977TIP3   OH224421   1.783   1.345   3.312  0.5646  0.8932  0.1196
  977TIP3    H124422   1.825   1.429   3.300 -1.1361  1.7044 -0.3378
  977TIP3    H224423   1.780   1.333   3.407  2.5825  0.4103  0.1374
  978TIP3   OH224424   2.529   5.885   0.567 -0.0539 -0.1524 -0.1414
  978TIP3    H124425   2.598   5.826   0.535  0.5329 -0.3748  1.5098
  978TIP3    H224426   2.558   5.972   0.539  1.2937 -0.1562  1.1624
  979TIP3   OH224427   1.538   4.055   0.400  0.4779 -0.0889 -0.0622
  979TIP3    H124428   1.527   4.127   0.338  1.0794  1.5750  1.7076
  979TIP3    H224429   1.455   4.007   0.396  0.0795  0.6876 -1.2832
  980TIP3   OH224430   5.108   0.871  15.746  0.4130  0.2081  0.1001
  980TIP3    H124431   5.119   0.949  15.692  0.3729 -0.3570 -0.7415
  980TIP3    H224432   5.014   0.867  15.763  0.4501  0.4949  0.3644
  981TIP3   OH224433   3.938   6.315   0.377 -0.0432  0.3354  0.2778
  981TIP3    H124434   3.912   6.260   0.451  1.0512 -0.3875  0.1477
  981TIP3    H224435   3.866   6.309   0.315 -0.5373  0.1608  0.8693
  982TIP3   OH224436   6.584   5.433   6.060  0.3685  0.7232 -0.1920
  982TIP3    H124437   6.611   5.391   5.979 -0.6494 -0.4776  0.0726
  982TIP3    H224438   6.615   5.375   6.129 -1.1667  0.3009  0.1709
  983TIP3   OH224439   4.408   5.045  15.166  0.1417 -0.2020 -0.3365
  983TIP3    H124440   4.409   5.121  15.108  0.9859 -0.5361 -0.7611
  983TIP3    H224441   4.449   5.076  15.247 -0.7040  0.1598 -0.0375
  984TIP3   OH224442   0.360   5.052   2.748 -0.3526  0.6061  0.5065
  984TIP3    H124443   0.331   5.116   2.683  0.0052 -1.4481 -1.7562
  984TIP3    H224444   0.394   5.105   2.820 -0.1422  2.9559 -1.2481
  985TIP3   OH224445   1.714   4.230  17.144  0.2801 -0.0225 -0.0466
  985TIP3    H124446   1.707   4.326  17.141  0.3515 -0.0315 -0.6031
  985TIP3    H224447   1.682   4.201  17.059 -0.8043 -0.5750  0.5464
  986TIP3   OH224448   1.476   3.269  15.649 -0.2436 -0.1199 -0.2174
  986TIP3    H124449   1.570   3.249  15.646 -0.2503 -0.2897  0.5768
  986TIP3    H224450   1.454   3.297  15.560  0.5683 -0.0482 -0.3956
  987TIP3   OH224451   5.754   6.325   2.405 -0.1670 -0.5131  0.1721
  987TIP3    H124452   5.696   6.261   2.366 -0.9754  0.0460  0.4468
  987TIP3    H224453   5.805   6.360   2.331 -1.1469 -0.0119 -0.2730
  988TIP3   OH224454   3.135   0.709   0.608 -0.9139 -0.1241 -0.0252
  988TIP3    H124455   3.133   0.632   0.551 -0.6696 -0.9082  0.9959
  988TIP3    H224456   3.197   0.685   0.677 -0.2010  1.3124 -0.1342
  989TIP3   OH224457   3.248   5.330   4.287  0.3745  0.3586  0.3821
  989TIP3    H124458   3.198   5.407   4.312 -0.2357 -0.1820  0.8424
  989TIP3    H224459   3.210   5.303   4.203 -0.5141 -0.3982  1.0171
  990TIP3   OH224460   5.905   0.345   5.668  0.7955 -0.3034 -0.1059
  990TIP3    H124461   5.964   0.387   5.730  0.2078 -0.2205  0.3989
  990TIP3    H224462   5.879   0.415   5.608 -1.5422  0.4911  1.7506
  991TIP3   OH224463   2.641   1.157   4.883 -0.0006  0.1150 -0.0034
  991TIP3    H124464   2.697   1.231   4.860  0.0857  0.2453  0.6252
  991TIP3    H224465   2.659   1.091   4.816  0.6507  0.2862  0.0053
  992TIP3   OH224466   1.780   4.059  16.579 -0.9184  0.0592 -0.3249
  992TIP3    H124467   1.724   3.988  16.612 -0.3265 -0.6957 -0.9103
  992TIP3    H224468   1.742   4.083  16.495 -1.1776  0.5102 -0.0785
  993TIP3   OH224469   3.865   0.689   4.584 -0.4243  0.2449  0.1147
  993TIP3    H124470   3.828   0.759   4.531 -0.0924  0.2229 -0.1440
  993TIP3    H224471   3.959   0.694   4.569 -0.3096  0.3539  0.8337
  994TIP3   OH224472   6.119   2.391   4.506 -0.1450  0.1504  0.3872
  994TIP3    H124473   6.053   2.351   4.563 -0.9951  1.4819  0.3686
  994TIP3    H224474   6.110   2.345   4.422 -1.5323  0.7907  0.1757
  995TIP3   OH224475   3.273   1.285  16.857 -0.3929  0.0737  0.1119
  995TIP3    H124476   3.230   1.208  16.895 -0.5484 -0.5713 -1.3195
  995TIP3    H224477   3.346   1.249  16.807  1.5626  1.1282  2.1293
  996TIP3   OH224478   0.443   3.724   2.732  0.6609 -0.0631 -0.1730
  996TIP3    H124479   0.389   3.697   2.657  1.8359  0.3791 -1.1995
  996TIP3    H224480   0.400   3.803   2.765  0.1245 -0.2681 -0.3729
  997TIP3   OH224481   3.636   4.879  11.178 -0.7941 -0.2744 -0.3884
  997TIP3    H124482   3.657   4.926  11.097 -0.4735 -0.0672 -0.1828
  997TIP3    H224483   3.548   4.845  11.163  0.4309 -2.8453 -2.0438
  998TIP3   OH224484   5.431   3.445  12.204 -0.2498 -0.0021  0.5197
  998TIP3    H124485   5.414   3.351  12.192  1.0472  0.0841 -2.5357
  998TIP3    H224486   5.525   3.450  12.219  0.0204  0.9453 -1.3925
  999TIP3   OH224487   2.383   1.430  14.966  0.0056  1.1074  0.0267
  999TIP3    H124488   2.406   1.346  15.007 -2.8047  0.5216  0.5257
  999TIP3    H224489   2.409   1.420  14.874 -0.1868 -0.2607  0.1110
 1000TIP3   OH224490   1.351   3.403   2.122 -0.0984 -0.4326 -0.1484
 1000TIP3    H124491   1.272   3.350   2.106 -1.1350  0.0125  3.1229
 1000TIP3    H224492   1.419   3.339   2.142 -0.4781 -0.6827  0.3592
 1001TIP3   OH224493   3.340   4.095   4.180 -0.2230 -0.2596 -0.0903
 1001TIP3    H124494   3.398   4.114   4.107  1.4616  1.6700  1.6599
 1001TIP3    H224495   3.351   4.001   4.196 -0.9292 -0.7726 -2.5328
 1002TIP3   OH224496   0.180   2.673   0.060  0.4335 -0.3403  0.0618
 1002TIP3    H124497   0.168   2.615  -0.016  0.9993 -0.4662  0.0664
 1002TIP3    H224498   0.197   2.759   0.022  2.8286 -0.7982 -0.0061
 1003TIP3   OH224499   0.706   2.002  14.613 -0.0495  0.3817  0.3170
 1003TIP3    H124500   0.791   1.967  14.640  0.2763  1.2305  0.4036
 1003TIP3    H224501   0.700   1.982  14.520 -0.0452 -0.2607  0.4521
 1004TIP3   OH224502   1.003   4.481  13.494 -0.1897 -0.0464  0.2715
 1004TIP3    H124503   0.960   4.541  13.433  1.5965 -0.5316 -1.5142
 1004TIP3    H224504   1.088   4.520  13.511  1.3598 -2.4752 -1.6328
 1005TIP3   OH224505   3.165   4.500   2.068 -0.5103  0.1729 -0.8742
 1005TIP3    H124506   3.217   4.427   2.035  1.6037  1.3240 -0.2086
 1005TIP3    H224507   3.133   4.470   2.154  0.1689 -0.0571 -0.6994
 1006TIP3   OH224508   5.746   1.669  15.177 -0.1414 -0.5799  1.0133
 1006TIP3    H124509   5.738   1.765  15.178  0.5047 -0.5168  0.2221
 1006TIP3    H224510   5.775   1.648  15.089 -1.7568 -1.6463  0.7181
 1007TIP3   OH224511   3.965   5.625  11.924 -0.0870 -0.3443 -0.6235
 1007TIP3    H124512   3.953   5.560  11.855  0.1490 -0.2380 -0.7658
 1007TIP3    H224513   3.963   5.709  11.879 -1.1267 -0.2096 -0.3467
 1008TIP3   OH224514   1.973   0.417   6.114 -0.3043  0.4579 -0.7758
 1008TIP3    H124515   1.878   0.428   6.119 -0.4276 -1.6693  2.6424
 1008TIP3    H224516   1.986   0.327   6.084  0.5633 -0.3686  1.9203
 1009TIP3   OH224517   3.030   6.675   3.363  0.2856  0.1801 -0.4548
 1009TIP3    H124518   3.026   6.762   3.402  1.9488  0.8918 -1.8039
 1009TIP3    H224519   3.081   6.623   3.425  0.6879  0.6059 -0.4273
 1010TIP3   OH224520   1.205   0.574  13.564  0.2982 -0.4072  0.2386
 1010TIP3    H124521   1.236   0.665  13.561 -0.8013 -0.0744 -1.8392
 1010TIP3    H224522   1.152   0.569  13.644  0.6486  0.6625  0.5475
 1011TIP3   OH224523   5.884   5.156  16.909  0.0774 -0.2868  0.1752
 1011TIP3    H124524   5.958   5.180  16.853 -0.6185  0.3213 -0.4949
 1011TIP3    H224525   5.908   5.187  16.996 -0.1783  1.5488 -0.3930
 1012TIP3   OH224526   0.318   3.983   0.650 -0.0434 -0.1341 -0.0443
 1012TIP3    H124527   0.369   4.055   0.688  0.0604 -0.3310  0.1893
 1012TIP3    H224528   0.380   3.936   0.594 -0.9531  2.0467 -3.0343
 1013TIP3   OH224529   3.195   2.632   2.566 -0.2732 -0.1270 -0.4623
 1013TIP3    H124530   3.159   2.643   2.654  2.9007 -0.4659  0.9538
 1013TIP3    H224531   3.277   2.681   2.567 -0.0588 -0.3402 -3.1904
 1014TIP3   OH224532   0.156   4.694   4.970 -0.0558  0.6706  0.1171
 1014TIP3    H124533   0.233   4.689   4.913 -0.4100  1.5105 -0.4317
 1014TIP3    H224534   0.190   4.733   5.051 -0.0845  1.8868 -0.4505
 1015TIP3   OH224535   2.512   0.698   1.488 -0.4295  0.0228  0.1346
 1015TIP3    H124536   2.460   0.693   1.569 -1.6608 -1.1587 -0.6896
 1015TIP3    H224537   2.537   0.607   1.471  0.7594  0.4112 -0.2275
 1016TIP3   OH224538   4.214   3.408  12.302  0.4683 -0.2853  0.2021
 1016TIP3    H124539   4.239   3.321  12.272 -0.3547 -0.4162 -0.1090
 1016TIP3    H224540   4.128   3.423  12.264  0.6502  0.7077  0.1786
 1017TIP3   OH224541   2.126   1.925   2.229 -0.4352 -0.5511  0.7330
 1017TIP3    H124542   2.040   1.916   2.270 -0.6632 -0.6067  0.2395
 1017TIP3    H224543   2.123   2.009   2.184 -0.5872 -1.0175 -0.1314
 1018TIP3   OH224544   0.730   1.339  13.606 -0.0706  0.2204 -0.3630
 1018TIP3    H124545   0.782   1.418  13.621 -0.2038  0.2852 -0.2378
 1018TIP3    H224546   0.682   1.356  13.525  0.8410 -0.2303 -1.0108
 1019TIP3   OH224547   6.129   0.860   5.378 -0.4404  0.5113  0.3196
 1019TIP3    H124548   6.190   0.921   5.336  0.8230  0.6048  2.2158
 1019TIP3    H224549   6.056   0.915   5.406  0.1735  0.9817  1.0204
 1020TIP3   OH224550   5.067   3.057  16.410 -0.3345 -0.3708 -0.2891
 1020TIP3    H124551   5.090   3.036  16.319 -0.2021  2.1092 -0.8407
 1020TIP3    H224552   5.149   3.083  16.451 -0.4551 -1.1473  0.4635
 1021TIP3   OH224553   6.103   1.992   0.738 -0.4440  0.5214 -0.4956
 1021TIP3    H124554   6.155   2.073   0.741  1.3724 -0.6121 -0.5896
 1021TIP3    H224555   6.118   1.951   0.823 -1.0966  0.1228 -0.5729
 1022TIP3   OH224556   6.281   0.512   1.136  0.7883  0.2255  0.0336
 1022TIP3    H124557   6.207   0.460   1.104  0.6284 -0.0499  0.8309
 1022TIP3    H224558   6.240   0.578   1.192  1.2365 -0.7413  1.5447
 1023TIP3   OH224559   2.792   6.595  12.134 -0.1868  0.5162  0.1943
 1023TIP3    H124560   2.765   6.506  12.110  1.4287  0.1799 -0.4956
 1023TIP3    H224561   2.793   6.643  12.051  1.2939  0.5006  0.1777
 1024TIP3   OH224562   2.589   4.901  14.607 -0.6243  0.0186 -0.0324
 1024TIP3    H124563   2.621   4.948  14.684  0.7665  0.5282 -0.9108
 1024TIP3    H224564   2.504   4.942  14.588  0.5790  2.2441 -0.8047
 1025TIP3   OH224565   3.902   1.366   0.703  0.4180 -0.4512  0.1364
 1025TIP3    H124566   3.905   1.312   0.624  0.8575  0.3700 -0.4174
 1025TIP3    H224567   3.809   1.371   0.725  0.1233  0.7059 -1.3025
 1026TIP3   OH224568   3.014   3.641  15.090 -0.0625  1.0791  0.0311
 1026TIP3    H124569   3.097   3.675  15.125  1.3838 -2.1332 -0.0987
 1026TIP3    H224570   3.018   3.662  14.996  2.2971 -2.1158 -0.6643
 1027TIP3   OH224571   1.688   1.538  14.654 -0.3261  0.1485 -0.1668
 1027TIP3    H124572   1.749   1.485  14.705 -0.5052  0.4686  0.3808
 1027TIP3    H224573   1.652   1.478  14.588  1.9376  0.4033 -1.6744
 1028TIP3   OH224574   5.161   1.401  15.104 -0.4149 -0.1702  0.1506
 1028TIP3    H124575   5.155   1.497  15.101 -0.3082 -0.0928  1.8850
 1028TIP3    H224576   5.181   1.376  15.014  2.1938  1.6549  0.1349
 1029TIP3   OH224577   5.911   5.332  13.840  0.7446 -0.0106 -0.3537
 1029TIP3    H124578   5.990   5.305  13.794  1.3653  0.6365  0.3292
 1029TIP3    H224579   5.939   5.348  13.929 -0.6644 -2.3373  0.5595
 1030TIP3   OH224580   3.306   4.454  12.621 -0.5405  0.5119 -0.2981
 1030TIP3    H124581   3.213   4.436  12.606 -0.7850  2.5493 -1.4044
 1030TIP3    H224582   3.318   4.543  12.588  1.6096  0.5975  0.7046
 1031TIP3   OH224583   2.968   6.303   3.920 -0.0395  0.4701  0.0812
 1031TIP3    H124584   3.041   6.359   3.947 -1.3379  2.9660 -1.3626
 1031TIP3    H224585   2.910   6.302   3.997 -0.0502  1.2051  0.0894
 1032TIP3   OH224586   5.971   0.102  14.356 -0.4973  0.8066  0.4078
 1032TIP3    H124587   6.009   0.021  14.323  0.1750  1.6790 -0.9981
 1032TIP3    H224588   5.923   0.075  14.435 -0.9149 -1.0770 -0.4487
 1033TIP3   OH224589   2.948   1.097   4.201  0.2894 -0.0605  0.1100
 1033TIP3    H124590   3.040   1.091   4.228  0.6720  1.6422 -0.7809
 1033TIP3    H224591   2.947   1.162   4.131 -1.3821 -1.1240 -0.8878
 1034TIP3   OH224592   2.291   5.581  12.391 -0.5080 -0.0786 -0.0428
 1034TIP3    H124593   2.331   5.586  12.478 -1.1661 -2.7574  0.4667
 1034TIP3    H224594   2.290   5.671  12.360 -0.1194  0.9145  2.6649
 1035TIP3   OH224595   4.967   6.730   1.810 -0.5011  0.4606  0.0619
 1035TIP3    H124596   5.004   6.653   1.765 -0.2602 -0.6791  2.1559
 1035TIP3    H224597   5.029   6.801   1.791  0.1562 -0.2581 -0.5329
 1036TIP3   OH224598   5.286   6.589  16.106  0.1416  0.6086  0.3091
 1036TIP3    H124599   5.311   6.682  16.111  1.0464  0.2905  2.4536
 1036TIP3    H224600   5.365   6.545  16.075 -0.5220  0.6237 -1.4498
 1037TIP3   OH224601   5.893   6.616  14.496  0.5803 -0.0361  0.2886
 1037TIP3    H124602   5.928   6.652  14.415  1.2798 -0.2116  0.5067
 1037TIP3    H224603   5.952   6.648  14.564  0.6633 -0.8175  0.5948
 1038TIP3   OH224604   2.961   6.081  17.065 -0.8086 -0.0694 -0.9803
 1038TIP3    H124605   2.931   6.068  16.975 -1.6397 -0.2837 -0.6796
 1038TIP3    H224606   2.992   6.172  17.067 -1.9245  0.3296 -1.1797
 1039TIP3   OH224607   4.009   2.042  13.099  0.9606  0.4214 -0.1882
 1039TIP3    H124608   4.018   2.135  13.077  1.2566  0.4557  0.0708
 1039TIP3    H224609   4.040   2.036  13.189  1.3538 -0.0014 -0.3443
 1040TIP3   OH224610   2.695   4.782  15.128 -0.1492  0.0156  0.3133
 1040TIP3    H124611   2.622   4.795  15.067  0.4443 -0.3736 -0.4794
 1040TIP3    H224612   2.662   4.719  15.191 -0.2547 -0.7220 -0.4662
 1041TIP3   OH224613   3.166   0.099  16.758 -0.1863 -0.2642 -0.2811
 1041TIP3    H124614   3.122   0.016  16.773 -0.0747 -0.0662  1.2163
 1041TIP3    H224615   3.192   0.129  16.845  1.6669  0.2959 -0.9840
 1042TIP3   OH224616   3.689   4.654  16.082 -0.5756 -0.2758  0.0167
 1042TIP3    H124617   3.738   4.736  16.070 -0.9806 -0.1035 -0.5298
 1042TIP3    H224618   3.696   4.610  15.998 -1.7718 -0.0088 -0.2375
 1043TIP3   OH224619   1.536   6.689   4.037 -0.3832 -0.7187  0.4916
 1043TIP3    H124620   1.610   6.675   3.978  0.8605 -0.7390  2.0148
 1043TIP3    H224621   1.468   6.630   4.005  0.9847 -2.2052  0.2728
 1044TIP3   OH224622   0.939   1.001  17.126  0.4341 -0.6208  0.3674
 1044TIP3    H124623   0.846   1.022  17.115  0.6812  0.6130  0.6128
 1044TIP3    H224624   0.984   1.085  17.117  1.6348 -1.3798 -0.9575
 1045TIP3   OH224625   2.013   3.971   1.799  0.7580  0.2743  0.3764
 1045TIP3    H124626   1.947   3.937   1.739  0.8984  0.3466  0.1821
 1045TIP3    H224627   2.095   3.967   1.750  1.0365 -0.5955  0.9100
 1046TIP3   OH224628   5.502   1.502   4.282 -0.2169  0.0609  0.0764
 1046TIP3    H124629   5.496   1.590   4.246 -0.1179 -0.0118 -0.1222
 1046TIP3    H224630   5.495   1.514   4.377  0.1402  0.3152  0.0720
 1047TIP3   OH224631   0.070   4.600   3.357 -0.4787  0.3020 -0.0740
 1047TIP3    H124632   0.091   4.693   3.344  0.5039  0.2569  1.0737
 1047TIP3    H224633   0.020   4.575   3.279 -3.1287  2.4898  0.8256
 1048TIP3   OH224634   0.550   6.438   1.306 -0.0920 -0.3363  0.0556
 1048TIP3    H124635   0.465   6.403   1.336  0.8286 -1.3089  1.6031
 1048TIP3    H224636   0.546   6.431   1.211 -1.7811 -0.3144  0.1017
 1049TIP3   OH224637   1.826   2.601   5.132  0.4974 -0.4511  0.0364
 1049TIP3    H124638   1.836   2.664   5.203 -1.6125 -1.1961  1.0499
 1049TIP3    H224639   1.823   2.655   5.053  1.8764  0.4661  0.5916
 1050TIP3   OH224640   3.706   0.146   2.964 -0.4616  0.0630  0.1550
 1050TIP3    H124641   3.750   0.061   2.964 -0.4066  0.0900 -0.2789
 1050TIP3    H224642   3.706   0.173   2.872 -0.2202  0.6655  0.3278
 1051TIP3   OH224643   5.913   1.053   5.758 -0.2181 -0.0351  0.2356
 1051TIP3    H124644   5.840   0.999   5.729 -1.0678  1.3587 -0.2947
 1051TIP3    H224645   5.875   1.113   5.822  0.4287  0.7588 -0.1020
 1052TIP3   OH224646   0.896   3.919   1.546  0.2392  0.0612 -0.0078
 1052TIP3    H124647   0.906   3.970   1.627  2.7351  0.7842 -0.7314
 1052TIP3    H224648   0.905   3.984   1.476 -2.2206 -0.5118 -0.9011
 1053TIP3   OH224649   3.245   2.087  12.400 -0.1258 -0.2383 -0.0924
 1053TIP3    H124650   3.334   2.122  12.389 -0.2598 -0.2599 -1.2426
 1053TIP3    H224651   3.188   2.160  12.375 -0.4633  0.2528  2.0271
 1054TIP3   OH224652   1.136   5.739  15.667 -0.5849 -0.0015  0.1000
 1054TIP3    H124653   1.060   5.711  15.718 -0.4687  1.0826  0.9070
 1054TIP3    H224654   1.112   5.825  15.633  0.2316  0.3063  0.2726
 1055TIP3   OH224655   0.476   1.937  14.123 -0.2906  0.1609 -0.4292
 1055TIP3    H124656   0.389   1.897  14.118 -0.3097  0.1600 -0.1174
 1055TIP3    H224657   0.459   2.029  14.141 -0.1723 -0.5632  3.9371
 1056TIP3   OH224658   4.796   2.134   2.047 -0.3943 -0.5453 -0.2002
 1056TIP3    H124659   4.777   2.218   2.090  0.8562  0.0456 -0.7482
 1056TIP3    H224660   4.890   2.138   2.029 -0.4145 -1.8895 -0.6298
 1057TIP3   OH224661   1.552   3.973  12.111 -0.2098 -0.1330  0.1901
 1057TIP3    H124662   1.471   3.929  12.083 -1.2256  0.9550  1.3119
 1057TIP3    H224663   1.611   3.965  12.037 -1.8620  0.2704 -1.2099
 1058TIP3   OH224664   1.098   6.180  14.966 -0.2383  0.0760  0.3675
 1058TIP3    H124665   1.175   6.163  14.913  0.6019  2.6632  0.6787
 1058TIP3    H224666   1.092   6.106  15.026  0.3356 -1.5517 -1.5653
 1059TIP3   OH224667   0.973   5.474   1.863 -0.2868  0.0224  0.4163
 1059TIP3    H124668   1.057   5.466   1.910  0.3193 -0.2052 -0.6963
 1059TIP3    H224669   0.979   5.559   1.820 -0.8215  0.2055  0.7064
 1060TIP3   OH224670   1.064   0.218  14.501  0.4161 -0.1340 -0.6137
 1060TIP3    H124671   1.143   0.175  14.469  0.7791  1.1306 -1.4293
 1060TIP3    H224672   1.091   0.307  14.520  0.0459 -0.6449  2.5686
 1061TIP3   OH224673   1.860   1.462   1.394  0.1189 -0.0678 -0.1239
 1061TIP3    H124674   1.915   1.483   1.319  0.5510 -1.7155 -0.2837
 1061TIP3    H224675   1.890   1.520   1.463 -0.2003  1.3840 -1.1854
 1062TIP3   OH224676   1.815   5.560  15.413 -0.0011 -0.1221  0.2745
 1062TIP3    H124677   1.856   5.640  15.378 -0.0246  0.1876  0.9401
 1062TIP3    H224678   1.721   5.575  15.403  0.0017 -0.1568  0.1977
 1063TIP3   OH224679   1.516   2.891  16.156  0.2824 -0.1394  0.0928
 1063TIP3    H124680   1.601   2.852  16.131 -0.2435 -0.9465 -0.4772
 1063TIP3    H224681   1.452   2.824  16.132 -0.7269  1.4645 -1.8056
 1064TIP3   OH224682   4.476   4.468  10.415 -0.7346  0.7195 -0.1201
 1064TIP3    H124683   4.546   4.532  10.420  2.2052 -2.6008  3.0421
 1064TIP3    H224684   4.399   4.514  10.448  0.8340  3.2329  0.1305
 1065TIP3   OH224685   4.475   1.122  12.194 -0.2592  0.0574  0.0586
 1065TIP3    H124686   4.481   1.068  12.115 -0.4191  0.2464 -0.0827
 1065TIP3    H224687   4.391   1.168  12.186  0.0873  0.6824 -0.0509
 1066TIP3   OH224688   6.710   0.119   4.362 -0.4346 -0.3876 -0.3164
 1066TIP3    H124689   6.799   0.152   4.374  0.4062 -2.0195 -1.8971
 1066TIP3    H224690   6.716   0.057   4.290 -2.6096 -1.5325  0.4235
 1067TIP3   OH224691   0.920   5.139   2.386 -0.0530 -0.2637  0.4142
 1067TIP3    H124692   0.895   5.082   2.459  0.2922  0.3688  1.0317
 1067TIP3    H224693   0.981   5.086   2.335 -0.5493 -0.8285  0.4023
 1068TIP3   OH224694   6.014   6.642  16.784 -0.6111  0.5546  0.6486
 1068TIP3    H124695   6.035   6.716  16.728  3.1591 -2.6068 -2.3914
 1068TIP3    H224696   6.074   6.649  16.858  2.1682 -1.2108 -1.3581
 1069TIP3   OH224697   1.649   2.145   4.375 -0.6943  0.2621 -0.9247
 1069TIP3    H124698   1.737   2.133   4.412 -0.8416 -1.0160 -0.9842
 1069TIP3    H224699   1.602   2.194   4.443 -0.2771 -0.0520 -0.3994
 1070TIP3   OH224700   0.397   6.597   5.856 -0.4727 -1.0741 -0.2686
 1070TIP3    H124701   0.458   6.643   5.915 -1.6427  0.4412 -0.2183
 1070TIP3    H224702   0.337   6.552   5.915 -2.1997  1.1764 -0.2496
 1071TIP3   OH224703   6.477   4.434  15.696 -0.4258 -0.3569 -0.4737
 1071TIP3    H124704   6.394   4.413  15.740 -0.9157  0.8373 -0.8019
 1071TIP3    H224705   6.481   4.374  15.621 -0.8035 -0.6751 -0.2408
 1072TIP3   OH224706   4.262   5.294   3.239  0.6376  0.5247  0.0115
 1072TIP3    H124707   4.207   5.271   3.314  0.9478  1.5685  0.5798
 1072TIP3    H224708   4.349   5.307   3.276  0.5509  2.2311 -0.3088
 1073TIP3   OH224709   0.914   4.974   2.070  0.3112 -0.1476  0.0634
 1073TIP3    H124710   0.900   4.900   2.130 -2.1331 -0.5838 -0.9690
 1073TIP3    H224711   0.845   4.964   2.005  0.8589  2.2485 -0.9126
 1074TIP3   OH224712   4.056   5.538   6.482 -0.1163 -0.3989  0.3458
 1074TIP3    H124713   4.037   5.611   6.541 -1.1385  0.2845 -0.8118
 1074TIP3    H224714   4.011   5.463   6.522 -0.9493  0.0942  0.3399
 1075TIP3   OH224715   3.751   5.174   5.498  0.0038 -0.6254 -0.6005
 1075TIP3    H124716   3.662   5.192   5.527 -0.0395 -2.2302  0.3266
 1075TIP3    H224717   3.746   5.174   5.402 -1.1758 -1.5967 -0.5381
 1076TIP3   OH224718   5.473   2.967   2.173  0.0101  0.4799  0.0396
 1076TIP3    H124719   5.436   2.945   2.259  0.7212  0.3701  0.3223
 1076TIP3    H224720   5.479   2.883   2.127 -0.0549  0.4927  0.0073
 1077TIP3   OH224721   6.234   6.488  12.593 -1.0017  0.2251 -0.2654
 1077TIP3    H124722   6.156   6.476  12.647 -1.8139 -0.0102 -1.4767
 1077TIP3    H224723   6.210   6.558  12.531 -0.1936  0.2783 -0.5204
 1078TIP3   OH224724   2.724   4.586   1.455 -0.2139 -0.8304  0.0640
 1078TIP3    H124725   2.670   4.509   1.439 -0.2573 -0.7750 -0.0546
 1078TIP3    H224726   2.720   4.599   1.550 -1.0978 -0.3235 -0.0459
 1079TIP3   OH224727   0.851   6.340  14.995 -0.2762 -0.1127  0.1718
 1079TIP3    H124728   0.900   6.258  14.996  0.0905  0.1017 -0.1751
 1079TIP3    H224729   0.825   6.351  14.904  0.0414  0.3711  0.1355
 1080TIP3   OH224730   5.878   6.616   2.839  0.5734 -0.3667  0.7460
 1080TIP3    H124731   5.880   6.553   2.911  0.8881  0.5744  1.5585
 1080TIP3    H224732   5.969   6.644   2.829  0.3774  0.2365  0.6297
 1081TIP3   OH224733   6.274   5.385  13.901  0.7006 -0.1768 -0.3200
 1081TIP3    H124734   6.241   5.297  13.882  0.8760 -0.8135  2.0940
 1081TIP3    H224735   6.203   5.427  13.950  1.0122  0.6866 -0.6044
 1082TIP3   OH224736   5.866   0.956   3.747 -0.1179  0.4427  0.0568
 1082TIP3    H124737   5.929   0.885   3.758  1.1004  1.2335 -1.4743
 1082TIP3    H224738   5.790   0.916   3.706  0.0262 -0.2249  0.4450
 1083TIP3   OH224739   5.579   0.971   1.925  0.4271  0.0923 -0.1987
 1083TIP3    H124740   5.611   1.057   1.954  0.5002 -0.3035  0.8956
 1083TIP3    H224741   5.499   0.957   1.975 -0.0830 -0.0838 -1.0402
 1084TIP3   OH224742   4.297   0.510  11.613  0.3839 -0.0083 -0.3317
 1084TIP3    H124743   4.387   0.519  11.644  0.2692  1.6576 -0.4235
 1084TIP3    H224744   4.262   0.599  11.618 -0.9373 -0.4749 -1.2534
 1085TIP3   OH224745   1.400   0.202  12.349  0.1323 -0.3814  0.0905
 1085TIP3    H124746   1.434   0.280  12.306  0.4728 -0.9044 -0.5942
 1085TIP3    H224747   1.309   0.223  12.370  0.1614  0.1148 -0.2909
 1086TIP3   OH224748   1.793   0.377  10.919  0.5033 -0.1268 -0.3908
 1086TIP3    H124749   1.768   0.326  10.842 -0.4462  1.1988 -0.9864
 1086TIP3    H224750   1.713   0.381  10.972  1.2394 -1.3082  0.8355
 1087TIP3   OH224751   4.277   4.096   5.198  0.0766 -0.1696  0.2893
 1087TIP3    H124752   4.264   4.166   5.263 -0.4179  1.5870 -1.6538
 1087TIP3    H224753   4.372   4.085   5.194  0.1366  0.0375  0.9738
 1088TIP3   OH224754   0.948   3.381  16.745 -0.0987 -0.2094  0.2184
 1088TIP3    H124755   1.038   3.383  16.779  0.1542 -1.2086 -0.3732
 1088TIP3    H224756   0.914   3.469  16.762  0.7191 -0.0674  1.1711
 1089TIP3   OH224757   5.237   2.999  15.579 -0.1402  0.2717  0.4839
 1089TIP3    H124758   5.142   2.987  15.572 -0.2577 -2.7013  4.9043
 1089TIP3    H224759   5.247   3.087  15.615 -1.0502  1.4890 -2.1225
 1090TIP3   OH224760   5.337   2.019   4.998 -0.0838 -0.0901 -0.3743
 1090TIP3    H124761   5.259   1.964   5.001 -0.7203  0.7796 -0.8379
 1090TIP3    H224762   5.408   1.961   5.024 -0.6326 -1.3497 -1.5997
 1091TIP3   OH224763   4.647   3.039   2.953  0.2022  0.3240  0.1727
 1091TIP3    H124764   4.620   3.120   2.910  0.4629 -0.6621 -1.9052
 1091TIP3    H224765   4.665   3.065   3.044 -3.4066  1.8628  0.5443
 1092TIP3   OH224766   1.793   1.179  14.626 -0.1800 -0.2012  0.2963
 1092TIP3    H124767   1.737   1.226  14.564 -2.3371 -1.3651  1.2846
 1092TIP3    H224768   1.843   1.248  14.670 -0.0346  0.7886 -1.3744
 1093TIP3   OH224769   4.687   2.802  11.172  0.7232 -0.4318 -0.3496
 1093TIP3    H124770   4.704   2.718  11.215 -1.0168 -0.9456 -0.6189
 1093TIP3    H224771   4.652   2.778  11.086  0.1065  0.5725 -0.3851
 1094TIP3   OH224772   5.653   6.556  11.058 -0.1377 -0.3682  0.0080
 1094TIP3    H124773   5.672   6.588  10.970  1.9588  0.4023  0.7048
 1094TIP3    H224774   5.723   6.592  11.112 -0.7684 -1.7451  1.7985
 1095TIP3   OH224775   3.760   5.123  14.550  0.5657  0.1405  0.5485
 1095TIP3    H124776   3.820   5.196  14.561  0.0158  0.5501  0.8912
 1095TIP3    H224777   3.674   5.159  14.572  0.0864 -0.2351 -0.6707
 1096TIP3   OH224778   0.377   6.815  16.910 -0.3787 -0.4568  0.2067
 1096TIP3    H124779   0.421   6.834  16.827 -1.2714 -0.3147 -0.2403
 1096TIP3    H224780   0.349   6.900  16.943  0.0591 -0.5030  0.7056
 1097TIP3   OH224781   4.015   6.077   5.644 -0.1289  0.1706  0.0737
 1097TIP3    H124782   4.011   6.140   5.716  2.3814  0.1191  0.2761
 1097TIP3    H224783   4.072   6.118   5.579  2.9631 -2.5777  0.9339
 1098TIP3   OH224784   3.012   4.469  15.267 -0.0264 -0.1356 -0.4500
 1098TIP3    H124785   2.990   4.522  15.343  1.2335 -0.2935  0.0348
 1098TIP3    H224786   3.058   4.529  15.209 -0.9622 -0.0229 -1.0933
 1099TIP3   OH224787   5.543   3.692  16.689  0.1224 -0.3509  0.1589
 1099TIP3    H124788   5.555   3.677  16.595 -1.6360 -0.3404 -0.0708
 1099TIP3    H224789   5.622   3.740  16.716  1.5622 -2.0186 -0.9089
 1100TIP3   OH224790   1.460   4.849  12.912  0.4464  0.7414 -0.5351
 1100TIP3    H124791   1.387   4.900  12.948 -0.8767 -0.7542 -1.0542
 1100TIP3    H224792   1.502   4.908  12.850 -1.8543  0.8013 -2.0786
 1101TIP3   OH224793   1.652   5.433   0.802 -0.1706 -0.0802  0.2481
 1101TIP3    H124794   1.682   5.488   0.730 -1.6603  0.8132  0.3054
 1101TIP3    H224795   1.650   5.492   0.878  0.8919 -0.8895  0.9269
 1102TIP3   OH224796   5.955   0.293   1.601  0.6949 -0.5548  0.2287
 1102TIP3    H124797   5.968   0.386   1.616  0.6938 -0.6417  0.7631
 1102TIP3    H224798   5.860   0.282   1.594  0.6829 -0.5472  0.3776
 1103TIP3   OH224799   5.677   3.943   6.370  0.0867  0.7694  0.3115
 1103TIP3    H124800   5.634   3.906   6.447  1.1148 -0.7474  0.1961
 1103TIP3    H224801   5.717   4.024   6.401  2.7938 -1.1448  2.1420
 1104TIP3   OH224802   1.204   5.863   4.660 -0.4174  0.5882  0.5571
 1104TIP3    H124803   1.245   5.949   4.672  1.4571 -0.2684  0.4276
 1104TIP3    H224804   1.216   5.843   4.567 -0.5790  0.0397  0.6536
 1105TIP3   OH224805   2.940   5.070  16.853  0.4436  0.8972 -0.2285
 1105TIP3    H124806   2.927   5.079  16.948 -1.4701  1.8616 -0.5447
 1105TIP3    H224807   3.032   5.048  16.843  0.8121  1.3893  1.8401
 1106TIP3   OH224808   5.929   1.936  12.165  0.2049  0.1315  0.0002
 1106TIP3    H124809   6.009   1.970  12.204  0.4622  0.8094 -1.0726
 1106TIP3    H224810   5.867   2.009  12.169  0.0231 -0.0079 -0.2342
 1107TIP3   OH224811   4.407   2.304  17.031  0.1317 -0.0927 -0.1789
 1107TIP3    H124812   4.405   2.315  17.126  0.1211 -0.2477 -0.1617
 1107TIP3    H224813   4.378   2.214  17.017  0.2753 -0.1168 -0.3195
 1108TIP3   OH224814   1.987   6.485   5.072  0.5595  0.4846 -0.2432
 1108TIP3    H124815   2.004   6.577   5.055  0.4832  0.6154  0.3563
 1108TIP3    H224816   2.043   6.464   5.147  0.9697 -0.0920 -0.7110
 1109TIP3   OH224817   3.429   5.710  13.481 -0.0842 -0.6254  0.5592
 1109TIP3    H124818   3.381   5.734  13.560  0.3708 -0.2481  0.7251
 1109TIP3    H224819   3.362   5.700  13.413 -0.3930 -0.1339  0.7975
 1110TIP3   OH224820   4.621   5.829  11.672 -0.2543  0.5042  0.5149
 1110TIP3    H124821   4.679   5.864  11.739  0.0271 -0.6277  0.8677
 1110TIP3    H224822   4.533   5.857  11.699  0.1945  3.0947 -0.5756
 1111TIP3   OH224823   2.013   5.205  12.900  0.2253  0.6438 -0.2791
 1111TIP3    H124824   2.049   5.268  12.836 -1.2709  0.2805 -1.4921
 1111TIP3    H224825   1.939   5.251  12.939 -1.7195 -0.7979 -2.1308
 1112TIP3   OH224826   2.423   2.954  14.037 -0.9701 -0.2707 -0.4255
 1112TIP3    H124827   2.455   3.026  13.984  1.3639 -0.6850  0.3650
 1112TIP3    H224828   2.381   2.895  13.974  1.7820 -0.7765 -1.8626
 1113TIP3   OH224829   4.021   5.491   4.204 -0.2645 -0.4694  0.4984
 1113TIP3    H124830   3.952   5.453   4.259 -1.5315  1.9733  0.6634
 1113TIP3    H224831   4.098   5.493   4.261 -0.7276 -0.8869  1.1434
 1114TIP3   OH224832   5.107   1.132  11.077 -0.1491 -0.0964  0.3397
 1114TIP3    H124833   5.124   1.168  11.164 -0.1566 -0.6940  0.5908
 1114TIP3    H224834   5.174   1.173  11.021  1.4379 -1.5599  1.1045
 1115TIP3   OH224835   1.135   1.171   1.632  0.3614 -0.2226  0.6135
 1115TIP3    H124836   1.065   1.105   1.634 -1.2843  1.4757  0.8710
 1115TIP3    H224837   1.127   1.211   1.545  1.7718 -0.7628  0.2157
 1116TIP3   OH224838   4.371   2.769   0.558 -0.2268 -0.2003  0.3256
 1116TIP3    H124839   4.346   2.860   0.568  0.6192 -0.0609  1.2254
 1116TIP3    H224840   4.289   2.720   0.567 -0.7892  0.5014 -0.8607
 1117TIP3   OH224841   4.858   0.310  12.818 -0.0806  0.0494 -0.1025
 1117TIP3    H124842   4.939   0.278  12.858 -0.4182  0.3169  0.8208
 1117TIP3    H224843   4.795   0.240  12.834 -0.4857  0.6122  0.7583
 1118TIP3   OH224844   4.315   5.104  14.693 -0.1339 -0.6658  0.4375
 1118TIP3    H124845   4.258   5.167  14.736 -0.6916 -0.8473 -0.0207
 1118TIP3    H224846   4.348   5.150  14.616 -0.9311 -1.0890 -0.1646
 1119TIP3   OH224847   2.895   1.514  12.427 -0.2368 -0.1131  0.0619
 1119TIP3    H124848   2.976   1.554  12.457 -0.4635  0.5836 -0.2535
 1119TIP3    H224849   2.922   1.429  12.392  0.3135 -0.0171  0.2505
 1120TIP3   OH224850   5.289   4.388   3.840  0.5216 -0.0899 -0.2474
 1120TIP3    H124851   5.278   4.429   3.926 -2.6918 -1.0258 -0.1431
 1120TIP3    H224852   5.225   4.432   3.784  1.4595 -0.6015 -1.7570
 1121TIP3   OH224853   2.839   3.386  13.939 -0.2810 -0.4848 -0.2732
 1121TIP3    H124854   2.807   3.437  13.865  1.8706  1.3521 -0.0010
 1121TIP3    H224855   2.923   3.350  13.910  1.1947  1.2787  1.6474
 1122TIP3   OH224856   5.304   0.902   1.700  0.4215  0.3530 -0.3666
 1122TIP3    H124857   5.353   0.981   1.678 -0.3134  1.2204  1.0535
 1122TIP3    H224858   5.213   0.931   1.708  0.2260 -0.5068  0.7899
 1123TIP3   OH224859   2.685   5.971   2.306 -0.4913  0.2116  0.2454
 1123TIP3    H124860   2.608   6.027   2.314 -1.7444 -1.1474 -1.5854
 1123TIP3    H224861   2.665   5.895   2.361 -0.4064 -0.0817 -0.1266
 1124TIP3   OH224862   0.183   3.666   5.087  0.3507  0.3874  0.1705
 1124TIP3    H124863   0.260   3.713   5.055 -0.3302 -0.3965 -2.7420
 1124TIP3    H224864   0.128   3.734   5.126  1.1487  1.3838 -0.4137
 1125TIP3   OH224865   3.257   2.128   4.761  0.6983  0.4548  0.3518
 1125TIP3    H124866   3.314   2.110   4.686 -0.2252  1.1700 -0.5377
 1125TIP3    H224867   3.293   2.075   4.832  3.6467  2.3852  0.3655
 1126TIP3   OH224868   0.277   6.066   3.963 -0.1582  0.1426 -0.2258
 1126TIP3    H124869   0.286   6.014   3.883  0.3015 -2.4935  1.4418
 1126TIP3    H224870   0.351   6.125   3.962  2.3418 -2.8511  0.2927
 1127TIP3   OH224871   6.045   3.289   3.907  0.6184  0.0626 -0.0854
 1127TIP3    H124872   6.072   3.372   3.868  2.1701 -0.5166 -0.3016
 1127TIP3    H224873   6.006   3.240   3.834  1.2812 -0.0602 -0.3631
 1128TIP3   OH224874   1.277   6.529  10.739  0.7420 -0.1526 -0.5132
 1128TIP3    H124875   1.197   6.490  10.705 -0.5842  0.7769  1.4206
 1128TIP3    H224876   1.283   6.615  10.696  0.3408  0.0494 -0.1645
 1129TIP3   OH224877   3.680   2.958  11.918  0.2927 -0.2337 -0.3123
 1129TIP3    H124878   3.665   2.906  11.997  2.9441 -0.6552 -0.0508
 1129TIP3    H224879   3.672   2.895  11.846 -0.9618 -0.0759 -0.3318
 1130TIP3   OH224880   5.085   4.524   1.455 -0.4303 -0.9811  0.0246
 1130TIP3    H124881   5.010   4.490   1.405 -2.2831  0.3739  1.8232
 1130TIP3    H224882   5.103   4.456   1.520  1.1220 -2.1327 -1.5511
 1131TIP3   OH224883   6.545   3.291   5.106 -0.0872 -0.5423  0.4308
 1131TIP3    H124884   6.519   3.241   5.183  0.1726  0.6577  1.3160
 1131TIP3    H224885   6.634   3.321   5.126  0.3255 -0.9743 -0.7188
 1132TIP3   OH224886   0.567   1.139   3.578  0.2254 -0.1378 -0.3790
 1132TIP3    H124887   0.598   1.162   3.490 -1.6218  0.7986 -0.8248
 1132TIP3    H224888   0.551   1.044   3.573  2.2851 -0.5188 -0.3326
 1133TIP3   OH224889   2.859   5.411  12.680 -0.2210  0.3222 -0.4156
 1133TIP3    H124890   2.905   5.495  12.674  0.1720  0.0451 -1.4849
 1133TIP3    H224891   2.766   5.435  12.684 -0.1335  0.8112 -1.0839
 1134TIP3   OH224892   3.099   2.946   5.146 -0.2530 -0.2255 -0.6681
 1134TIP3    H124893   3.160   2.872   5.136  0.3143  0.1762 -0.1924
 1134TIP3    H224894   3.093   2.983   5.057  0.6643  0.0902 -0.6126
 1135TIP3   OH224895   0.482   5.472   1.116  0.3016 -0.3136  0.1974
 1135TIP3    H124896   0.441   5.528   1.050 -0.7157 -0.6722  0.5187
 1135TIP3    H224897   0.504   5.391   1.069 -2.2873 -1.3802  0.7311
 1136TIP3   OH224898   0.985   2.691   4.707 -0.4102  0.5358  0.1092
 1136TIP3    H124899   0.940   2.774   4.721 -1.0923  0.5847 -2.1823
 1136TIP3    H224900   1.063   2.714   4.657 -0.8832 -0.2419 -1.0105
 1137TIP3   OH224901   6.004   5.017   2.279 -0.2905 -0.0851 -0.1629
 1137TIP3    H124902   5.923   5.067   2.265 -0.0029  0.6497  0.7177
 1137TIP3    H224903   6.025   5.032   2.371  1.8007  1.1467 -0.8261
 1138TIP3   OH224904   6.772   1.072  10.908 -0.0754  0.4118  0.1258
 1138TIP3    H124905   6.850   1.025  10.938 -0.7130  0.0597  1.2346
 1138TIP3    H224906   6.805   1.131  10.840  0.9517 -0.6436 -0.3136
 1139TIP3   OH224907   4.875   5.385  13.327  0.2251 -0.1261 -0.6745
 1139TIP3    H124908   4.783   5.358  13.330  0.7498 -1.9902 -0.5943
 1139TIP3    H224909   4.889   5.414  13.237 -0.1002 -1.1399 -1.0568
 1140TIP3   OH224910   1.644   1.437  12.871  0.0560 -0.2824  0.2567
 1140TIP3    H124911   1.731   1.401  12.859  0.6614  1.3360 -0.2840
 1140TIP3    H224912   1.586   1.379  12.821  1.1106 -0.0538 -1.2516
 1141TIP3   OH224913   0.292   6.279  12.214  0.1554 -0.6227 -0.1007
 1141TIP3    H124914   0.250   6.343  12.272 -0.2195  0.0605 -1.1143
 1141TIP3    H224915   0.366   6.325  12.176 -1.6931  0.1231 -2.9275
 1142TIP3   OH224916   1.609   0.551  11.973 -0.3540 -1.3239  0.4745
 1142TIP3    H124917   1.587   0.615  12.040  1.0866  0.5466 -0.7921
 1142TIP3    H224918   1.691   0.512  12.003  0.6908  0.0532 -0.5368
 1143TIP3   OH224919   4.383   3.313  15.392 -0.0042  0.1899 -0.2657
 1143TIP3    H124920   4.389   3.271  15.306  1.3110 -0.9528  0.3474
 1143TIP3    H224921   4.292   3.342  15.399  0.1368  1.1836 -2.4444
 1144TIP3   OH224922   0.357   0.496  15.108 -0.0768 -0.1932 -0.4529
 1144TIP3    H124923   0.442   0.523  15.074 -1.3429  0.9363 -2.8660
 1144TIP3    H224924   0.363   0.400  15.114  1.4441 -0.0988 -0.3221
 1145TIP3   OH224925   3.334   4.109  11.850 -0.6826 -0.0416  0.0168
 1145TIP3    H124926   3.357   4.132  11.760  0.3191 -1.1306 -0.0200
 1145TIP3    H224927   3.359   4.186  11.902 -2.1997  1.0032 -0.7303
 1146TIP3   OH224928   2.887   0.311  13.759 -0.0621  0.2301  0.3347
 1146TIP3    H124929   2.927   0.278  13.679 -2.2050  1.9645 -1.5086
 1146TIP3    H224930   2.946   0.381  13.788  1.3103 -1.1520  0.9344
 1147TIP3   OH224931   0.333   6.446  14.573  0.1921  0.5788 -0.6217
 1147TIP3    H124932   0.310   6.532  14.540 -2.3057  0.5299  0.8703
 1147TIP3    H224933   0.249   6.405  14.595  1.5573 -0.4799  2.9569
 1148TIP3   OH224934   4.681   0.510  14.751 -0.1774 -0.5862 -0.8182
 1148TIP3    H124935   4.627   0.483  14.824  0.5158  0.3644  0.0624
 1148TIP3    H224936   4.621   0.518  14.677 -1.8454  3.6195  0.8789
 1149TIP3   OH224937   2.284   2.899   5.135 -0.1562  0.1889 -0.3227
 1149TIP3    H124938   2.240   2.815   5.148 -0.1207  0.0283 -1.2157
 1149TIP3    H224939   2.377   2.880   5.148 -0.1442  0.0748 -0.5632
 1150TIP3   OH224940   5.928   6.806   1.260  0.5977  0.1452  0.3034
 1150TIP3    H124941   6.009   6.845   1.227  0.4414 -0.8527 -1.3474
 1150TIP3    H224942   5.920   6.838   1.350  1.7602  1.8800 -0.1844
 1151TIP3   OH224943   6.504   6.319  14.327 -0.4254 -0.3578  0.1352
 1151TIP3    H124944   6.558   6.260  14.380  1.3540  0.3745 -0.8090
 1151TIP3    H224945   6.562   6.393  14.308 -1.6013  0.1922 -1.3725
 1152TIP3   OH224946   2.017   5.627  12.524  0.1721 -0.2725  0.2787
 1152TIP3    H124947   2.027   5.655  12.433 -0.4869 -0.6388  0.0923
 1152TIP3    H224948   2.097   5.577  12.542  0.6916  0.4972  0.1670
 1153TIP3   OH224949   3.657   1.404   6.504 -0.0302 -0.2258  0.0410
 1153TIP3    H124950   3.622   1.317   6.483 -0.3653 -0.1397  0.2334
 1153TIP3    H224951   3.714   1.390   6.579 -1.6923  0.0336  1.3913
 1154TIP3   OH224952   2.161   2.731   3.465 -0.3227  0.7327 -0.7839
 1154TIP3    H124953   2.167   2.642   3.432 -1.0863  0.4173 -0.0956
 1154TIP3    H224954   2.077   2.763   3.434 -0.3336  0.9928 -0.4902
 1155TIP3   OH224955   4.037   0.889   0.464 -0.1565 -0.1708  0.4886
 1155TIP3    H124956   4.123   0.849   0.473 -0.4497 -1.1788 -0.9506
 1155TIP3    H224957   3.983   0.843   0.529 -0.3199 -1.6318 -0.6679
 1156TIP3   OH224958   0.711   6.598   4.555 -0.1308 -0.3615 -0.5070
 1156TIP3    H124959   0.725   6.510   4.589 -0.4047 -0.5147 -0.7859
 1156TIP3    H224960   0.624   6.595   4.514 -0.5450  0.2958  0.2945
 1157TIP3   OH224961   3.131   2.832  11.571 -0.1340  0.3148  0.0154
 1157TIP3    H124962   3.171   2.823  11.484  2.0509 -1.2387  1.1332
 1157TIP3    H224963   3.084   2.750  11.585 -0.2506  0.4514  0.4344
 1158TIP3   OH224964   3.745   5.268   3.445  0.3084  0.8061 -0.4069
 1158TIP3    H124965   3.763   5.329   3.516 -0.7988  0.2876  0.3321
 1158TIP3    H224966   3.829   5.256   3.401  0.9765  1.1811  0.7646
 1159TIP3   OH224967   0.888   3.747   1.075 -0.3222  0.3492  0.0723
 1159TIP3    H124968   0.974   3.785   1.091 -0.6068  0.2127  2.1049
 1159TIP3    H224969   0.878   3.680   1.143 -1.1253 -1.1730 -1.5264
 1160TIP3   OH224970   0.029   3.320   1.328 -0.0053 -0.2916  0.2947
 1160TIP3    H124971   0.008   3.273   1.247  1.0755  0.1544 -0.2586
 1160TIP3    H224972   0.073   3.400   1.299  2.6366 -1.2806  1.3644
 1161TIP3   OH224973   4.165   2.847  14.341 -0.4776  0.1734  0.4257
 1161TIP3    H124974   4.247   2.820  14.383 -0.3468  0.7040  0.5162
 1161TIP3    H224975   4.100   2.845  14.411 -0.4231  0.2997  0.4800
 1162TIP3   OH224976   2.693   5.846   4.167 -0.3174 -0.1441  0.1811
 1162TIP3    H124977   2.699   5.914   4.234  1.1183  0.1759 -0.2545
 1162TIP3    H224978   2.752   5.875   4.098  0.7238 -2.0917  0.2227
 1163TIP3   OH224979   5.666   4.830   1.289 -0.6045  0.3494 -0.1347
 1163TIP3    H124980   5.682   4.736   1.298 -0.6458  0.2679 -0.9344
 1163TIP3    H224981   5.580   4.843   1.329 -0.9226 -0.0690 -0.6687
 1164TIP3   OH224982   0.693   1.174  14.477  0.2144 -0.0028 -0.5586
 1164TIP3    H124983   0.711   1.257  14.522  0.5671 -0.3182 -0.1208
 1164TIP3    H224984   0.701   1.195  14.384  0.6538  0.3722 -0.4360
 1165TIP3   OH224985   2.532   6.265  14.990 -0.1571  0.1871 -0.1249
 1165TIP3    H124986   2.595   6.335  14.974  0.9674 -0.6310  0.6270
 1165TIP3    H224987   2.533   6.253  15.085  1.6648 -2.5970 -0.4220
 1166TIP3   OH224988   1.456   5.819  13.921 -0.2748 -0.3917  0.1162
 1166TIP3    H124989   1.395   5.769  13.867 -1.7172 -0.2250  1.5437
 1166TIP3    H224990   1.438   5.790  14.010  0.3760  1.0841  0.7491
 1167TIP3   OH224991   5.567   2.317  15.354 -0.7237 -0.2949 -0.0620
 1167TIP3    H124992   5.484   2.304  15.400 -2.2632  1.3292 -2.2513
 1167TIP3    H224993   5.597   2.404  15.382  0.7856 -1.3090  1.5138
 1168TIP3   OH224994   1.285   6.724   3.386 -0.4244 -0.1526 -0.0795
 1168TIP3    H124995   1.355   6.725   3.321 -0.4153 -2.4038 -0.1376
 1168TIP3    H224996   1.222   6.660   3.352 -0.9637 -0.5228  1.5876
 1169TIP3   OH224997   5.938   4.111   6.554 -0.0977 -0.5103  0.4625
 1169TIP3    H124998   5.928   4.076   6.643 -0.8217 -0.7049  0.3050
 1169TIP3    H224999   6.028   4.144   6.552  0.3003 -1.5472  0.8985
 1170TIP3   OH225000   6.254   1.441   1.001  0.2514  0.1931 -0.5166
 1170TIP3    H125001   6.285   1.498   0.930  2.1432 -2.0811 -1.5991
 1170TIP3    H225002   6.164   1.469   1.017  0.3448  1.8508 -2.6859
 1171TIP3   OH225003   4.572   1.824   0.463  0.6668  0.1039  0.4435
 1171TIP3    H125004   4.531   1.792   0.382  1.1928  0.5731 -0.0159
 1171TIP3    H225005   4.657   1.781   0.465  0.0772 -1.0195  1.4958
 1172TIP3   OH225006   5.118   3.971  12.361  0.2287 -0.3270 -0.0415
 1172TIP3    H125007   5.075   4.056  12.367 -0.2557 -0.7019  1.9359
 1172TIP3    H225008   5.132   3.944  12.451 -0.5100 -2.8010 -0.6182
 1173TIP3   OH225009   2.913   5.119  12.760  0.8064 -0.2030  0.6232
 1173TIP3    H125010   2.860   5.117  12.839  1.3552  0.1932  1.0109
 1173TIP3    H225011   2.980   5.186  12.778 -1.1574  2.4408 -1.5101
 1174TIP3   OH225012   0.935   0.638   1.854  0.4135  0.1216  0.4047
 1174TIP3    H125013   1.014   0.676   1.890 -0.4464  1.3246  1.0488
 1174TIP3    H225014   0.939   0.545   1.879  0.1047  0.8201  3.1333
 1175TIP3   OH225015   3.844   3.305   2.420 -0.2390  0.2263  0.4480
 1175TIP3    H125016   3.925   3.258   2.399  0.0966  0.3138  1.4921
 1175TIP3    H225017   3.774   3.249   2.387  0.2548  0.3543 -0.8468
 1176TIP3   OH225018   3.569   5.851   5.204 -0.1917  0.4982 -0.0235
 1176TIP3    H125019   3.616   5.930   5.179  0.9788 -0.1730 -0.0020
 1176TIP3    H225020   3.497   5.844   5.141  1.6709 -0.2081 -2.1172
 1177TIP3   OH225021   5.220   2.701  11.880  0.0679  0.6011  0.0485
 1177TIP3    H125022   5.141   2.689  11.932 -0.0192  0.5018 -0.1062
 1177TIP3    H225023   5.283   2.639  11.915 -0.8137 -1.2807 -1.6180
 1178TIP3   OH225024   0.392   5.634   3.904  0.0159 -0.4754  0.3236
 1178TIP3    H125025   0.397   5.722   3.867 -2.3553 -0.7538 -0.7128
 1178TIP3    H225026   0.479   5.620   3.944  1.8240  0.7228 -3.0238
 1179TIP3   OH225027   2.422   0.035  10.747 -0.3478  0.5192  0.2042
 1179TIP3    H125028   2.393  -0.046  10.705 -0.0738 -0.5493  2.0353
 1179TIP3    H225029   2.360   0.101  10.716 -0.4411 -0.3181 -1.4922
 1180TIP3   OH225030   3.043   5.463  17.207 -0.3730  0.0648  0.3280
 1180TIP3    H125031   3.131   5.450  17.170 -0.4934 -1.2644  0.4797
 1180TIP3    H225032   3.058   5.521  17.282  0.4667 -0.6560  0.7291
 1181TIP3   OH225033   1.190   0.882   2.867 -0.2791  0.1415 -0.1115
 1181TIP3    H125034   1.146   0.964   2.842  1.4781  0.8565 -0.9503
 1181TIP3    H225035   1.260   0.872   2.803  0.0999 -1.5508  0.5459
 1182TIP3   OH225036   3.021   2.726  14.879 -0.0682 -0.2243 -0.1052
 1182TIP3    H125037   2.974   2.643  14.877  1.2905 -1.0081 -0.6784
 1182TIP3    H225038   2.979   2.777  14.949  0.5166 -2.2613  1.7843
 1183TIP3   OH225039   2.874   3.007  15.772 -1.1353  0.4118 -0.1293
 1183TIP3    H125040   2.880   3.094  15.811 -2.1116 -0.1774  1.3281
 1183TIP3    H225041   2.913   2.949  15.837  0.2425 -0.1595 -1.4356
 1184TIP3   OH225042   3.087   4.530  16.309 -0.6508  0.1362 -0.4133
 1184TIP3    H125043   3.053   4.457  16.257 -0.1810 -0.7857  0.5312
 1184TIP3    H225044   3.014   4.555  16.365 -1.0823  0.9703 -1.3409
 1185TIP3   OH225045   2.259   6.138   1.123 -0.5163  0.2945  0.8325
 1185TIP3    H125046   2.321   6.072   1.092 -1.1860 -0.4070  0.9610
 1185TIP3    H225047   2.211   6.165   1.045 -1.2965 -0.5093  1.0167
 1186TIP3   OH225048   1.041   0.216   2.445  0.1534  0.8020 -0.8967
 1186TIP3    H125049   1.057   0.140   2.501  1.0291 -0.0802 -2.3230
 1186TIP3    H225050   0.961   0.255   2.481  0.6537  0.2177  0.9104
 1187TIP3   OH225051   0.527   4.814   4.338  0.1756  0.2812 -0.1816
 1187TIP3    H125052   0.589   4.757   4.383  2.1649  2.1051 -0.5362
 1187TIP3    H225053   0.463   4.837   4.406  2.4838  2.0693  1.4813
 1188TIP3   OH225054   5.274   4.963  10.988  0.1084  0.5043  0.1565
 1188TIP3    H125055   5.281   5.058  10.989  1.8871  0.3955 -0.6728
 1188TIP3    H225056   5.337   4.935  10.921 -1.7565 -1.1425 -0.9697
 1189TIP3   OH225057   2.120   0.448   1.893 -0.3841  0.0632 -0.6267
 1189TIP3    H125058   2.119   0.353   1.907  0.0733  0.3137  1.1615
 1189TIP3    H225059   2.210   0.474   1.912 -0.3998  0.8007 -1.5467
 1190TIP3   OH225060   2.227   5.169   1.638 -0.0746  0.3142 -0.8230
 1190TIP3    H125061   2.174   5.156   1.716  1.6100 -0.7480  0.1790
 1190TIP3    H225062   2.210   5.259   1.612 -1.6059  0.2838  0.0424
 1191TIP3   OH225063   4.909   2.178   5.049  0.2641  0.0012  0.1983
 1191TIP3    H125064   4.971   2.216   5.112 -2.1850  2.0537  1.4735
 1191TIP3    H225065   4.899   2.087   5.078  1.6310  0.0412  0.8234
 1192TIP3   OH225066   1.847   2.342   2.311 -0.6635 -0.5497 -0.4209
 1192TIP3    H125067   1.930   2.336   2.359 -0.2846 -0.0389 -1.0032
 1192TIP3    H225068   1.796   2.408   2.358 -0.9339 -1.2038  0.2163
 1193TIP3   OH225069   0.362   4.739  14.648  0.2704  0.3409  0.1087
 1193TIP3    H125070   0.313   4.817  14.623 -0.1679  0.4485  1.2908
 1193TIP3    H225071   0.318   4.667  14.604  2.0637  0.9810 -2.9202
 1194TIP3   OH225072   4.941   4.565  12.578 -0.2072  0.4206  0.0035
 1194TIP3    H125073   5.014   4.607  12.533 -1.1334  0.9718 -1.0337
 1194TIP3    H225074   4.864   4.594  12.529 -1.1513  0.1848  1.3261
 1195TIP3   OH225075   1.645   0.648   2.194  0.8942 -0.8307  0.2088
 1195TIP3    H125076   1.688   0.708   2.133  1.1933  0.1490  1.3487
 1195TIP3    H225077   1.687   0.667   2.279 -0.5430 -1.0956  0.9923
 1196TIP3   OH225078   2.307   3.340  11.544  0.0501 -0.3069  0.1117
 1196TIP3    H125079   2.253   3.292  11.481  0.3150 -2.0628  1.1805
 1196TIP3    H225080   2.248   3.357  11.618  0.7838 -1.8255  1.0847
 1197TIP3   OH225081   3.457   2.330   6.194  0.5564  0.6141 -0.1372
 1197TIP3    H125082   3.389   2.396   6.184 -1.4443 -1.2674  0.6852
 1197TIP3    H225083   3.449   2.302   6.285 -1.7980 -4.0487 -1.6143
 1198TIP3   OH225084   3.520   2.013   2.636 -0.0395 -0.6159 -0.3747
 1198TIP3    H125085   3.484   2.005   2.725  1.0736  3.4632  0.5656
 1198TIP3    H225086   3.452   2.059   2.587  1.6168  2.3387 -0.0132
 1199TIP3   OH225087   0.362   0.509   5.082  0.3878  0.5050  0.1200
 1199TIP3    H125088   0.322   0.483   4.999  2.1115  0.8303 -0.8504
 1199TIP3    H225089   0.455   0.516   5.062  1.2480 -2.1721  2.7594
 1200TIP3   OH225090   1.017   5.615  16.640  0.0417  0.5655 -0.1338
 1200TIP3    H125091   0.978   5.618  16.552 -0.8746  0.1026  0.2518
 1200TIP3    H225092   0.941   5.616  16.699  0.6329 -0.1994  0.6358
 1201TIP3   OH225093   3.474   5.839   6.604 -0.4216 -0.0260  0.0428
 1201TIP3    H125094   3.549   5.874   6.557  0.1693 -2.2106 -0.7371
 1201TIP3    H225095   3.449   5.761   6.554 -1.8632 -0.5358  1.4956
 1202TIP3   OH225096   1.682   5.986   1.180 -0.3019  0.3426 -0.4006
 1202TIP3    H125097   1.645   6.070   1.207 -1.0330 -0.3468  0.8169
 1202TIP3    H225098   1.741   5.962   1.252  0.9914  0.4800 -1.3962
 1203TIP3   OH225099   2.889   1.534  13.675  0.4727 -0.1399 -0.4656
 1203TIP3    H125100   2.960   1.512  13.735 -1.4291  1.2048  2.3601
 1203TIP3    H225101   2.904   1.626  13.652  1.4859 -0.7943 -2.4964
 1204TIP3   OH225102   6.378   1.389  16.837  0.4172 -0.4663 -0.3204
 1204TIP3    H125103   6.430   1.314  16.807  0.8884  0.4834 -1.9153
 1204TIP3    H225104   6.303   1.350  16.882  0.6382 -1.8908 -1.1754
 1205TIP3   OH225105   4.713   3.701  10.436  0.3450  0.2165  0.5101
 1205TIP3    H125106   4.739   3.734  10.349  2.6617  0.7616  1.3767
 1205TIP3    H225107   4.640   3.758  10.462 -0.9371 -0.4995 -1.4303
 1206TIP3   OH225108   5.143   5.924   2.238  0.0516 -0.1242 -0.0081
 1206TIP3    H125109   5.161   5.951   2.148  0.1766 -0.3573 -0.0538
 1206TIP3    H225110   5.110   6.003   2.281 -0.2966 -0.0882 -0.3403
 1207TIP3   OH225111   3.880   5.357  11.458  0.0201  0.1167  0.4121
 1207TIP3    H125112   3.794   5.376  11.422  0.3261 -0.9753 -0.9278
 1207TIP3    H225113   3.940   5.410  11.404  0.3748 -0.6874  0.0114
 1208TIP3   OH225114   5.442   1.156   3.323  0.1074 -0.3849 -0.3354
 1208TIP3    H125115   5.530   1.150   3.361  0.4441  0.0103 -1.0218
 1208TIP3    H225116   5.396   1.219   3.378  0.5830  0.1727 -0.5694
 1209TIP3   OH225117   0.115   5.593   2.987 -0.5939 -0.2103  0.0541
 1209TIP3    H125118   0.163   5.668   3.024 -1.7049  0.8630 -0.6433
 1209TIP3    H225119   0.076   5.550   3.063  0.1749 -0.1650  0.4767
 1210TIP3   OH225120   1.196   6.563  13.387 -0.4702  0.4598 -0.3789
 1210TIP3    H125121   1.200   6.594  13.478 -1.1100  2.0371 -0.8655
 1210TIP3    H225122   1.261   6.616  13.341  0.6367 -1.0974 -0.6385
 1211TIP3   OH225123   3.915   1.991  14.164 -0.5250 -0.5610  0.0917
 1211TIP3    H125124   3.965   1.983  14.083  0.7405  1.8353  0.5922
 1211TIP3    H225125   3.966   1.941  14.228 -0.2837 -0.5174 -0.0647
 1212TIP3   OH225126   0.017   1.611   1.958  0.5978  0.0239 -0.0349
 1212TIP3    H125127  -0.010   1.687   2.009  0.3688 -0.3732  0.4357
 1212TIP3    H225128  -0.063   1.578   1.918  0.7583  0.2718 -0.5788
 1213TIP3   OH225129   0.019   3.388  12.849 -0.2147  0.7671 -0.1796
 1213TIP3    H125130   0.082   3.402  12.778 -1.5775 -2.4554 -2.1344
 1213TIP3    H225131  -0.066   3.411  12.811 -0.7411  0.8832  1.0381
 1214TIP3   OH225132   4.662   3.966   0.208  0.3729  0.6727  0.4539
 1214TIP3    H125133   4.581   3.977   0.259  0.6628  2.1410  0.6112
 1214TIP3    H225134   4.689   4.055   0.186  2.6010  0.2771  1.4328
 1215TIP3   OH225135   0.639   3.201   4.677  0.0307  0.5296 -0.8608
 1215TIP3    H125136   0.559   3.174   4.632  0.8880  0.1964 -2.2194
 1215TIP3    H225137   0.709   3.180   4.616  1.0811  1.8095 -0.1310
 1216TIP3   OH225138   1.522   5.013  15.940 -0.0166 -0.9256  1.1102
 1216TIP3    H125139   1.582   4.940  15.955 -0.5029 -1.4518  0.5533
 1216TIP3    H225140   1.541   5.075  16.010  3.9163  0.7244 -1.2800
 1217TIP3   OH225141   0.731   3.902   3.240  0.2743  0.2037  0.3561
 1217TIP3    H125142   0.642   3.928   3.265  0.8590  0.8029  1.8707
 1217TIP3    H225143   0.754   3.963   3.170  0.8025  2.4575  2.3920
 1218TIP3   OH225144   4.823   1.138  16.031  0.4713 -0.5062  0.3121
 1218TIP3    H125145   4.799   1.179  15.948  0.8227  0.1325  0.5233
 1218TIP3    H225146   4.857   1.052  16.006  0.4556 -0.3660 -0.1962
 1219TIP3   OH225147   6.171   2.789  14.489 -0.2666 -0.4675  1.2827
 1219TIP3    H125148   6.185   2.880  14.514 -0.3133 -0.7167  2.2164
 1219TIP3    H225149   6.104   2.757  14.550 -0.4769 -1.0347  0.7576
 1220TIP3   OH225150   3.377   1.726  13.790  0.1899 -0.5046  0.2580
 1220TIP3    H125151   3.412   1.815  13.787 -0.5541 -0.1899  0.7145
 1220TIP3    H225152   3.332   1.716  13.706  0.5702 -0.5727  0.0634
 1221TIP3   OH225153   4.324   2.418   6.136 -0.5636 -0.1209  0.4078
 1221TIP3    H125154   4.329   2.478   6.062 -0.8141 -1.2636 -0.5466
 1221TIP3    H225155   4.367   2.465   6.208  0.1075  0.7951 -0.5844
 1222TIP3   OH225156   2.668   1.197  15.514  0.5844 -0.0559  0.6937
 1222TIP3    H125157   2.660   1.229  15.425 -0.2815 -0.1987  0.7101
 1222TIP3    H225158   2.645   1.104  15.508 -0.0506  0.0705  1.1568
 1223TIP3   OH225159   4.253   0.054  13.518  0.4923 -0.3618 -0.2116
 1223TIP3    H125160   4.169   0.099  13.516 -0.0210 -1.2892  0.0762
 1223TIP3    H225161   4.294   0.083  13.599  1.4968  1.9487 -1.5265
 1224TIP3   OH225162   2.248   0.456  11.168 -0.1014  0.4075 -0.1580
 1224TIP3    H125163   2.210   0.373  11.138  0.0665  0.9203 -1.8204
 1224TIP3    H225164   2.246   0.513  11.091  1.8689  1.2190  0.3569
 1225TIP3   OH225165   6.214   4.802   3.248  0.2108 -0.3068  0.2525
 1225TIP3    H125166   6.153   4.767   3.183  1.2304 -0.9755 -0.3404
 1225TIP3    H225167   6.194   4.754   3.329 -1.1925  0.6669  0.5062
 1226TIP3   OH225168   2.597   2.610   0.455 -0.7174  0.0568  0.4082
 1226TIP3    H125169   2.634   2.572   0.375 -1.0067 -1.0899  0.8187
 1226TIP3    H225170   2.538   2.679   0.424 -0.6599 -0.2365 -0.3582
 1227TIP3   OH225171   6.541   4.907   4.070 -0.0063 -0.0974 -0.1521
 1227TIP3    H125172   6.538   4.835   4.006 -0.6482 -1.5127  1.4311
 1227TIP3    H225173   6.454   4.945   4.068 -0.2263 -0.5734  0.3617
 1228TIP3   OH225174   5.232   6.539  16.573  0.4776  0.1027 -0.4368
 1228TIP3    H125175   5.143   6.571  16.592  0.6930  0.0759  0.6509
 1228TIP3    H225176   5.218   6.464  16.515 -0.1321  1.0384 -1.5114
 1229TIP3   OH225177   3.911   1.893   5.597  0.0017 -0.1761  0.0685
 1229TIP3    H125178   3.994   1.865   5.635  0.1834  0.6958  0.3189
 1229TIP3    H225179   3.846   1.834   5.636  0.4679 -0.7305  0.0220
 1230TIP3   OH225180   3.054   3.102  13.309  0.1095 -0.2764  0.0623
 1230TIP3    H125181   3.057   3.012  13.341 -0.0929 -0.0396  0.7730
 1230TIP3    H225182   3.116   3.104  13.237 -1.2404 -1.4488 -1.1619
 1231TIP3   OH225183   3.668   3.848  13.788  0.2028 -0.3484 -0.6393
 1231TIP3    H125184   3.744   3.855  13.846  0.8186 -0.3025 -1.4424
 1231TIP3    H225185   3.597   3.821  13.846  0.4716  1.1141  0.3909
 1232TIP3   OH225186   6.003   3.476  13.544  0.6179 -0.2621 -0.4973
 1232TIP3    H125187   5.982   3.554  13.492  1.9898  0.8250  0.5516
 1232TIP3    H225188   5.995   3.506  13.635  0.1143 -1.6422 -0.0824
 1233TIP3   OH225189   3.716   5.683  14.098 -0.6793 -0.4592 -0.0457
 1233TIP3    H125190   3.777   5.757  14.088 -0.2152 -0.7081  0.9014
 1233TIP3    H225191   3.667   5.682  14.016  2.1742 -1.6728 -1.8179
 1234TIP3   OH225192   0.392   3.193   3.281  0.1802  0.2835 -0.4873
 1234TIP3    H125193   0.396   3.235   3.368  0.1453  0.9502 -0.8009
 1234TIP3    H225194   0.482   3.164   3.265  0.3757  0.9115 -0.5827
 1235TIP3   OH225195   2.644   0.165   4.102 -0.0551 -0.1522 -0.4492
 1235TIP3    H125196   2.695   0.155   4.022 -1.2350 -1.4652 -1.0562
 1235TIP3    H225197   2.675   0.095   4.159 -0.9417 -0.7749 -0.7117
 1236TIP3   OH225198   1.966   0.314   1.481 -0.2507  0.5690 -0.2943
 1236TIP3    H125199   1.936   0.346   1.565  0.5855 -0.2389  0.3197
 1236TIP3    H225200   2.050   0.273   1.499 -0.6172 -0.6733 -1.3007
 1237TIP3   OH225201   1.206   5.833  13.099  0.4961 -0.0687 -0.0604
 1237TIP3    H125202   1.160   5.812  13.017 -2.2579 -1.2719  1.7216
 1237TIP3    H225203   1.161   5.910  13.132  0.0506 -0.9563  1.4609
 1238TIP3   OH225204   2.743   0.217   1.518 -0.4149  0.1272  0.0856
 1238TIP3    H125205   2.730   0.127   1.486  0.8914  0.5010 -1.5641
 1238TIP3    H225206   2.701   0.218   1.604 -2.2411 -1.4878 -0.7519
 1239TIP3   OH225207   5.866   2.478  17.233 -0.2654  0.5762  0.9438
 1239TIP3    H125208   5.881   2.557  17.285  0.0113  0.5417  0.9134
 1239TIP3    H225209   5.813   2.508  17.159  1.2646  1.0495  0.0271
 1240TIP3   OH225210   3.522   2.875   6.684  0.2634  0.5968 -0.0474
 1240TIP3    H125211   3.543   2.954   6.633  1.2186  0.9727  0.9309
 1240TIP3    H225212   3.596   2.817   6.670  0.6892  0.8344  1.1911
 1241TIP3   OH225213   6.159   5.071   0.614  0.0461 -0.0263  0.3728
 1241TIP3    H125214   6.068   5.100   0.627 -0.3806 -0.0590 -2.1594
 1241TIP3    H225215   6.208   5.152   0.602 -0.0103 -0.0619 -0.1524
 1242TIP3   OH225216   0.528   5.017  17.054 -0.0619  0.2434  0.6514
 1242TIP3    H125217   0.487   4.985  17.134 -0.3188  0.5864  0.6570
 1242TIP3    H225218   0.494   4.959  16.985 -1.6160  1.3613  0.4518
 1243TIP3   OH225219   4.223   3.392   2.126  0.9917  0.4310  0.5617
 1243TIP3    H125220   4.231   3.462   2.061  1.4325  0.5816  0.7781
 1243TIP3    H225221   4.206   3.437   2.208 -0.0614  0.2143  0.4691
 1244TIP3   OH225222   0.360   4.239  12.201 -0.7332  0.6172 -0.6322
 1244TIP3    H125223   0.329   4.181  12.132 -0.5750 -0.8042  0.4865
 1244TIP3    H225224   0.453   4.221  12.209  0.1499  3.6854 -2.8169
 1245TIP3   OH225225   0.849   2.199  15.287  0.1692 -0.1624 -0.6180
 1245TIP3    H125226   0.891   2.123  15.328 -0.8825 -0.3668  0.1048
 1245TIP3    H225227   0.914   2.232  15.225  1.5567 -0.2234  0.7701
 1246TIP3   OH225228   3.269   3.310   3.632 -0.2701 -0.2832 -0.1115
 1246TIP3    H125229   3.315   3.392   3.610  0.0555 -0.5099 -0.2771
 1246TIP3    H225230   3.187   3.316   3.584  0.2212 -0.5431 -1.0005
 1247TIP3   OH225231   5.804   2.739  12.013  0.3121  0.0440  0.1640
 1247TIP3    H125232   5.811   2.832  12.034 -0.4298  1.0119 -3.5138
 1247TIP3    H225233   5.864   2.696  12.074  1.9389  3.1060  0.8291
 1248TIP3   OH225234   3.528   5.560   5.015  0.1453 -0.0969  0.0470
 1248TIP3    H125235   3.489   5.625   5.073 -1.2400 -0.2745 -0.6606
 1248TIP3    H225236   3.574   5.612   4.949 -1.6309  0.2118 -0.9793
 1249TIP3   OH225237   4.511   4.299  10.952 -0.6262  0.1153 -0.0583
 1249TIP3    H125238   4.538   4.222  11.003  0.1251 -1.0332 -2.1084
 1249TIP3    H225239   4.545   4.282  10.864 -0.7281  2.6725 -0.6327
 1250TIP3   OH225240   0.889   1.470   3.698 -0.4658  0.4623  0.0048
 1250TIP3    H125241   0.955   1.424   3.646 -0.6688 -0.8369  0.8691
 1250TIP3    H225242   0.931   1.486   3.782 -0.9602  0.3974  0.2667
 1251TIP3   OH225243   5.390   2.860  13.201 -0.1811 -0.1113  1.1776
 1251TIP3    H125244   5.391   2.897  13.289 -0.1035  1.3950  0.5692
 1251TIP3    H225245   5.483   2.848  13.180 -0.1376  0.8806  0.7681
 1252TIP3   OH225246   1.921   1.908  17.174  0.6622 -0.6501 -0.0112
 1252TIP3    H125247   1.947   1.864  17.255  0.5358 -1.8843 -0.6430
 1252TIP3    H225248   1.938   1.844  17.105  1.3286  0.6055 -1.0304
 1253TIP3   OH225249   0.885   1.289   5.832 -0.1194  0.4900  0.4665
 1253TIP3    H125250   0.836   1.340   5.768 -1.1210  0.3374  1.1059
 1253TIP3    H225251   0.950   1.241   5.780  0.5378  2.0584 -0.1932
 1254TIP3   OH225252   0.296   3.839  16.729 -0.1193  0.0697  0.0986
 1254TIP3    H125253   0.358   3.876  16.793  0.1874 -0.2606 -0.0033
 1254TIP3    H225254   0.352   3.796  16.664 -0.4194  0.6844 -0.5720
 1255TIP3   OH225255   4.032   1.227   2.094 -0.4058 -0.3668  0.4054
 1255TIP3    H125256   4.009   1.319   2.084  0.0665 -0.0153  2.2685
 1255TIP3    H225257   4.069   1.221   2.182  3.9344 -1.4529 -1.3396
 1256TIP3   OH225258   4.940   3.348  17.150 -0.1966 -0.3156  0.7879
 1256TIP3    H125259   4.913   3.329  17.239 -1.4550  1.7735  0.8962
 1256TIP3    H225260   5.033   3.326  17.147 -0.2216 -0.6747  2.5104
 1257TIP3   OH225261   0.261   0.975   0.119 -0.2137  0.0656  0.4338
 1257TIP3    H125262   0.324   0.920   0.072 -0.0127  0.2275  0.5072
 1257TIP3    H225263   0.300   1.062   0.117 -1.8610  0.7790 -2.0797
 1258TIP3   OH225264   1.880   5.244  11.234 -0.0821 -0.1043 -0.0013
 1258TIP3    H125265   1.804   5.299  11.254  0.8982  1.1040  0.5107
 1258TIP3    H225266   1.940   5.304  11.189  0.1147 -1.3279 -1.3881
 1259TIP3   OH225267   4.124   3.635   3.005  0.4765 -0.5443  0.2595
 1259TIP3    H125268   4.148   3.618   3.096  1.2290  1.6530  0.5186
 1259TIP3    H225269   4.208   3.645   2.960  0.0994 -1.1308 -0.5816
 1260TIP3   OH225270   4.198   1.389   3.074 -1.1189 -0.6293 -0.0518
 1260TIP3    H125271   4.193   1.482   3.096 -2.3269 -0.9346  1.0356
 1260TIP3    H225272   4.113   1.369   3.035 -0.6376 -1.1324 -0.8470
 1261TIP3   OH225273   0.369   0.918  16.547  0.4765  0.1948  0.1110
 1261TIP3    H125274   0.304   0.883  16.486 -0.0734 -0.2100  0.9137
 1261TIP3    H225275   0.330   0.904  16.634 -0.5509  4.2672  0.4242
 1262TIP3   OH225276   2.072   0.258  15.842  0.9153  0.3958 -0.0987
 1262TIP3    H125277   2.133   0.187  15.860 -0.0661 -0.2915  0.5857
 1262TIP3    H225278   2.102   0.296  15.759  1.9584 -0.2517 -0.0225
 1263TIP3   OH225279   2.623   4.907   3.534 -0.2793 -0.2920 -0.3586
 1263TIP3    H125280   2.613   4.897   3.439 -1.2664  0.4692 -0.3423
 1263TIP3    H225281   2.563   4.978   3.557 -0.2091 -0.6227  0.8687
 1264TIP3   OH225282   3.505   1.857   1.063  0.0457 -0.0928 -0.5956
 1264TIP3    H125283   3.527   1.790   1.128 -0.4370  1.8384  1.6441
 1264TIP3    H225284   3.412   1.876   1.078  0.1120  0.8819 -1.3717
 1265TIP3   OH225285   1.148   6.387  12.377 -0.0683 -0.6249 -0.3006
 1265TIP3    H125286   1.122   6.296  12.364  1.0011 -0.9664 -0.0874
 1265TIP3    H225287   1.118   6.432  12.298 -0.2092 -1.2441 -0.6041
 1266TIP3   OH225288   0.397   2.036  14.666  0.0483  0.2735 -0.4008
 1266TIP3    H125289   0.379   2.089  14.589  1.7961  1.4806 -0.0115
 1266TIP3    H225290   0.491   2.019  14.662  0.2756  0.8932  1.8028
 1267TIP3   OH225291   4.286   4.110  11.791  0.3412  0.3473 -0.6851
 1267TIP3    H125292   4.195   4.093  11.770  0.1144 -3.1928  2.5947
 1267TIP3    H225293   4.336   4.073  11.718 -0.7315  0.0316 -1.2599
 1268TIP3   OH225294   4.063   0.129  14.969  0.7435 -0.0446 -0.3957
 1268TIP3    H125295   4.017   0.158  15.048  0.8036  0.0886 -0.4101
 1268TIP3    H225296   4.073   0.209  14.917  1.1867 -0.0359 -0.2958
 1269TIP3   OH225297   3.694   5.766  15.488 -0.1932 -0.0466 -0.1124
 1269TIP3    H125298   3.710   5.826  15.416  0.6903  0.3478  0.4047
 1269TIP3    H225299   3.705   5.679  15.450  0.8273  0.1708 -0.3353
 1270TIP3   OH225300   2.608   5.024  13.218  0.2009 -0.0373  0.3428
 1270TIP3    H125301   2.590   5.091  13.284  0.9212  0.3479  0.1621
 1270TIP3    H225302   2.554   4.949  13.243  0.4755  0.1015  1.3661
 1271TIP3   OH225303   3.606   6.625  15.323 -0.3373 -0.2648  0.1230
 1271TIP3    H125304   3.526   6.584  15.355  0.5793 -3.3532 -1.2703
 1271TIP3    H225305   3.602   6.616  15.228  0.5753  1.6872 -0.1198
 1272TIP3   OH225306   3.900   4.862  15.861 -0.3313 -0.3604 -0.1291
 1272TIP3    H125307   3.919   4.863  15.955 -0.8028  0.6897 -0.0328
 1272TIP3    H225308   3.973   4.815  15.822  1.1037  1.2940  0.5167
 1273TIP3   OH225309   6.134   2.548  16.909 -0.1989 -0.1132 -0.2053
 1273TIP3    H125310   6.060   2.505  16.866 -0.0089 -0.7830  0.1312
 1273TIP3    H225311   6.204   2.547  16.844 -0.1600 -0.4074 -0.1562
 1274TIP3   OH225312   1.871   2.240   3.291  0.4633 -0.2811 -0.3466
 1274TIP3    H125313   1.840   2.293   3.218 -0.2217  1.2180  0.9900
 1274TIP3    H225314   1.917   2.167   3.251 -1.6863 -0.5950 -2.3096
 1275TIP3   OH225315   4.063   4.287  12.319  0.2972 -0.1814  0.9481
 1275TIP3    H125316   4.083   4.194  12.330 -2.0919 -0.7409  0.8385
 1275TIP3    H225317   4.090   4.306  12.229  0.2914 -0.9231  0.7836
 1276TIP3   OH225318   1.077   5.380   3.432 -0.0258 -0.0884  0.1266
 1276TIP3    H125319   1.165   5.416   3.444  0.2363  0.1003 -2.1224
 1276TIP3    H225320   1.040   5.431   3.360 -1.3601 -1.2643 -0.0378
 1277TIP3   OH225321   5.573   5.247  16.608 -0.2193  0.0608  0.4970
 1277TIP3    H125322   5.593   5.158  16.579  0.5997 -0.1663  1.7526
 1277TIP3    H225323   5.657   5.293  16.605 -0.4332  0.4831  0.9762
 1278TIP3   OH225324   1.845   0.818  11.819  0.5957 -0.1612  0.2139
 1278TIP3    H125325   1.931   0.850  11.792  0.0286  1.8669  0.7203
 1278TIP3    H225326   1.846   0.725  11.797  2.2742  0.2041 -1.3768
 1279TIP3   OH225327   1.788   5.800  16.033 -0.1848 -0.2653  0.2224
 1279TIP3    H125328   1.780   5.801  15.938 -0.5126 -0.0265  0.2548
 1279TIP3    H225329   1.850   5.729  16.051 -0.7251 -0.8252 -0.1188
 1280TIP3   OH225330   5.895   0.814   1.464 -0.0992 -0.4500  0.3106
 1280TIP3    H125331   5.867   0.723   1.454  1.9273 -1.1247  0.5928
 1280TIP3    H225332   5.854   0.843   1.546  0.2214 -1.4745  0.8327
 1281TIP3   OH225333   6.816   0.569   5.679 -0.3534  0.4241 -0.2903
 1281TIP3    H125334   6.892   0.512   5.689 -0.6865 -0.3371 -2.0017
 1281TIP3    H225335   6.800   0.572   5.584  0.0543  3.8540 -0.3378
 1282TIP3   OH225336   3.783   1.284  14.927  0.2800 -0.3607 -0.1894
 1282TIP3    H125337   3.791   1.360  14.984 -1.5623  0.2393 -0.7104
 1282TIP3    H225338   3.748   1.215  14.984 -0.2525 -0.1542 -0.2650
 1283TIP3   OH225339   4.459   6.052   3.971 -0.3809  0.4715 -0.5176
 1283TIP3    H125340   4.535   6.025   4.022  0.3519  0.4057 -1.6070
 1283TIP3    H225341   4.395   5.982   3.984  0.5980 -0.6186 -1.3854
 1284TIP3   OH225342   0.660   3.403  17.090  0.0793 -0.1367 -0.6748
 1284TIP3    H125343   0.744   3.368  17.119 -0.3181 -2.6722 -2.4311
 1284TIP3    H225344   0.630   3.342  17.023 -2.8225  1.1256 -0.6167
 1285TIP3   OH225345   4.340   0.342  14.446  0.3737 -0.5056  0.2907
 1285TIP3    H125346   4.290   0.396  14.385 -0.8000  0.7195  2.2680
 1285TIP3    H225347   4.294   0.258  14.446 -1.6024  0.5165  1.8680
 1286TIP3   OH225348   6.552   3.088   5.921 -0.2963  0.2968  0.4445
 1286TIP3    H125349   6.543   3.181   5.901 -0.2319 -0.0839 -1.3968
 1286TIP3    H225350   6.583   3.048   5.840  2.7996 -0.8659  2.1116
 1287TIP3   OH225351   0.776   0.993  13.606 -0.5644  0.6292 -0.2366
 1287TIP3    H125352   0.710   1.041  13.655 -2.0185  0.5726 -2.0841
 1287TIP3    H225353   0.807   1.054  13.540 -0.1465  0.0481 -0.5877
 1288TIP3   OH225354   3.533   6.713  14.080 -0.7234 -0.4994 -0.0203
 1288TIP3    H125355   3.477   6.736  14.154 -0.8257  1.0336 -0.5577
 1288TIP3    H225356   3.533   6.617  14.078 -2.8769 -0.5237  0.3441
 1289TIP3   OH225357   3.887   4.788  13.946  0.3372  1.0183 -0.2571
 1289TIP3    H125358   3.952   4.773  13.878  0.4958  1.0180 -0.1081
 1289TIP3    H225359   3.933   4.843  14.010  0.5462  0.1367  0.3705
 1290TIP3   OH225360   3.638   3.780   6.098  0.0495 -0.2896 -0.0306
 1290TIP3    H125361   3.590   3.710   6.142 -0.8674 -0.2223 -0.8864
 1290TIP3    H225362   3.720   3.789   6.147  0.6166 -2.6214 -0.5213
 1291TIP3   OH225363   2.566   4.703  13.969  0.5151 -0.1499 -0.1634
 1291TIP3    H125364   2.605   4.718  14.055 -0.4323  0.4127  0.1775
 1291TIP3    H225365   2.537   4.789  13.940 -0.1366 -0.4972 -0.5655
 1292TIP3   OH225366   1.162   6.693  14.113  0.4090  0.3257 -0.1625
 1292TIP3    H125367   1.246   6.732  14.091  0.1948  1.3348  0.7567
 1292TIP3    H225368   1.102   6.727  14.047  0.1793  1.7535  0.7571
 1293TIP3   OH225369   3.785   0.170   1.312  0.2992 -0.8464 -0.3597
 1293TIP3    H125370   3.743   0.164   1.398 -0.6067  1.4391 -0.6062
 1293TIP3    H225371   3.713   0.169   1.249  0.6725  1.3686 -0.8795
 1294TIP3   OH225372   4.667   5.307  10.729  0.5316  0.0841  0.1747
 1294TIP3    H125373   4.667   5.212  10.743 -0.1833  0.4673  3.0512
 1294TIP3    H225374   4.759   5.330  10.722  0.8689 -0.4786  2.3079
 1295TIP3   OH225375   0.773   4.283   2.508 -0.1099  0.2528  0.2600
 1295TIP3    H125376   0.846   4.275   2.568 -0.3332 -1.9534  0.2723
 1295TIP3    H225377   0.696   4.264   2.561 -0.5622  0.9822 -0.1212
 1296TIP3   OH225378   4.236   1.774  11.626 -0.2056 -0.0970 -0.0694
 1296TIP3    H125379   4.277   1.708  11.570  0.0326 -0.1915  0.2102
 1296TIP3    H225380   4.154   1.734  11.654  0.1241 -0.4467  0.4263
 1297TIP3   OH225381   2.264   4.827  11.837 -0.5211 -0.4135  0.4244
 1297TIP3    H125382   2.236   4.838  11.747  0.6844 -0.3465  0.0440
 1297TIP3    H225383   2.265   4.916  11.873  0.0106 -0.3210  0.1864
 1298TIP3   OH225384   4.169   2.321  16.174  0.3532 -0.8056  0.0570
 1298TIP3    H125385   4.179   2.236  16.131  1.3257  0.1525 -1.6861
 1298TIP3    H225386   4.076   2.341  16.168  0.6188 -0.0851 -2.9388
 1299TIP3   OH225387   2.864   0.436  15.796 -0.0921 -0.3717  0.5995
 1299TIP3    H125388   2.880   0.526  15.767  0.0546 -0.1207  1.4566
 1299TIP3    H225389   2.917   0.382  15.737 -1.1075  0.0009 -0.7076
 1300TIP3   OH225390   5.316   6.128   1.669 -0.0961 -0.5914 -0.5168
 1300TIP3    H125391   5.299   6.100   1.579 -1.3119 -3.1752  0.4564
 1300TIP3    H225392   5.402   6.091   1.690 -0.9337 -2.2208  0.1849
 1301TIP3   OH225393   2.780   1.494  16.977  0.8294 -0.1900  0.7975
 1301TIP3    H125394   2.708   1.473  17.036 -0.7603 -1.2493 -1.4626
 1301TIP3    H225395   2.853   1.441  17.010 -1.0585 -3.6661 -0.3177
 1302TIP3   OH225396   6.800   3.019   2.234 -0.2981 -0.3649  0.2094
 1302TIP3    H125397   6.797   2.953   2.303 -0.3836 -0.3297  0.2391
 1302TIP3    H225398   6.847   2.977   2.163  0.1169 -0.2705  0.4290
 1303TIP3   OH225399   0.159   3.600  16.965 -0.5660  0.0471 -0.1873
 1303TIP3    H125400   0.108   3.675  16.934 -0.9432 -0.8307 -1.7400
 1303TIP3    H225401   0.147   3.600  17.060 -0.2460  2.1649 -0.1191
 1304TIP3   OH225402   2.409   1.975   5.394 -0.1155 -0.1547 -0.0500
 1304TIP3    H125403   2.475   1.944   5.332 -1.0631  0.3156 -1.2972
 1304TIP3    H225404   2.404   1.905   5.459 -0.4612 -1.5012 -1.5077
 1305TIP3   OH225405   4.843   1.310  14.978 -0.0627  0.0531 -0.6593
 1305TIP3    H125406   4.897   1.267  15.044  1.1552 -1.3741 -2.5232
 1305TIP3    H225407   4.796   1.239  14.935  0.5278  0.7367 -2.5101
 1306TIP3   OH225408   5.832   0.175   0.497 -0.0866 -0.5082  0.2584
 1306TIP3    H125409   5.786   0.097   0.468 -0.5374 -0.3106  0.4465
 1306TIP3    H225410   5.829   0.234   0.422 -0.1934 -0.4700  0.2932
 1307TIP3   OH225411   0.251   6.505  15.959  0.0650 -0.5727  0.5565
 1307TIP3    H125412   0.164   6.466  15.947 -0.4081 -0.0539  2.0713
 1307TIP3    H225413   0.312   6.438  15.931 -0.8413 -0.8229 -0.8390
 1308TIP3   OH225414   4.770   1.515  15.717 -0.7436  0.2887 -0.3742
 1308TIP3    H125415   4.716   1.584  15.757 -1.7228 -1.3049  1.1313
 1308TIP3    H225416   4.851   1.559  15.693 -0.5844  1.5613  2.3367
 1309TIP3   OH225417   6.709   2.590  14.198  0.2507 -0.3516 -0.5179
 1309TIP3    H125418   6.629   2.548  14.165  0.6793 -0.4864 -1.4054
 1309TIP3    H225419   6.681   2.679  14.221 -0.0558 -0.2216 -1.3352
 1310TIP3   OH225420   4.753   1.393   3.746 -0.1634 -0.8266  0.1291
 1310TIP3    H125421   4.735   1.410   3.654 -1.1699  1.1175  0.6635
 1310TIP3    H225422   4.714   1.466   3.792  3.8401  0.3725  1.8308
 1311TIP3   OH225423   6.106   1.932   1.017  0.5566 -0.1798  0.3119
 1311TIP3    H125424   6.021   1.937   1.060  0.8912 -3.8326  1.5243
 1311TIP3    H225425   6.169   1.918   1.088  1.6374 -1.8734 -0.9461
 1312TIP3   OH225426   0.528   1.867   3.268 -0.1119  0.1528  0.2878
 1312TIP3    H125427   0.528   1.894   3.177 -0.7537  1.0994  0.5572
 1312TIP3    H225428   0.468   1.793   3.271  1.9707 -1.6102 -0.5307
 1313TIP3   OH225429   2.554   5.485  14.774  1.2004 -0.1914 -0.1847
 1313TIP3    H125430   2.572   5.501  14.867 -2.1553  2.2699  0.1228
 1313TIP3    H225431   2.586   5.564  14.731  0.1810 -0.1066 -0.7816
 1314TIP3   OH225432   0.570   2.240  12.000  0.4583  0.6166 -0.0109
 1314TIP3    H125433   0.608   2.156  12.026 -0.8785  0.0794  0.1985
 1314TIP3    H225434   0.636   2.278  11.941  1.9655  0.3299  1.4288
 1315TIP3   OH225435   5.031   6.145   2.369 -0.0232  0.0530  0.7802
 1315TIP3    H125436   4.974   6.216   2.341  0.6415  1.2061  2.2540
 1315TIP3    H225437   5.032   6.152   2.465  1.4412 -0.8582  0.8429
 1316TIP3   OH225438   0.465   0.143   4.754  0.5411 -0.3063  0.3572
 1316TIP3    H125439   0.516   0.094   4.689 -0.4674 -0.0976 -0.6120
 1316TIP3    H225440   0.466   0.088   4.832 -1.3506 -2.3403 -1.0006
 1317TIP3   OH225441   0.475   0.543  15.792 -0.2729 -0.3254 -0.0374
 1317TIP3    H125442   0.414   0.597  15.843 -0.7098 -0.6119 -0.2578
 1317TIP3    H225443   0.562   0.570  15.823 -0.5742 -1.4905  1.8868
 1318TIP3   OH225444   6.797   0.764  12.701  0.1992  0.0534  0.6889
 1318TIP3    H125445   6.780   0.840  12.756  0.6069  1.7768 -1.4800
 1318TIP3    H225446   6.757   0.690  12.747  0.6198  1.4116  3.2993
 1319TIP3   OH225447   4.266   3.740   5.944 -0.0206 -0.0352 -0.2925
 1319TIP3    H125448   4.203   3.703   6.006 -0.1777 -2.7070 -1.9526
 1319TIP3    H225449   4.349   3.742   5.992 -0.9463  1.8297  1.3200
 1320TIP3   OH225450   4.238   2.747   1.749  0.4748 -0.1991  0.1988
 1320TIP3    H125451   4.327   2.781   1.754 -0.0300  1.1710  0.1537
 1320TIP3    H225452   4.242   2.680   1.681  1.4943 -0.2494  0.2964
 1321TIP3   OH225453   6.182   3.586   3.838  0.2469 -0.4185 -0.2133
 1321TIP3    H125454   6.270   3.604   3.870 -0.1948 -0.9025  1.3349
 1321TIP3    H225455   6.125   3.619   3.907 -0.7195 -2.1137 -0.1681
 1322TIP3   OH225456   0.874   6.767   4.887 -0.0676  0.1547  0.0103
 1322TIP3    H125457   0.846   6.839   4.830  1.2794  0.2599 -0.5524
 1322TIP3    H225458   0.964   6.749   4.860  0.2234 -0.5366  1.3728
 1323TIP3   OH225459   4.072   3.282   1.257 -0.5618  0.2329 -0.1359
 1323TIP3    H125460   4.046   3.216   1.321  2.9349 -1.1244 -0.0346
 1323TIP3    H225461   4.137   3.335   1.303 -1.5974  2.3272 -1.0055
 1324TIP3   OH225462   1.516   1.714   3.195 -0.7320  0.2180 -0.2414
 1324TIP3    H125463   1.513   1.619   3.179  1.5504 -0.1955  1.4275
 1324TIP3    H225464   1.498   1.722   3.289  0.1982  1.3406 -0.1571
 1325TIP3   OH225465   6.400   0.283  15.590  0.1295 -0.1624 -0.5283
 1325TIP3    H125466   6.482   0.269  15.637  1.2741  2.7521 -1.5208
 1325TIP3    H225467   6.353   0.347  15.644 -1.4903 -1.7390 -0.0202
 1326TIP3   OH225468   4.511   2.123   5.111 -0.0588  0.8152  0.2009
 1326TIP3    H125469   4.460   2.094   5.036 -0.7109  0.1447  0.8891
 1326TIP3    H225470   4.482   2.213   5.128 -0.7113  0.5850  0.3229
 1327TIP3   OH225471   1.040   1.002   4.631  0.6032  0.4330 -0.2729
 1327TIP3    H125472   0.953   1.019   4.665  0.4682 -0.2738 -0.2619
 1327TIP3    H225473   1.074   1.089   4.606 -0.1976  0.6748 -0.5243
 1328TIP3   OH225474   6.214   3.944  14.486 -0.1572  0.1829  0.0401
 1328TIP3    H125475   6.280   3.901  14.541  0.4697  1.1347  0.0398
 1328TIP3    H225476   6.166   3.872  14.445  2.0912 -0.5262 -1.4135
 1329TIP3   OH225477   1.645   2.792   5.854  0.4526  0.4475  0.1606
 1329TIP3    H125478   1.723   2.787   5.910  0.4256 -0.5844  0.1120
 1329TIP3    H225479   1.580   2.738   5.898 -0.2329  1.2864  0.1814
 1330TIP3   OH225480   5.476   4.332  11.462 -0.3882  0.5077  0.8335
 1330TIP3    H125481   5.550   4.298  11.513  0.4980 -0.3072 -0.9718
 1330TIP3    H225482   5.476   4.280  11.382 -2.9199  0.5245  0.8003
 1331TIP3   OH225483   5.266   6.817  16.409  0.2672 -0.4209 -0.7055
 1331TIP3    H125484   5.239   6.748  16.470 -0.2536 -0.1416 -0.6166
 1331TIP3    H225485   5.207   6.890  16.429  0.6738 -0.0277 -0.9479
 1332TIP3   OH225486   0.449   6.610   3.592  0.5296  0.6210  0.1586
 1332TIP3    H125487   0.431   6.704   3.587  1.0303  0.8102  1.7233
 1332TIP3    H225488   0.424   6.586   3.681  0.7333 -0.6724 -0.1286
 1333TIP3   OH225489   6.369   1.144  12.789 -0.3753 -0.0447  0.3216
 1333TIP3    H125490   6.437   1.098  12.837  0.2989  1.0990  0.4943
 1333TIP3    H225491   6.377   1.235  12.818 -0.0489  0.6316 -1.8543
 1334TIP3   OH225492   1.859   1.043  14.399 -0.4214 -0.0692  0.2469
 1334TIP3    H125493   1.901   0.957  14.394 -1.9036 -0.8044  0.1866
 1334TIP3    H225494   1.825   1.048  14.488  0.4097  0.8271  0.5260
 1335TIP3   OH225495   4.208   1.017  14.434  0.1338 -0.5284  0.2086
 1335TIP3    H125496   4.286   1.035  14.382  0.2199 -0.7547  0.2624
 1335TIP3    H225497   4.135   1.042  14.376  0.2031 -1.5425 -0.3257
 1336TIP3   OH225498   6.359   6.319   3.356  0.1007 -0.3247  0.7718
 1336TIP3    H125499   6.393   6.339   3.269  0.8711  1.7163  1.5047
 1336TIP3    H225500   6.415   6.370   3.416 -1.9428  0.2354  2.2666
 1337TIP3   OH225501   5.538   0.360   0.422  0.3931 -0.4538  0.0789
 1337TIP3    H125502   5.502   0.326   0.340 -0.9946  0.5701  0.2461
 1337TIP3    H225503   5.629   0.382   0.401  0.8767 -2.8111 -0.4379
 1338TIP3   OH225504   1.078   5.895  14.145  0.5145  0.6773  0.4498
 1338TIP3    H125505   1.104   5.926  14.232  0.3271  0.3347  0.6321
 1338TIP3    H225506   1.138   5.822  14.127 -1.1279 -0.9351  1.4227
 1339TIP3   OH225507   6.056   3.075   0.084 -0.0142  0.0846 -0.3690
 1339TIP3    H125508   6.068   3.013   0.013  0.3693 -1.5114  1.0586
 1339TIP3    H225509   5.962   3.074   0.102  0.0495 -0.4071 -0.0620
 1340TIP3   OH225510   1.312   0.796   5.809  0.1132 -0.1034  0.0102
 1340TIP3    H125511   1.256   0.756   5.742  0.6073 -2.4369  0.9640
 1340TIP3    H225512   1.338   0.724   5.865  2.7219  1.2268  0.5896
 1341TIP3   OH225513   2.956   2.382  15.789  0.0518  0.0203 -0.0677
 1341TIP3    H125514   2.952   2.422  15.876 -1.6994 -0.1480 -0.0572
 1341TIP3    H225515   3.040   2.411  15.754  0.0194  1.5050  1.0064
 1342TIP3   OH225516   6.794   0.950  14.732  0.1062 -0.1811  0.1253
 1342TIP3    H125517   6.777   0.880  14.796  0.4588 -1.8048 -1.5170
 1342TIP3    H225518   6.852   1.011  14.779 -0.8977 -0.5264  1.8662
 1343TIP3   OH225519   3.825   0.837  13.703 -0.0970 -0.3173  0.1786
 1343TIP3    H125520   3.828   0.901  13.632 -1.7054 -1.7196 -1.2113
 1343TIP3    H225521   3.770   0.878  13.770 -2.3957 -0.8059 -1.3452
 1344TIP3   OH225522   2.417   0.000  16.174 -0.4556 -0.2175 -0.5274
 1344TIP3    H125523   2.463  -0.027  16.254  1.2391 -0.3411 -1.5227
 1344TIP3    H225524   2.339   0.045  16.206  1.9809  2.9472  1.2899
 1345TIP3   OH225525   6.328   6.011  15.046 -0.5095 -0.2623 -0.9138
 1345TIP3    H125526   6.373   5.978  15.124 -2.0341 -0.4178 -0.0734
 1345TIP3    H225527   6.248   5.959  15.041 -2.7383  2.9380  0.1736
 1346TIP3   OH225528   1.825   6.388  15.509  0.3901  0.2644  0.4174
 1346TIP3    H125529   1.916   6.372  15.487  0.7087 -0.6962  2.3550
 1346TIP3    H225530   1.820   6.377  15.604 -1.9157 -0.5691  0.2490
 1347TIP3   OH225531   4.338   2.833  12.444  0.2929  0.0756  0.0724
 1347TIP3    H125532   4.275   2.905  12.439 -0.1781 -0.3644 -0.4880
 1347TIP3    H225533   4.404   2.862  12.506 -0.6218  0.4421  0.8915
 1348TIP3   OH225534   3.349   6.782  16.407  0.0251  0.0530  0.1101
 1348TIP3    H125535   3.382   6.856  16.457  1.5565 -0.9459  0.6175
 1348TIP3    H225536   3.261   6.808  16.380  0.2727  1.7486  0.8934
 1349TIP3   OH225537   5.808   3.737  16.705 -0.0973  0.5388  0.3500
 1349TIP3    H125538   5.892   3.692  16.716 -0.0040  0.4764 -0.6198
 1349TIP3    H225539   5.826   3.807  16.642 -1.1387 -0.4576 -1.0792
 1350TIP3   OH225540   6.194   4.872   0.445  0.7765 -0.3352  0.3471
 1350TIP3    H125541   6.157   4.934   0.508  2.5126  0.6492  0.4160
 1350TIP3    H225542   6.282   4.853   0.477  1.5498 -0.1100 -1.5359
 1351TIP3   OH225543   2.760   5.214  11.046 -0.6101  0.0882 -1.2218
 1351TIP3    H125544   2.729   5.304  11.050 -0.8933  0.0292 -1.9342
 1351TIP3    H225545   2.682   5.163  11.023 -0.9885 -0.6475  1.5063
 1352TIP3   OH225546   3.069   0.331  11.293  0.3720 -0.1252 -0.3552
 1352TIP3    H125547   3.061   0.325  11.197  0.4851 -0.7936 -0.3246
 1352TIP3    H225548   3.061   0.424  11.311 -1.2589 -0.1473 -0.8746
 1353TIP3   OH225549   2.909   1.638  16.246  0.7393 -0.1573 -0.2506
 1353TIP3    H125550   2.990   1.673  16.283  0.2976 -0.6862  1.2572
 1353TIP3    H225551   2.917   1.653  16.152  1.5911  1.8806  0.1062
 1354TIP3   OH225552   3.345   5.559   2.814 -0.4322 -0.1505 -0.0899
 1354TIP3    H125553   3.430   5.573   2.771 -0.7298  1.0568 -0.2979
 1354TIP3    H225554   3.362   5.578   2.906 -0.4540 -0.0125 -0.1146
 1355TIP3   OH225555   5.387   4.740  11.541  0.0739  0.0523 -0.5549
 1355TIP3    H125556   5.474   4.766  11.572  0.6773 -1.5576 -0.8267
 1355TIP3    H225557   5.326   4.791  11.594  1.1548 -0.2284  1.0170
 1356TIP3   OH225558   3.013   0.199   5.429  0.6313  0.0243  0.0765
 1356TIP3    H125559   2.979   0.149   5.504 -0.4649 -0.6569 -0.8674
 1356TIP3    H225560   3.108   0.198   5.442  0.4135  0.6107  1.8997
 1357TIP3   OH225561   3.721   4.615   4.890  0.2627  0.1876  0.0111
 1357TIP3    H125562   3.674   4.639   4.810  0.2519  1.6896  0.4512
 1357TIP3    H225563   3.806   4.584   4.860 -0.0199  0.0305 -0.6295
 1358TIP3   OH225564   3.254   4.960  16.506 -0.0162 -0.6786 -0.2142
 1358TIP3    H125565   3.294   4.948  16.420  0.1153  1.8985 -0.5489
 1358TIP3    H225566   3.160   4.955  16.489  0.0100 -0.1864 -0.5251
 1359TIP3   OH225567   0.620   0.408  16.124 -0.3638 -0.1101  0.2077
 1359TIP3    H125568   0.595   0.321  16.095 -1.5061  0.4652 -0.5696
 1359TIP3    H225569   0.583   0.416  16.212  1.7040 -1.2474  1.2071
 1360TIP3   OH225570   4.843   6.684  13.515 -0.0134 -0.0627 -0.6491
 1360TIP3    H125571   4.908   6.615  13.517  1.2455  1.1195 -0.1713
 1360TIP3    H225572   4.829   6.702  13.422  1.1629  0.4238 -0.7372
 1361TIP3   OH225573   5.152   2.767   3.053  0.2166 -0.1294 -0.0317
 1361TIP3    H125574   5.077   2.815   3.019 -0.7276 -0.8317  1.0678
 1361TIP3    H225575   5.147   2.777   3.148  1.8860  0.3802  0.0205
 1362TIP3   OH225576   3.820   6.758  12.354 -0.2403 -0.1317  0.5558
 1362TIP3    H125577   3.880   6.821  12.394  0.6502 -0.5825 -0.0598
 1362TIP3    H225578   3.865   6.729  12.275 -1.3462 -0.3511  0.0008
 1363TIP3   OH225579   4.298   1.949  14.916  0.1923 -0.5977  0.6723
 1363TIP3    H125580   4.263   2.032  14.947 -1.4611 -1.4872  1.2505
 1363TIP3    H225581   4.315   1.898  14.995  0.0596 -1.2530  0.2908
 1364TIP3   OH225582   1.342   2.744  12.941  0.1420  0.1124  0.5905
 1364TIP3    H125583   1.307   2.832  12.945  1.6835  0.7444  0.5251
 1364TIP3    H225584   1.368   2.732  12.850 -0.9563 -0.7799  0.3805
 1365TIP3   OH225585   0.326   1.089   1.277  0.0857  0.2564  0.2594
 1365TIP3    H125586   0.324   1.055   1.187  0.8528 -0.9628  0.6954
 1365TIP3    H225587   0.249   1.051   1.318  0.7372 -0.6841  0.6370
 1366TIP3   OH225588   4.004   2.552  15.725 -0.2160 -0.2732  0.1065
 1366TIP3    H125589   4.069   2.574  15.658 -1.1432  0.1792 -0.6493
 1366TIP3    H225590   3.952   2.482  15.687  0.1632 -1.0245  0.9386
 1367TIP3   OH225591   2.560   3.064   5.397  0.0018  0.1891 -0.7997
 1367TIP3    H125592   2.566   3.015   5.316  2.4745 -0.3401 -0.3328
 1367TIP3    H225593   2.648   3.098   5.412  0.1181 -1.3961  2.6757
 1368TIP3   OH225594   4.657   5.341   4.410  0.0140 -0.9964  0.2478
 1368TIP3    H125595   4.622   5.257   4.381  3.3783 -2.0169 -1.0978
 1368TIP3    H225596   4.694   5.380   4.330  1.0633  0.4374  1.4108
 1369TIP3   OH225597   3.631   6.189  14.254  0.3252  0.5851  0.0029
 1369TIP3    H125598   3.691   6.141  14.311  2.2907 -0.0413 -2.4575
 1369TIP3    H225599   3.560   6.127  14.236  0.5567  0.1898  0.4317
 1370TIP3   OH225600   6.693   4.850   0.427  0.3994  0.4088  0.2244
 1370TIP3    H125601   6.686   4.944   0.411  2.2609  0.7316  1.1162
 1370TIP3    H225602   6.780   4.839   0.464 -1.7036 -0.9390  5.1445
 1371TIP3   OH225603   2.267   6.237  15.257 -0.7198  0.2805  0.0852
 1371TIP3    H125604   2.280   6.332  15.256  0.2373  0.1632 -1.7001
 1371TIP3    H225605   2.221   6.219  15.175  1.0892 -1.0302 -0.6817
 1372TIP3   OH225606   5.174   0.083  14.271 -0.0055 -0.2382 -0.4521
 1372TIP3    H125607   5.128   0.019  14.325  0.2676 -1.1761 -1.3180
 1372TIP3    H225608   5.128   0.082  14.187  0.9780 -0.4708 -1.0039
 1373TIP3   OH225609   1.083   6.354  13.846 -0.4468 -0.1727  0.1865
 1373TIP3    H125610   1.085   6.282  13.909 -3.6828  0.7207  1.3970
 1373TIP3    H225611   1.034   6.319  13.771  1.3506 -0.4664 -0.8736
 1374TIP3   OH225612   0.019   4.845   3.668 -0.5220  0.5875 -0.3561
 1374TIP3    H125613  -0.021   4.761   3.643  0.3479  0.2299 -0.5627
 1374TIP3    H225614  -0.053   4.908   3.661 -1.3521 -0.2512  0.4714
 1375TIP3   OH225615   1.890   4.962  14.537  0.6367  0.4332 -0.3214
 1375TIP3    H125616   1.824   4.892  14.535  1.2388 -0.2457  1.6958
 1375TIP3    H225617   1.853   5.027  14.597  0.7590  1.1579 -1.0240
 1376TIP3   OH225618   1.114   6.302   1.683 -0.0450  0.3516 -0.3811
 1376TIP3    H125619   1.071   6.374   1.636 -2.2313 -0.7224 -0.0918
 1376TIP3    H225620   1.089   6.224   1.634  0.0160 -0.4907  0.9151
 1377TIP3   OH225621   4.925   1.356  11.922  0.2364  0.1520  0.2589
 1377TIP3    H125622   4.870   1.278  11.911  1.3759 -0.3393 -2.4608
 1377TIP3    H225623   5.009   1.323  11.953  0.2090  0.4705  0.6739
 1378TIP3   OH225624   5.187   3.218  12.953  0.5336  0.3337  0.1202
 1378TIP3    H125625   5.156   3.160  13.023 -2.7169  0.2826 -1.2946
 1378TIP3    H225626   5.168   3.306  12.985  0.4951  0.3798 -0.0306
 1379TIP3   OH225627   5.087   3.045   0.521  0.0255 -0.4700 -0.1080
 1379TIP3    H125628   5.161   3.048   0.581 -1.5445  2.1627  1.7830
 1379TIP3    H225629   5.049   3.133   0.524 -1.8822 -1.1175 -2.7094
 1380TIP3   OH225630   6.276   0.905  12.997  0.1441  0.3099 -0.2128
 1380TIP3    H125631   6.307   0.996  13.003 -0.6654  0.4805  1.7124
 1380TIP3    H225632   6.209   0.898  13.064 -1.0212 -1.2563 -1.4945
 1381TIP3   OH225633   3.447   0.040   4.547  0.6015 -0.0039  0.2944
 1381TIP3    H125634   3.518   0.020   4.608  1.5306  2.0441 -0.0738
 1381TIP3    H225635   3.490   0.044   4.461 -0.2557 -0.3436 -0.1554
 1382TIP3   OH225636   5.048   5.151  14.695 -0.1333 -0.3620 -0.0755
 1382TIP3    H125637   4.964   5.168  14.654 -0.3492  2.4395  1.4050
 1382TIP3    H225638   5.097   5.101  14.630 -2.1042 -0.0007 -1.8829
 1383TIP3   OH225639   6.532   1.397  16.409  0.4658 -0.2176  0.1097
 1383TIP3    H125640   6.452   1.347  16.399  0.6240 -0.4389 -0.0593
 1383TIP3    H225641   6.602   1.335  16.388  0.6718  0.0234  0.0800
 1384TIP3   OH225642   0.278   3.129   1.218  0.3392  0.2025 -0.0292
 1384TIP3    H125643   0.307   3.163   1.303  3.3506 -1.9330 -0.1081
 1384TIP3    H225644   0.261   3.036   1.235 -0.7339  0.1387 -1.3859
 1385TIP3   OH225645   6.217   5.992  15.410 -0.2606  0.0463  0.0860
 1385TIP3    H125646   6.174   6.002  15.326 -0.3536 -0.7595  0.0368
 1385TIP3    H225647   6.231   6.082  15.441 -1.1360  0.3182 -0.3142
 1386TIP3   OH225648   2.228   2.266  15.225  0.0855 -0.4788  0.0208
 1386TIP3    H125649   2.273   2.215  15.291 -0.0310 -0.5917  0.0121
 1386TIP3    H225650   2.174   2.203  15.178 -1.2532 -0.1062  1.0173
 1387TIP3   OH225651   5.565   6.160  12.509  0.1539  0.0885 -0.6353
 1387TIP3    H125652   5.604   6.157  12.596  0.7751 -1.4639 -0.9544
 1387TIP3    H225653   5.507   6.084  12.507 -1.4289  1.2626 -0.8682
 1388TIP3   OH225654   5.409   0.139   3.203  0.2467  0.1588 -0.2453
 1388TIP3    H125655   5.448   0.092   3.278  0.6247  0.7226 -0.0850
 1388TIP3    H225656   5.353   0.074   3.161  1.6541 -0.7954 -0.7010
 1389TIP3   OH225657   3.553   4.099   0.145  0.1456  0.5104 -0.2163
 1389TIP3    H125658   3.525   4.028   0.203 -1.0402  1.1777  0.0389
 1389TIP3    H225659   3.639   4.125   0.179 -0.6625  1.1003  1.4532
 1390TIP3   OH225660   5.112   4.883   5.577 -0.5047  0.8972 -0.1229
 1390TIP3    H125661   5.198   4.897   5.617  0.1950  0.0282 -1.2749
 1390TIP3    H225662   5.050   4.890   5.650  0.5280  1.6583  0.6980
 1391TIP3   OH225663   2.244   5.658  13.376  0.5784 -0.2958 -0.9621
 1391TIP3    H125664   2.226   5.749  13.401 -1.8438 -1.0424  0.2196
 1391TIP3    H225665   2.204   5.650  13.289 -1.0638 -0.7892 -0.1696
 1392TIP3   OH225666   0.658   5.227   2.626 -0.4605 -0.0225 -0.1270
 1392TIP3    H125667   0.678   5.153   2.568  0.9588 -0.1095  0.4556
 1392TIP3    H225668   0.629   5.187   2.707  0.7230  0.0343  0.3371
 1393TIP3   OH225669   2.420   1.019  13.184  0.2950  0.1608  0.3931
 1393TIP3    H125670   2.362   1.077  13.233  2.1376  0.4546  2.3014
 1393TIP3    H225671   2.462   1.076  13.120  0.1637  0.3927  0.5138
 1394TIP3   OH225672   3.931   5.356  14.555  0.5635 -0.2663  0.0963
 1394TIP3    H125673   4.001   5.411  14.590  1.7196 -0.9966 -0.9939
 1394TIP3    H225674   3.918   5.387  14.466 -0.6242 -0.0409  0.3398
 1395TIP3   OH225675   6.030   5.826  12.145 -0.1184  0.1183  0.4640
 1395TIP3    H125676   5.981   5.884  12.202  0.8720  0.8079  0.6266
 1395TIP3    H225677   6.024   5.865  12.058  1.1996  0.8975  0.7125
 1396TIP3   OH225678   2.500   5.978   5.133 -0.1780  0.1831 -0.2364
 1396TIP3    H125679   2.519   6.025   5.214 -1.4069  1.2204 -0.5208
 1396TIP3    H225680   2.518   6.042   5.064  2.0964 -1.1051 -0.8660
 1397TIP3   OH225681   5.756   3.149   2.547  0.2878  0.3642  0.3737
 1397TIP3    H125682   5.751   3.082   2.615  1.9705  0.3550  0.5012
 1397TIP3    H225683   5.819   3.213   2.581  1.5239  0.0955 -1.4019
 1398TIP3   OH225684   3.019   1.360  13.201 -0.1291 -0.5189 -0.1173
 1398TIP3    H125685   2.972   1.423  13.255  0.8771 -1.2278  1.6156
 1398TIP3    H225686   2.959   1.286  13.194  0.1234 -0.8193  0.8461
 1399TIP3   OH225687   5.072   0.241   3.499 -0.5747  0.0446 -0.0923
 1399TIP3    H125688   5.079   0.316   3.559  5.0799 -0.3506  0.0009
 1399TIP3    H225689   5.102   0.276   3.415  0.4697 -1.6986 -0.4487
 1400TIP3   OH225690   4.761   0.515  16.706  0.1447 -0.0726  0.1040
 1400TIP3    H125691   4.810   0.463  16.641 -1.7182  1.9112 -3.0141
 1400TIP3    H225692   4.803   0.601  16.704 -2.4627  1.2047 -1.5192
 1401TIP3   OH225693   6.353   6.015   5.523 -0.3813  0.0124 -0.3687
 1401TIP3    H125694   6.380   5.924   5.509 -0.5413 -0.1361  0.2661
 1401TIP3    H225695   6.349   6.053   5.435 -0.5686 -0.6689 -0.6594
 1402TIP3   OH225696   5.008   4.446  11.977 -0.1294  0.7250  0.1394
 1402TIP3    H125697   5.034   4.411  11.892  0.6394  0.6262  0.4107
 1402TIP3    H225698   5.065   4.402  12.040 -1.9565 -0.5911  0.9039
 1403TIP3   OH225699   5.488   6.427  16.699 -0.0895 -0.4183  0.3699
 1403TIP3    H125700   5.541   6.377  16.761  0.0955  1.5236  1.8061
 1403TIP3    H225701   5.399   6.396  16.713  0.1827 -1.2424  0.3425
 1404TIP3   OH225702   0.973   4.812   5.351 -0.4736 -0.0931  0.2175
 1404TIP3    H125703   0.976   4.753   5.426 -0.7408 -0.7420 -0.2718
 1404TIP3    H225704   0.892   4.861   5.362 -1.3457 -1.3422 -0.4951
 1405TIP3   OH225705   3.160   1.888  15.770  0.1558  0.1035  0.4491
 1405TIP3    H125706   3.116   1.838  15.839  1.9477 -0.8070  0.9701
 1405TIP3    H225707   3.188   1.969  15.812 -0.3533  0.3577  0.3060
 1406TIP3   OH225708   2.921   6.604   6.059  0.0387 -0.4841 -0.6616
 1406TIP3    H125709   2.901   6.565   6.144  0.1177 -1.3882 -1.0573
 1406TIP3    H225710   2.850   6.667   6.045  0.3973  0.1670  0.3798
 1407TIP3   OH225711   4.144   1.981   2.831 -0.4365 -0.3212 -0.0312
 1407TIP3    H125712   4.196   1.930   2.769  1.4094  1.8670 -0.3608
 1407TIP3    H225713   4.094   2.042   2.777  0.6430  1.1185  0.5808
 1408TIP3   OH225714   1.834   1.643  16.631 -0.0307  0.2129  0.2685
 1408TIP3    H125715   1.798   1.579  16.693 -1.6406  2.1686  1.4192
 1408TIP3    H225716   1.897   1.693  16.683 -0.2207  0.8138 -0.0741
 1409TIP3   OH225717   3.236   1.861   1.063  0.0786  0.1834  0.1970
 1409TIP3    H125718   3.245   1.954   1.083 -0.5557 -0.0192  1.4660
 1409TIP3    H225719   3.149   1.854   1.022  0.4210  0.2467 -0.5559
 1410TIP3   OH225720   3.899   1.816  16.221 -0.4167 -0.3040 -0.5012
 1410TIP3    H125721   3.817   1.786  16.260 -0.0484  1.8350  2.0690
 1410TIP3    H225722   3.966   1.757  16.256 -0.6054 -0.8479 -1.0570
 1411TIP3   OH225723   1.248   0.838   0.551  0.1255 -0.5129 -0.2941
 1411TIP3    H125724   1.244   0.923   0.596 -0.8702  0.0899 -1.4997
 1411TIP3    H225725   1.336   0.835   0.513 -0.1258  0.3399 -0.9427
 1412TIP3   OH225726   0.977   0.447   6.338  0.2146 -0.7185  0.1073
 1412TIP3    H125727   1.053   0.428   6.393  0.1666 -0.1281  0.3910
 1412TIP3    H225728   0.986   0.541   6.318  0.3748 -0.9907 -1.1070
 1413TIP3   OH225729   5.754   4.026  11.169  0.2033  0.2571 -0.0458
 1413TIP3    H125730   5.776   3.933  11.166 -0.0496  0.1577  0.8178
 1413TIP3    H225731   5.837   4.071  11.183  0.2745  0.1275 -0.0612
 1414TIP3   OH225732   3.741   5.698  16.108  0.2872 -0.2549 -0.3024
 1414TIP3    H125733   3.656   5.742  16.116 -0.1390 -0.3376 -3.6921
 1414TIP3    H225734   3.805   5.768  16.120 -0.3195  0.4919 -1.3920
 1415TIP3   OH225735   5.204   3.788  16.733 -0.2031  0.2165  0.1631
 1415TIP3    H125736   5.155   3.707  16.745 -1.7789  1.2558  0.8985
 1415TIP3    H225737   5.258   3.796  16.811 -0.9118  0.4543  0.6343
 1416TIP3   OH225738   2.358   3.567   2.149 -0.0718  0.1718 -0.3818
 1416TIP3    H125739   2.306   3.497   2.188 -0.3907  0.2000 -0.7576
 1416TIP3    H225740   2.324   3.648   2.188 -0.5165  0.2157 -0.8502
 1417TIP3   OH225741   5.683   4.116   4.826  0.3622  0.0191  0.2167
 1417TIP3    H125742   5.664   4.121   4.732  0.9134 -1.2149  0.0225
 1417TIP3    H225743   5.773   4.084   4.830  0.0202 -0.8421  1.1744
 1418TIP3   OH225744   4.121   4.616   1.681  0.1319 -0.5723  0.4654
 1418TIP3    H125745   4.181   4.617   1.606 -0.1294 -1.2836  0.2441
 1418TIP3    H225746   4.132   4.702   1.722  0.3258 -0.2054 -0.3534
 1419TIP3   OH225747   1.277   5.805  12.553  0.0297 -0.0560 -0.0903
 1419TIP3    H125748   1.326   5.870  12.502  1.3602 -1.1084 -0.1812
 1419TIP3    H225749   1.249   5.853  12.631  0.3731  0.8274 -0.5015
 1420TIP3   OH225750   5.831   3.746  15.383  0.5530  0.3102 -0.0031
 1420TIP3    H125751   5.903   3.757  15.445  1.1158 -1.0125 -0.4084
 1420TIP3    H225752   5.773   3.820  15.401  2.4703  1.9300 -0.3123
 1421TIP3   OH225753   0.787   4.324  13.803  0.8014  0.7033 -0.3513
 1421TIP3    H125754   0.804   4.417  13.789  0.4004  0.6136 -1.5436
 1421TIP3    H225755   0.843   4.300  13.876  0.0812  2.1390  0.7136
 1422TIP3   OH225756   2.402   5.334   2.107  0.1663 -0.0431  0.2602
 1422TIP3    H125757   2.482   5.374   2.143 -0.7516  1.7303  0.3812
 1422TIP3    H225758   2.387   5.381   2.025  1.4183 -3.0711 -1.7979
 1423TIP3   OH225759   3.886   4.898   6.814  0.2415  0.7758 -0.5667
 1423TIP3    H125760   3.950   4.862   6.752  1.6811  0.7291  0.9167
 1423TIP3    H225761   3.856   4.822   6.864  1.3087  1.2253  0.7839
 1424TIP3   OH225762   0.098   4.036  12.447  0.1920  0.5269  0.0017
 1424TIP3    H125763   0.034   4.087  12.397 -1.7253  0.2443  2.0891
 1424TIP3    H225764   0.105   4.082  12.531  0.7739 -0.9207  0.7690
 1425TIP3   OH225765   5.619   3.330   1.526 -0.1593 -0.0269 -0.9256
 1425TIP3    H125766   5.670   3.356   1.603 -1.6577 -2.3245  0.9137
 1425TIP3    H225767   5.677   3.270   1.478 -0.6096 -1.6053  0.4638
 1426TIP3   OH225768   1.863   3.993   2.014  0.0003 -0.0926 -0.2714
 1426TIP3    H125769   1.935   3.967   1.957  0.9518 -0.1864  0.9599
 1426TIP3    H225770   1.822   4.066   1.968  0.1453 -0.7907 -1.5391
 1427TIP3   OH225771   6.061   1.020   2.680  0.0525  0.4741 -0.5236
 1427TIP3    H125772   5.989   1.005   2.741  0.8841  0.7562  0.5527
 1427TIP3    H225773   6.064   1.115   2.669  1.4069  0.6304  0.9018
 1428TIP3   OH225774   2.494   1.971  11.124  0.0313 -0.5621  0.4771
 1428TIP3    H125775   2.503   2.064  11.103  0.8789 -0.3935  1.5204
 1428TIP3    H225776   2.518   1.965  11.216 -0.9235 -1.6888  0.6676
 1429TIP3   OH225777   0.377   2.773   1.878 -0.5207 -0.3785 -0.6036
 1429TIP3    H125778   0.458   2.823   1.871 -1.0337  1.2000  3.5214
 1429TIP3    H225779   0.320   2.809   1.810  0.7733  1.3837 -0.7870
 1430TIP3   OH225780   0.137   6.760  11.269  0.0043  0.1629 -0.7012
 1430TIP3    H125781   0.200   6.730  11.203  1.0489  3.1973 -1.1769
 1430TIP3    H225782   0.067   6.801  11.219  0.7332  2.3585  0.0227
 1431TIP3   OH225783   1.699   0.861   5.354  0.5737  0.1991 -0.0542
 1431TIP3    H125784   1.639   0.933   5.338  1.7485  1.5262  1.3277
 1431TIP3    H225785   1.646   0.795   5.398  0.1163  1.3588  1.1658
 1432TIP3   OH225786   3.756   3.055   4.890  0.4513 -0.9341  0.1044
 1432TIP3    H125787   3.741   2.960   4.894 -1.3241 -0.5916  2.7725
 1432TIP3    H225788   3.669   3.092   4.877  0.7092  0.4636  2.1291
 1433TIP3   OH225789   0.142   1.131   3.946  0.3325 -0.0538  0.0897
 1433TIP3    H125790   0.143   1.116   3.851 -0.2104 -0.6259  0.1702
 1433TIP3    H225791   0.229   1.105   3.975  0.8265  1.0529 -0.3887
 1434TIP3   OH225792   4.298   1.267  11.958 -0.1389  0.4348 -0.1355
 1434TIP3    H125793   4.284   1.310  12.043 -0.2957  1.3299 -0.6128
 1434TIP3    H225794   4.282   1.174  11.976 -0.9894  0.7164  0.6334
 1435TIP3   OH225795   0.146   5.832   3.791  0.2324  0.4185  0.3357
 1435TIP3    H125796   0.089   5.758   3.811  0.6067  0.0052 -0.0952
 1435TIP3    H225797   0.094   5.910   3.812 -0.4453  0.0431  0.0640
 1436TIP3   OH225798   6.455   3.615   4.869 -0.1258  0.0571 -0.3486
 1436TIP3    H125799   6.379   3.671   4.882  0.6394  1.9249 -3.3326
 1436TIP3    H225800   6.530   3.672   4.884  0.6789 -0.7701 -1.1379
 1437TIP3   OH225801   1.942   1.740   0.100 -0.5700 -0.0286 -0.3912
 1437TIP3    H125802   1.866   1.690   0.070 -0.0886 -1.4236  0.6495
 1437TIP3    H225803   1.920   1.766   0.190  0.0475 -0.1557 -0.2019
 1438TIP3   OH225804   3.207   4.975   5.487 -0.9594 -1.0507  0.6756
 1438TIP3    H125805   3.194   5.011   5.400  2.2801 -1.3066  0.0458
 1438TIP3    H225806   3.209   5.052   5.544  0.0285 -0.6623  0.1172
 1439TIP3   OH225807   2.846   4.153   3.512 -0.3784  0.2223  0.2390
 1439TIP3    H125808   2.891   4.210   3.575  0.3858  0.5023 -0.5512
 1439TIP3    H225809   2.911   4.088   3.488 -0.8358 -0.1958  0.1234
 1440TIP3   OH225810   5.924   1.147   4.644 -0.0060  0.1707  0.0400
 1440TIP3    H125811   5.973   1.065   4.631  0.2169  0.5790 -1.7907
 1440TIP3    H225812   5.949   1.175   4.732  1.1747 -0.8931  0.0707
 1441TIP3   OH225813   1.201   6.652  13.018 -0.3732 -0.0341  0.0414
 1441TIP3    H125814   1.211   6.737  13.060 -1.2370  0.3361 -0.4953
 1441TIP3    H225815   1.264   6.653  12.946 -0.3763  0.1456  0.0416
 1442TIP3   OH225816   1.627   3.598   5.067 -0.2410 -0.1162  0.1118
 1442TIP3    H125817   1.592   3.584   5.155  1.4789  2.3210  1.2401
 1442TIP3    H225818   1.708   3.546   5.065  1.1589  1.9263  0.9975
 1443TIP3   OH225819   1.817   4.872  12.311  0.4030  0.2169 -0.3191
 1443TIP3    H125820   1.771   4.842  12.389  0.9517  0.8886  0.2696
 1443TIP3    H225821   1.759   4.939  12.274  0.5179  0.4871 -0.0217
 1444TIP3   OH225822   1.321   5.707   0.653  0.6281  0.0210  0.5304
 1444TIP3    H125823   1.250   5.692   0.715  0.2446  1.9650  0.5955
 1444TIP3    H225824   1.288   5.777   0.596  1.0078 -1.6465 -1.8095
 1445TIP3   OH225825   6.045   0.819  14.981  0.0252 -0.1363 -0.7513
 1445TIP3    H125826   6.009   0.906  14.964 -0.5514  0.4157  2.8097
 1445TIP3    H225827   6.127   0.836  15.027 -0.8500 -1.3986  1.3779
 1446TIP3   OH225828   1.106   0.719   5.635 -0.3838 -0.3733  0.2365
 1446TIP3    H125829   1.106   0.623   5.642  0.1704 -0.5173 -1.4712
 1446TIP3    H225830   1.039   0.738   5.569 -0.1411  0.3806  0.2003
 1447TIP3   OH225831   1.019   0.206   6.178  0.1302  0.1429 -0.0152
 1447TIP3    H125832   0.998   0.114   6.189  0.8681  0.1870  1.9450
 1447TIP3    H225833   0.982   0.249   6.255 -1.6887  1.7657 -1.7206
 1448TIP3   OH225834   3.661   3.524  16.298  0.4068  0.4469 -0.2466
 1448TIP3    H125835   3.729   3.587  16.321 -0.4519  0.4560  2.3576
 1448TIP3    H225836   3.581   3.576  16.290  0.3047  0.1414 -1.2420
 1449TIP3   OH225837   6.491   3.708  11.620  0.1307  0.3830  0.0495
 1449TIP3    H125838   6.467   3.679  11.708 -2.4545 -0.8793 -1.0024
 1449TIP3    H225839   6.520   3.627  11.576  0.2732  0.7877 -0.6044
 1450TIP3   OH225840   3.014   4.196   2.913  0.1563  0.2097  0.2858
 1450TIP3    H125841   3.007   4.110   2.872  1.2020 -0.1670  0.8793
 1450TIP3    H225842   2.927   4.213   2.949  0.0596 -0.7878  0.5330
 1451TIP3   OH225843   2.578   0.619   2.492 -1.1085 -0.2317 -0.2569
 1451TIP3    H125844   2.571   0.549   2.557  0.8942 -0.7756 -0.5874
 1451TIP3    H225845   2.598   0.697   2.543  3.7185 -1.2234 -0.3090
 1452TIP3   OH225846   5.810   0.175  15.652 -0.1071 -0.0664 -0.8765
 1452TIP3    H125847   5.900   0.202  15.668  0.0648 -1.6781  1.1796
 1452TIP3    H225848   5.796   0.101  15.712 -2.6123 -0.2068 -1.5557
 1453TIP3   OH225849   2.794   4.087  11.675  0.8114 -0.1145 -0.1389
 1453TIP3    H125850   2.699   4.093  11.664  0.6673 -1.0732  0.5731
 1453TIP3    H225851   2.806   4.044  11.760  1.8822  0.6270  0.0996
 1454TIP3   OH225852   1.690   4.143   6.956 -0.7728 -0.0716 -0.1815
 1454TIP3    H125853   1.627   4.151   7.028 -0.3960 -0.1593  0.1629
 1454TIP3    H225854   1.641   4.169   6.878 -1.3917 -0.6789  0.0001
 1455TIP3   OH225855   2.091   4.471  16.733 -0.0997  0.1264  0.3070
 1455TIP3    H125856   2.048   4.394  16.697  0.8973 -0.1698 -0.2669
 1455TIP3    H225857   2.129   4.441  16.815 -3.5423  1.1352  2.3760
 1456TIP3   OH225858   4.626   4.708   5.120 -0.1311 -0.6272 -0.4520
 1456TIP3    H125859   4.552   4.696   5.061  0.4014  0.4478 -1.3500
 1456TIP3    H225860   4.618   4.799   5.150 -0.4575 -1.1891  1.2197
 1457TIP3   OH225861   2.769   5.698   2.156 -0.3451  0.2218 -0.4044
 1457TIP3    H125862   2.730   5.716   2.242  0.5659 -0.8429  0.2431
 1457TIP3    H225863   2.837   5.765   2.146 -1.4238  1.2705 -0.9683
 1458TIP3   OH225864   6.486   2.512   1.229 -0.3193 -0.0240  0.3729
 1458TIP3    H125865   6.581   2.512   1.229 -0.2937 -1.4465 -0.1438
 1458TIP3    H225866   6.461   2.519   1.321  0.2470  2.2986  0.3603
 1459TIP3   OH225867   0.582   5.655   5.280  0.3202 -0.0361  0.0629
 1459TIP3    H125868   0.560   5.743   5.248 -0.6973 -0.7450 -1.2525
 1459TIP3    H225869   0.590   5.602   5.200 -0.9536 -1.5508  0.9131
 1460TIP3   OH225870   0.014   4.625  14.738  0.7227 -0.0011 -0.0779
 1460TIP3    H125871  -0.030   4.709  14.724  0.5191  0.0399  0.8232
 1460TIP3    H225872  -0.023   4.591  14.819  0.4910 -1.1724 -0.6553
 1461TIP3   OH225873   6.580   2.900  15.979 -0.4554 -0.0296 -0.1056
 1461TIP3    H125874   6.575   2.946  16.063  1.8050  0.4785 -0.2237
 1461TIP3    H225875   6.617   2.815  15.999  0.1200  0.1016 -0.5783
 1462TIP3   OH225876   5.911   4.470  14.955  0.0793  0.1274 -0.0401
 1462TIP3    H125877   5.859   4.415  15.013 -1.7057 -0.0510 -1.7557
 1462TIP3    H225878   5.884   4.443  14.867  2.0314  1.0500 -0.9371
 1463TIP3   OH225879   2.444   4.809  13.200 -0.0256 -0.5670 -0.2206
 1463TIP3    H125880   2.430   4.783  13.291 -0.2646 -0.0946 -0.1227
 1463TIP3    H225881   2.359   4.842  13.170  0.0652 -0.6666 -0.5972
 1464TIP3   OH225882   6.581   6.079   3.333 -0.3848 -0.2436  0.2449
 1464TIP3    H125883   6.506   6.084   3.393 -1.0537 -1.3058 -0.4750
 1464TIP3    H225884   6.645   6.024   3.379  0.1117  0.9450  1.0054
 1465TIP3   OH225885   1.887   4.934   3.867  0.0307  0.6434 -0.1881
 1465TIP3    H125886   1.957   4.921   3.931 -1.1604  1.0477  1.2276
 1465TIP3    H225887   1.847   4.848   3.857  0.2107  0.5824 -0.3791
 1466TIP3   OH225888   3.009   1.225   3.346 -0.2639 -0.6985  0.2860
 1466TIP3    H125889   3.033   1.174   3.422  1.1689  1.1153  1.1006
 1466TIP3    H225890   3.023   1.316   3.372 -0.8206  0.0231 -1.7629
 1467TIP3   OH225891   3.998   4.814   5.041 -0.5514 -0.8022  0.2714
 1467TIP3    H125892   4.011   4.766   4.960  0.2570 -0.3805  0.1420
 1467TIP3    H225893   3.990   4.746   5.108  1.7801 -1.1394  0.2652
 1468TIP3   OH225894   2.195   6.114  10.485 -0.2570  0.4846 -0.3249
 1468TIP3    H125895   2.163   6.137  10.398  0.3100  1.9200 -0.1638
 1468TIP3    H225896   2.144   6.168  10.545  0.0374  0.2166  0.1739
 1469TIP3   OH225897   2.354   5.559  14.570 -0.4001  0.2037 -0.4413
 1469TIP3    H125898   2.261   5.571  14.551 -0.3746 -0.2795 -0.8839
 1469TIP3    H225899   2.357   5.544  14.665 -0.8571 -0.6004 -0.5473
 1470TIP3   OH225900   1.804   0.586  12.300 -0.1227  0.0634 -0.8061
 1470TIP3    H125901   1.739   0.656  12.308 -0.3688 -0.3009  0.4886
 1470TIP3    H225902   1.886   0.632  12.279 -0.1145  0.8297  0.8060
 1471TIP3   OH225903   4.046   4.518  13.829 -0.0567  0.0412  0.3022
 1471TIP3    H125904   4.138   4.543  13.820  0.0191 -0.0126  0.9161
 1471TIP3    H225905   4.036   4.497  13.922 -0.0340 -2.5170 -0.2184
 1472TIP3   OH225906   1.808   0.698   0.946  0.0709 -0.7742 -0.1894
 1472TIP3    H125907   1.814   0.788   0.913 -0.3714 -0.0423  1.7135
 1472TIP3    H225908   1.880   0.690   1.009 -1.6760 -0.8102  1.8420
 1473TIP3   OH225909   5.833   2.698   1.849  0.4203  0.2512  0.5131
 1473TIP3    H125910   5.921   2.734   1.839  0.2939  0.5081  0.3182
 1473TIP3    H225911   5.840   2.638   1.924  0.9096 -0.2267  0.0881
 1474TIP3   OH225912   0.903   2.027   3.438 -0.4432 -0.4515  0.0936
 1474TIP3    H125913   0.881   2.096   3.375 -0.4575 -1.1970 -0.7289
 1474TIP3    H225914   0.860   1.948   3.404  0.4774 -1.1086  0.4304
 1475TIP3   OH225915   4.419   0.426  13.931 -0.4166  0.7287 -0.4929
 1475TIP3    H125916   4.382   0.373  14.002  0.2475  0.2097 -0.5356
 1475TIP3    H225917   4.493   0.472  13.971  1.4138 -1.3565 -1.4118
 1476TIP3   OH225918   3.052   0.075  11.408 -0.4439 -0.2775 -0.1464
 1476TIP3    H125919   3.078   0.162  11.377 -0.6354  0.1958  0.9944
 1476TIP3    H225920   3.134   0.027  11.418 -0.2825  0.0115 -0.0757
 1477TIP3   OH225921   3.660   0.891   4.596 -0.1613 -0.0754 -0.1475
 1477TIP3    H125922   3.716   0.862   4.668  0.3651  0.9342 -0.1387
 1477TIP3    H225923   3.629   0.977   4.623 -2.3718 -0.9449  0.2007
 1478TIP3   OH225924   5.818   5.504  12.855  0.1523 -0.2153 -0.4061
 1478TIP3    H125925   5.837   5.410  12.856 -0.4556 -0.3381 -0.2378
 1478TIP3    H225926   5.826   5.529  12.763 -3.3152 -1.1948 -1.0233
 1479TIP3   OH225927   5.365   3.483  16.590 -0.2010  0.1614 -0.4474
 1479TIP3    H125928   5.419   3.529  16.654  0.9038 -2.0891  0.2729
 1479TIP3    H225929   5.421   3.413  16.557 -2.1290 -1.1951 -0.8999
 1480TIP3   OH225930   2.477   5.335   1.817  0.0465 -0.0405 -0.6018
 1480TIP3    H125931   2.393   5.346   1.862 -0.1704 -2.2802 -0.4096
 1480TIP3    H225932   2.461   5.365   1.728 -0.8373 -0.0542 -0.4468
 1481TIP3   OH225933   5.243   3.208   1.715  0.0955  0.9017  0.0122
 1481TIP3    H125934   5.328   3.232   1.754 -0.5373  0.5442  1.6701
 1481TIP3    H225935   5.223   3.123   1.754  0.6231 -0.6866 -3.0675
 1482TIP3   OH225936   0.251   0.836   5.759 -0.3490 -0.8113 -0.1740
 1482TIP3    H125937   0.318   0.898   5.734 -0.8627 -0.7777 -1.5073
 1482TIP3    H225938   0.283   0.751   5.727  0.1021 -1.1551  1.1657
 1483TIP3   OH225939   5.371   3.351  11.627  0.4288 -0.0059 -0.4414
 1483TIP3    H125940   5.284   3.387  11.615  0.0791 -0.3860  0.8927
 1483TIP3    H225941   5.415   3.365  11.543 -0.3796  1.6482 -0.5964
 1484TIP3   OH225942   0.463   5.514   5.520 -0.2047  0.1589 -0.0027
 1484TIP3    H125943   0.507   5.597   5.498  0.1991  0.2080  0.9574
 1484TIP3    H225944   0.406   5.537   5.593  0.7760 -0.6641  1.0247
 1485TIP3   OH225945   3.428   1.035  13.477 -0.1819  0.1341  0.9153
 1485TIP3    H125946   3.438   1.130  13.466  1.9766  0.0796  2.1756
 1485TIP3    H225947   3.350   1.026  13.532 -0.1246  1.1919  1.1866
 1486TIP3   OH225948   2.558   2.461  16.075  0.4448  0.1713  0.4826
 1486TIP3    H125949   2.489   2.525  16.091 -0.8170 -0.9505 -0.3251
 1486TIP3    H225950   2.600   2.449  16.160 -0.8007  0.3729  1.1393
 1487TIP3   OH225951   0.093   1.430  12.647  0.2708 -0.3182  0.2716
 1487TIP3    H125952   0.186   1.429  12.623  0.6297 -0.4584  1.6411
 1487TIP3    H225953   0.065   1.520  12.632  1.1650  0.2381  1.8379
 1488TIP3   OH225954   3.735   2.931   1.255 -0.9484 -0.1645 -0.3260
 1488TIP3    H125955   3.775   3.018   1.264  3.3632 -2.0497 -0.1938
 1488TIP3    H225956   3.706   2.927   1.164  2.9777 -0.2037 -1.6494
 1489TIP3   OH225957   5.588   2.863   5.545 -0.3974 -0.1612 -0.0279
 1489TIP3    H125958   5.677   2.834   5.564  0.0576  1.8917  1.0378
 1489TIP3    H225959   5.532   2.794   5.582  0.7195 -1.3788 -0.5611
 1490TIP3   OH225960   2.485   3.019   0.277 -0.3208  0.3675  0.0091
 1490TIP3    H125961   2.458   3.108   0.302 -0.1933  0.5966 -0.6640
 1490TIP3    H225962   2.433   2.998   0.200  1.0528  0.6245 -1.0039
 1491TIP3   OH225963   0.367   1.995  15.791 -0.2252  0.5352  0.1941
 1491TIP3    H125964   0.366   1.949  15.874 -0.8540 -0.2544 -0.2483
 1491TIP3    H225965   0.295   1.957  15.741  0.0111  1.1504 -0.6299
 1492TIP3   OH225966   1.172   1.326  12.219  0.0945 -0.9247  0.1822
 1492TIP3    H125967   1.184   1.405  12.166 -0.8217 -2.0297 -1.7333
 1492TIP3    H225968   1.095   1.345  12.273  0.5742 -0.0742  0.5741
 1493TIP3   OH225969   6.423   4.616   4.527 -0.2338  0.1410 -0.6739
 1493TIP3    H125970   6.515   4.612   4.498 -0.0070 -0.5580  0.1356
 1493TIP3    H225971   6.428   4.639   4.619 -0.7551 -2.3622  0.0260
 1494TIP3   OH225972   4.144   5.389  13.511 -0.0370  0.8000 -0.5186
 1494TIP3    H125973   4.083   5.334  13.462 -0.0168  0.2688  0.0561
 1494TIP3    H225974   4.231   5.357  13.486 -0.0364  0.1165  0.3322
 1495TIP3   OH225975   1.690   2.172   5.253 -0.3443  0.3437 -0.3080
 1495TIP3    H125976   1.645   2.256   5.259 -0.0952  0.4980 -0.6266
 1495TIP3    H225977   1.783   2.194   5.251 -0.2907  0.0874 -0.8706
 1496TIP3   OH225978   3.903   2.842  12.132  0.3601 -0.3635  0.4154
 1496TIP3    H125979   3.877   2.806  12.047  0.4107  0.8475 -0.1219
 1496TIP3    H225980   3.993   2.871  12.118 -0.0798  1.0490  0.4982
 1497TIP3   OH225981   4.108   2.498  16.857 -0.2753  0.4964  0.0230
 1497TIP3    H125982   4.129   2.406  16.843 -1.3165 -0.0811  2.0510
 1497TIP3    H225983   4.194   2.542  16.856  0.2206 -0.4757 -0.9683
 1498TIP3   OH225984   2.646   0.433  10.418 -0.3205 -0.5106 -0.6536
 1498TIP3    H125985   2.741   0.420  10.419 -0.4387 -1.6090 -1.5629
 1498TIP3    H225986   2.613   0.377  10.488 -0.1931  0.9261  0.5716
 1499TIP3   OH225987   5.306   6.204   3.808 -0.4231 -0.4506  0.5018
 1499TIP3    H125988   5.254   6.226   3.885 -1.7558 -1.5973 -0.0293
 1499TIP3    H225989   5.361   6.131   3.836  1.0313  0.8672  1.1102
 1500TIP3   OH225990   3.029   2.710   6.118 -0.5499  0.5631 -0.0995
 1500TIP3    H125991   2.999   2.620   6.127  1.1748 -0.0639 -0.4496
 1500TIP3    H225992   3.055   2.718   6.026  0.1119  1.1588  0.1329
 1501TIP3   OH225993   0.029   3.562  11.078  0.3267  0.2855  0.2012
 1501TIP3    H125994   0.066   3.649  11.091 -0.9955  1.0263 -0.8332
 1501TIP3    H225995  -0.007   3.564  10.989  0.5207 -1.4078  0.0584
 1502TIP3   OH225996   3.652   6.058   0.422 -0.3346 -0.4938  0.2274
 1502TIP3    H125997   3.573   6.048   0.475 -0.9149  0.3103 -0.4725
 1502TIP3    H225998   3.627   6.121   0.354  0.6118 -0.9964 -0.5854
 1503TIP3   OH225999   1.799   3.289   2.077 -0.5654  0.0355 -0.0277
 1503TIP3    H126000   1.723   3.250   2.120  1.5237 -1.5769  2.3224
 1503TIP3    H226001   1.829   3.356   2.137  0.4794 -0.0470 -0.4453
 1504TIP3   OH226002   2.115   5.395   6.646 -0.1229 -0.0768  0.0717
 1504TIP3    H126003   2.110   5.302   6.625  0.6504  0.4103 -2.4765
 1504TIP3    H226004   2.024   5.426   6.641 -0.3755 -0.6804  0.8993
 1505TIP3   OH226005   3.461   3.268  15.484  0.6544 -0.3119 -0.2055
 1505TIP3    H126006   3.458   3.172  15.485  1.9422 -0.3528 -0.2606
 1505TIP3    H226007   3.552   3.290  15.465  0.7074  0.9270  1.3504
 1506TIP3   OH226008   3.890   4.036   0.105 -0.1633 -0.3197 -0.0167
 1506TIP3    H126009   3.878   4.011   0.013 -2.9566  0.3533  0.1305
 1506TIP3    H226010   3.837   3.974   0.154 -0.8290  0.9910  0.9358
 1507TIP3   OH226011   2.441   0.458  16.679 -0.4547 -0.4297  0.0567
 1507TIP3    H126012   2.452   0.505  16.597  1.8148 -1.3064 -0.1779
 1507TIP3    H226013   2.346   0.460  16.695 -0.6754  1.9252 -1.2518
 1508TIP3   OH226014   0.072   2.657   5.851  0.2010 -0.0546 -0.3716
 1508TIP3    H126015   0.037   2.719   5.916  0.2571 -0.8943  0.4690
 1508TIP3    H226016   0.162   2.642   5.879  0.4632  0.1801 -1.0961
 1509TIP3   OH226017   6.701   0.970   2.225  0.0464  0.8136  0.1865
 1509TIP3    H126018   6.761   0.900   2.201 -0.4788  0.6756 -0.7164
 1509TIP3    H226019   6.633   0.927   2.278 -0.2710  0.6405 -0.3599
 1510TIP3   OH226020   0.395   0.343  11.035  0.4121  0.0951 -0.8815
 1510TIP3    H126021   0.480   0.345  11.080  0.1027  0.6918 -0.3205
 1510TIP3    H226022   0.363   0.254  11.048  1.3763 -0.4155 -1.8885
 1511TIP3   OH226023   6.801   4.317   1.898  0.2768  0.1104  0.3046
 1511TIP3    H126024   6.864   4.267   1.847  1.7648 -0.3219  2.4911
 1511TIP3    H226025   6.744   4.250   1.936  0.2825  0.3000  0.6456
 1512TIP3   OH226026   0.364   2.369   5.147  0.3215  0.3541 -0.8625
 1512TIP3    H126027   0.451   2.340   5.176  0.7608  1.6787 -0.7813
 1512TIP3    H226028   0.321   2.399   5.227 -0.0991 -0.0406 -0.9433
 1513TIP3   OH226029   2.409   6.791   4.251 -0.5642  0.0869 -0.3434
 1513TIP3    H126030   2.455   6.709   4.267  1.8381  1.8127  2.0044
 1513TIP3    H226031   2.348   6.800   4.324  0.9877  1.5791  0.8072
 1514TIP3   OH226032   1.356   3.700  13.975  0.2711  0.4573 -0.0858
 1514TIP3    H126033   1.284   3.733  14.030 -0.7148 -1.1599 -0.3492
 1514TIP3    H226034   1.320   3.620  13.936  1.0276  1.4837 -2.9584
 1515TIP3   OH226035   3.492   0.809  12.693 -0.3973 -0.5425  0.2885
 1515TIP3    H126036   3.565   0.833  12.749 -0.1476 -0.1047 -0.2186
 1515TIP3    H226037   3.489   0.713  12.696 -0.1659 -0.5328  0.7630
 1516TIP3   OH226038   5.027   2.467  11.393  0.3183  0.6349 -0.0032
 1516TIP3    H126039   5.103   2.457  11.450  0.2747  0.3374  0.0034
 1516TIP3    H226040   5.063   2.495  11.309  0.0310  5.9170  1.4920
 1517TIP3   OH226041   6.247   6.102   2.807 -0.1144 -0.4888 -0.2363
 1517TIP3    H126042   6.244   6.053   2.725 -1.5997 -1.5087  0.4063
 1517TIP3    H226043   6.259   6.193   2.780  3.9362 -1.2501 -1.4153
 1518TIP3   OH226044   5.383   2.608   5.430  0.0666 -0.3123  0.4046
 1518TIP3    H126045   5.405   2.596   5.338  0.8538 -0.8863  0.6602
 1518TIP3    H226046   5.335   2.528   5.454 -0.4987  0.0196  0.3844
 1519TIP3   OH226047   5.631   5.885  13.473  0.0385  0.6455  0.5658
 1519TIP3    H126048   5.683   5.847  13.402 -0.0379  1.2686  0.1724
 1519TIP3    H226049   5.548   5.909  13.431 -0.6219 -0.4824  1.2172
 1520TIP3   OH226050   5.231   2.626  13.182  0.0412  0.1963  0.5113
 1520TIP3    H126051   5.293   2.693  13.151 -0.2334 -0.4559 -1.5042
 1520TIP3    H226052   5.147   2.673  13.189  0.5115  0.8208  2.2177
 1521TIP3   OH226053   2.212   0.128  12.696 -0.1289  0.6176 -0.3594
 1521TIP3    H126054   2.169   0.202  12.739 -0.2866  0.5954 -0.4770
 1521TIP3    H226055   2.214   0.153  12.603  1.1655  1.1392 -0.1978
 1522TIP3   OH226056   1.159   6.271   4.101 -0.1878 -0.4192  0.2362
 1522TIP3    H126057   1.186   6.348   4.151  0.2039  0.4467 -1.3103
 1522TIP3    H226058   1.070   6.291   4.072 -1.0296 -1.5880  1.8934
 1523TIP3   OH226059   3.380   5.096  17.194  0.4532 -0.3978  0.2521
 1523TIP3    H126060   3.425   5.153  17.132 -0.0441 -0.5291 -0.2332
 1523TIP3    H226061   3.425   5.111  17.277  1.5261 -0.6974 -0.2746
 1524TIP3   OH226062   6.769   1.447  10.585 -0.4348  0.2684  0.3463
 1524TIP3    H126063   6.751   1.424  10.494 -1.0743 -1.4768  0.8809
 1524TIP3    H226064   6.771   1.542  10.586 -0.3705  0.3138 -1.4981
 1525TIP3   OH226065   3.016   0.646  14.027  0.5196  0.2099 -0.3112
 1525TIP3    H126066   3.021   0.588  14.103  0.8579 -0.6201 -0.9603
 1525TIP3    H226067   3.068   0.602  13.960 -0.7376  0.3653 -1.3981
 1526TIP3   OH226068   4.675   5.405   2.957  0.2562  0.0191 -0.2849
 1526TIP3    H126069   4.734   5.401   2.881 -1.8644 -2.2800 -1.8766
 1526TIP3    H226070   4.680   5.496   2.986  2.7648  0.4211 -1.8225
 1527TIP3   OH226071   0.734   3.866   4.417 -0.4099 -0.0470  0.1172
 1527TIP3    H126072   0.734   3.933   4.486  1.4002 -1.2239  1.3038
 1527TIP3    H226073   0.806   3.890   4.359  0.2676 -0.9541  0.5630
 1528TIP3   OH226074   3.203   2.333  11.537  0.0388 -0.1122  0.5997
 1528TIP3    H126075   3.237   2.243  11.539 -0.5356 -0.3528 -0.4265
 1528TIP3    H226076   3.108   2.323  11.546 -0.1339  0.3245 -0.7186
 1529TIP3   OH226077   1.792   0.473   2.020 -0.5884 -0.3390 -0.1628
 1529TIP3    H126078   1.770   0.521   2.100 -0.1658 -0.0935 -0.1935
 1529TIP3    H226079   1.884   0.495   2.003 -0.6451 -0.4763 -0.6538
 1530TIP3   OH226080   5.798   6.782   5.391  0.4664 -0.2343 -0.2804
 1530TIP3    H126081   5.814   6.828   5.309  0.9294  1.2079  0.5967
 1530TIP3    H226082   5.713   6.740   5.379 -0.2479  1.3538 -0.8841
 1531TIP3   OH226083   2.991   2.124   3.243  0.7583 -0.0646 -0.3733
 1531TIP3    H126084   3.052   2.145   3.172 -1.7105  2.1164 -1.9589
 1531TIP3    H226085   2.976   2.207   3.287  1.5022 -1.2249  2.1521
 1532TIP3   OH226086   2.886   4.095  15.467  0.4045  0.1082 -0.2741
 1532TIP3    H126087   2.805   4.066  15.427 -0.5942  0.1698  1.6303
 1532TIP3    H226088   2.869   4.186  15.493  0.6011 -0.3032  1.3429
 1533TIP3   OH226089   0.103   6.014  11.032  0.2722 -0.9125  0.4687
 1533TIP3    H126090   0.123   6.070  11.107 -1.0998  1.7506 -1.1163
 1533TIP3    H226091   0.047   5.945  11.069  0.3884 -0.1857  2.0720
 1534TIP3   OH226092   5.963   1.372   1.277 -0.1512  0.6871 -0.1893
 1534TIP3    H126093   5.944   1.398   1.187  1.4936  0.8391 -0.5089
 1534TIP3    H226094   5.971   1.276   1.273 -0.5598  0.6493 -0.1097
 1535TIP3   OH226095   3.919   0.761   0.671 -0.1064 -0.1180 -0.7407
 1535TIP3    H126096   3.923   0.668   0.651 -2.1489 -0.1905 -0.9747
 1535TIP3    H226097   3.976   0.772   0.747  0.5858 -1.4575 -1.0592
 1536TIP3   OH226098   2.861   5.671   0.221 -0.0546  0.1946 -0.1367
 1536TIP3    H126099   2.808   5.662   0.142  0.8916  0.8807 -0.8683
 1536TIP3    H226100   2.883   5.764   0.224  2.0724 -0.2536 -0.5076
 1537TIP3   OH226101   2.902   3.969   5.671 -0.1504 -0.0886 -0.3897
 1537TIP3    H126102   2.867   3.985   5.759 -0.2541 -2.1248 -0.0205
 1537TIP3    H226103   2.995   3.951   5.684  0.0978  0.8579 -0.8442
 1538TIP3   OH226104   3.743   5.189   4.369 -0.5824 -0.0275  0.5956
 1538TIP3    H126105   3.729   5.187   4.274 -0.1079  2.5981  0.4262
 1538TIP3    H226106   3.832   5.157   4.381 -1.0820 -1.5641  0.2732
 1539TIP3   OH226107   4.615   6.455   2.732  0.0669 -0.0391  0.4923
 1539TIP3    H126108   4.694   6.401   2.729 -1.1522 -1.9368  1.6819
 1539TIP3    H226109   4.602   6.484   2.642  0.4369 -2.1968 -0.2783
 1540TIP3   OH226110   0.702   1.716   2.046  0.4554 -0.1571 -0.1121
 1540TIP3    H126111   0.788   1.751   2.072  0.6526 -0.0562 -0.8882
 1540TIP3    H226112   0.723   1.637   1.997  0.1714  0.5200 -1.3556
 1541TIP3   OH226113   5.137   3.224  12.688  0.8434 -1.0610 -0.1432
 1541TIP3    H126114   5.056   3.199  12.643  1.5119 -3.4048 -0.1155
 1541TIP3    H226115   5.119   3.209  12.781  0.7350  0.1222  0.0359
 1542TIP3   OH226116   1.178   0.652   1.656  0.0265 -0.8824  0.3920
 1542TIP3    H126117   1.227   0.597   1.717  1.4431  0.0087  0.0542
 1542TIP3    H226118   1.212   0.740   1.670 -2.5315  0.0341  1.2479
 1543TIP3   OH226119   2.144   2.743   0.910 -0.5097  0.3972  0.1315
 1543TIP3    H126120   2.129   2.729   1.003 -0.1122  0.7100  0.2395
 1543TIP3    H226121   2.231   2.781   0.904 -0.0434 -0.7548 -0.4620
 1544TIP3   OH226122   2.636   3.258  16.965  0.0114 -0.1861  0.1761
 1544TIP3    H126123   2.551   3.286  16.933  0.2928 -0.7919 -1.1146
 1544TIP3    H226124   2.625   3.251  17.060 -1.5757 -1.0237 -0.0614
 1545TIP3   OH226125   4.122   5.695  14.210  0.1171 -0.7836 -0.3083
 1545TIP3    H126126   4.131   5.682  14.305 -2.4465 -0.9904 -0.0667
 1545TIP3    H226127   4.208   5.725  14.182  2.1840 -4.7604  1.3927
 1546TIP3   OH226128   3.871   0.714  12.690  0.1845 -0.0237 -0.0961
 1546TIP3    H126129   3.830   0.660  12.621  1.7109 -2.4885  0.8350
 1546TIP3    H226130   3.813   0.704  12.765 -0.4536  1.0815 -0.4361
 1547TIP3   OH226131   2.468   4.912   2.272  0.2450  0.1491 -0.0735
 1547TIP3    H126132   2.457   4.963   2.191  1.7456  1.2866  0.4117
 1547TIP3    H226133   2.520   4.969   2.329 -1.9256 -0.1042  2.2230
 1548TIP3   OH226134   0.145   5.089   6.431 -0.0061 -0.9180  0.0774
 1548TIP3    H126135   0.129   5.161   6.370  2.4396 -1.0629 -0.8091
 1548TIP3    H226136   0.168   5.015   6.374  0.1477 -1.6555  1.0817
 1549TIP3   OH226137   2.465   6.073   2.688  0.1290 -0.0162 -0.2013
 1549TIP3    H126138   2.390   6.117   2.728  0.2296 -0.3132  0.3255
 1549TIP3    H226139   2.445   5.979   2.695  0.5607 -0.0982 -0.0273
 1550TIP3   OH226140   0.643   5.642   0.745  0.3252  0.2535 -0.2554
 1550TIP3    H126141   0.665   5.563   0.696 -0.2832  0.0751 -0.2482
 1550TIP3    H226142   0.707   5.646   0.816  0.7335  0.0970 -0.6186
 1551TIP3   OH226143   2.878   6.162   0.044  0.4631  0.9200  0.5981
 1551TIP3    H126144   2.819   6.233   0.021  0.2442  0.3373 -0.6811
 1551TIP3    H226145   2.885   6.109  -0.035  0.5432 -0.5444  1.5566
 1552TIP3   OH226146   1.647   2.666   4.222 -0.6210  0.1805 -0.3246
 1552TIP3    H126147   1.647   2.574   4.194  3.1091  0.4770 -1.5861
 1552TIP3    H226148   1.594   2.710   4.156  0.3472 -0.5853 -1.6516
 1553TIP3   OH226149   1.311   6.531  13.750  0.1618 -0.6549  0.0747
 1553TIP3    H126150   1.251   6.599  13.720  0.2128 -0.3680  0.6163
 1553TIP3    H226151   1.254   6.460  13.780  0.1161 -1.0383 -0.9322
 1554TIP3   OH226152   2.257   1.718  11.397 -0.3222 -0.1079 -0.1194
 1554TIP3    H126153   2.226   1.633  11.428 -0.8532  0.6063  1.3931
 1554TIP3    H226154   2.352   1.714  11.407 -0.2261 -0.9661 -1.2519
 1555TIP3   OH226155   1.401   2.013   6.135 -0.6026 -0.0230 -0.3572
 1555TIP3    H126156   1.452   2.050   6.064 -1.2162  0.4875 -0.5411
 1555TIP3    H226157   1.403   2.080   6.204 -0.9339 -0.0381 -0.3286
 1556TIP3   OH226158   1.103   4.909  13.259 -0.2010  0.5383 -0.1474
 1556TIP3    H126159   1.098   4.827  13.307 -2.1757  0.3142 -0.7183
 1556TIP3    H226160   1.165   4.962  13.310 -1.5301 -0.0347  2.1578
 1557TIP3   OH226161   1.715   4.599   1.326 -0.2886  0.5165  0.4435
 1557TIP3    H126162   1.655   4.649   1.382  0.3090  0.6911  0.9361
 1557TIP3    H226163   1.758   4.537   1.385  0.7666  1.0882  0.3054
 1558TIP3   OH226164   2.788   4.642  13.350  0.3461  0.2198 -0.4454
 1558TIP3    H126165   2.729   4.693  13.295 -0.5759  0.7510  1.0334
 1558TIP3    H226166   2.865   4.628  13.295 -0.6904  0.4667 -1.9910
 1559TIP3   OH226167   5.972   4.847  12.815  0.1448 -0.3883  0.1695
 1559TIP3    H126168   5.947   4.915  12.878 -0.3602  1.9262 -2.4175
 1559TIP3    H226169   6.022   4.783  12.867  0.0517  1.6098  2.8205
 1560TIP3   OH226170   1.536   0.647   1.130 -0.0474  0.2775 -0.1124
 1560TIP3    H126171   1.497   0.642   1.218  0.4185  1.1882  0.1552
 1560TIP3    H226172   1.532   0.740   1.108 -0.3233  0.0207 -1.1354
 1561TIP3   OH226173   3.062   0.031   5.884 -0.3770  0.0648  0.3593
 1561TIP3    H126174   3.048   0.052   5.976 -0.8413 -1.0488  0.5455
 1561TIP3    H226175   3.117  -0.047   5.885 -0.4255  0.0152 -0.3113
 1562TIP3   OH226176   4.409   4.788   0.095  0.1889  0.0463  0.3291
 1562TIP3    H126177   4.381   4.723   0.030 -0.3049 -1.0233  1.5825
 1562TIP3    H226178   4.338   4.853   0.094 -1.6548 -1.8492  2.3690
 1563TIP3   OH226179   2.490   5.408   5.013  0.4925 -0.2743  0.0071
 1563TIP3    H126180   2.452   5.373   5.094 -0.8246  1.2610  0.0673
 1563TIP3    H226181   2.500   5.502   5.030 -0.2883  0.1453 -1.8057
 1564TIP3   OH226182   0.285   2.368   4.077  0.3508 -0.2129 -0.2466
 1564TIP3    H126183   0.334   2.450   4.077 -0.5094  0.3124 -0.6987
 1564TIP3    H226184   0.333   2.312   4.016  1.0083 -0.0849  0.1541
 1565TIP3   OH226185   3.113   4.304   5.255 -0.1395 -0.8664  0.5431
 1565TIP3    H126186   3.082   4.222   5.293 -2.0104 -0.6249 -0.4299
 1565TIP3    H226187   3.163   4.345   5.326  0.1399 -2.4487  1.2957
 1566TIP3   OH226188   3.490   6.577  10.733 -0.2835 -0.2985 -0.2781
 1566TIP3    H126189   3.542   6.649  10.768  0.8749 -1.8953  1.4506
 1566TIP3    H226190   3.400   6.609  10.732  0.0447  0.7321  1.6909
 1567TIP3   OH226191   2.250   0.097   4.506 -0.1812 -0.3959  0.1269
 1567TIP3    H126192   2.166   0.054   4.487  0.6085 -0.3263 -4.0749
 1567TIP3    H226193   2.226   0.187   4.527 -1.2280 -0.5099 -0.5069
 1568TIP3   OH226194   0.194   5.102  12.668  0.6078  0.1692  0.7110
 1568TIP3    H126195   0.261   5.063  12.725  0.2152 -1.9649 -0.2190
 1568TIP3    H226196   0.209   5.060  12.583 -1.5679  0.0687  0.3567
 1569TIP3   OH226197   5.677   0.865   5.599 -0.0774 -0.2866  0.0989
 1569TIP3    H126198   5.659   0.910   5.516  1.3330  0.2778  0.0760
 1569TIP3    H226199   5.600   0.882   5.653  0.0438  1.4249 -0.2286
 1570TIP3   OH226200   2.520   5.608   3.779  0.7459 -0.3941 -0.6378
 1570TIP3    H126201   2.544   5.689   3.825 -0.4547  0.1324 -0.9357
 1570TIP3    H226202   2.527   5.541   3.847  0.7396  0.1092 -0.1265
 1571TIP3   OH226203   3.762   5.165   4.880 -0.5902  0.4638 -0.4342
 1571TIP3    H126204   3.810   5.216   4.814  0.0115  0.3819 -0.0707
 1571TIP3    H226205   3.776   5.074   4.855  0.3387  0.4050  0.2743
 1572TIP3   OH226206   1.243   5.789  16.585 -0.6681 -0.3374  0.1829
 1572TIP3    H126207   1.271   5.756  16.500 -1.4519  1.1376 -0.6586
 1572TIP3    H226208   1.241   5.712  16.641 -1.3523 -1.5254 -1.4427
 1573TIP3   OH226209   6.706   1.661   6.711  0.3530 -0.4303 -0.1583
 1573TIP3    H126210   6.747   1.600   6.772 -1.3486  0.7546  2.2711
 1573TIP3    H226211   6.634   1.612   6.671  1.8819 -1.4122 -1.7416
 1574TIP3   OH226212   1.969   0.538  12.892  0.5307 -0.5838  0.3569
 1574TIP3    H126213   2.051   0.582  12.913  0.6889 -0.1713 -1.0962
 1574TIP3    H226214   1.926   0.526  12.977  2.0227 -0.6870  1.1152
 1575TIP3   OH226215   2.414   2.392   3.339 -0.3204  0.1584  0.1092
 1575TIP3    H126216   2.373   2.306   3.330 -1.5894  0.7855 -0.3759
 1575TIP3    H226217   2.370   2.432   3.414 -0.4415  0.7539 -0.2706
 1576TIP3   OH226218   6.030   4.954   0.045 -0.0740 -0.0291  0.1263
 1576TIP3    H126219   6.018   4.967  -0.049 -0.5053  1.0663  0.3259
 1576TIP3    H226220   5.960   4.894   0.070 -0.4947  0.3663 -0.0960
 1577TIP3   OH226221   6.235   3.690  15.856  0.2065  0.0933  0.3095
 1577TIP3    H126222   6.308   3.750  15.845  0.3169 -0.2774 -1.0931
 1577TIP3    H226223   6.192   3.688  15.770 -1.0001 -0.2686  0.9039
 1578TIP3   OH226224   5.267   1.531   2.842 -0.1918  0.0773  0.1215
 1578TIP3    H126225   5.296   1.619   2.866  1.1439 -0.4925  0.6428
 1578TIP3    H226226   5.171   1.538   2.838 -0.0311  1.8931 -1.2775
 1579TIP3   OH226227   2.431   6.345   0.516  0.1731 -0.0944  0.2404
 1579TIP3    H126228   2.390   6.395   0.446  0.6160  0.1161  0.1267
 1579TIP3    H226229   2.383   6.369   0.595  1.3408  1.6730  0.4419
 1580TIP3   OH226230   6.492   1.120  15.696  0.2871 -0.2792 -0.0784
 1580TIP3    H126231   6.489   1.031  15.660  0.9807 -0.5729  0.5783
 1580TIP3    H226232   6.567   1.119  15.755  1.1732  1.1561 -1.1706
 1581TIP3   OH226233   0.280   1.554   1.994 -0.3198 -0.1363  0.3102
 1581TIP3    H126234   0.187   1.577   1.984 -0.2154  0.3513  0.4324
 1581TIP3    H226235   0.284   1.461   1.973 -0.8754 -0.2131  0.5316
 1582TIP3   OH226236   0.975   0.097   5.462 -0.2549 -0.9018 -0.4968
 1582TIP3    H126237   1.059   0.053   5.450  0.6626  0.4115  0.9127
 1582TIP3    H226238   0.910   0.028   5.447  1.0973 -2.2268 -0.4371
 1583TIP3   OH226239   2.773   3.460   0.843  0.3844 -0.8244  0.4200
 1583TIP3    H126240   2.817   3.546   0.847 -0.5321 -0.3666  0.8036
 1583TIP3    H226241   2.801   3.423   0.759  0.1437  0.2015 -0.1242
 1584TIP3   OH226242   3.935   1.525   4.559  0.4421 -0.6580  0.0966
 1584TIP3    H126243   3.903   1.611   4.533 -0.6212 -1.0619  0.0664
 1584TIP3    H226244   3.977   1.541   4.644 -1.0690 -0.3572  0.8179
 1585TIP3   OH226245   6.784   6.436  15.921  0.2230  0.1175 -0.7617
 1585TIP3    H126246   6.693   6.442  15.948  0.6360 -0.7435  0.9506
 1585TIP3    H226247   6.782   6.382  15.841 -0.7315 -0.2248 -0.5167
 1586TIP3   OH226248   2.119   4.300  15.965 -0.0678  0.0112 -0.1687
 1586TIP3    H126249   2.073   4.262  16.040  0.9795  1.2717  1.1471
 1586TIP3    H226250   2.101   4.394  15.971  0.5975  0.2053 -1.0957
 1587TIP3   OH226251   6.314   0.142   5.279 -0.2156  0.3533 -0.4809
 1587TIP3    H126252   6.238   0.096   5.245 -0.8443  0.6159  0.5327
 1587TIP3    H226253   6.281   0.229   5.303  0.1911  0.1717  0.7804
 1588TIP3   OH226254   5.907   0.705   0.173  0.3262  0.2411 -0.1396
 1588TIP3    H126255   5.880   0.620   0.209  0.9762  0.3296  0.5714
 1588TIP3    H226256   5.997   0.691   0.143  0.4961  0.7237  0.1472
 1589TIP3   OH226257   5.529   1.316  15.568 -0.2854  0.2583  0.2351
 1589TIP3    H126258   5.624   1.304  15.581 -0.3715 -0.8475 -0.0330
 1589TIP3    H226259   5.519   1.318  15.473 -0.3228  2.3265  0.2666
 1590TIP3   OH226260   2.934   1.948  11.200  0.2066  0.2828 -0.4694
 1590TIP3    H126261   2.994   1.894  11.148 -1.1644 -0.5084 -1.2827
 1590TIP3    H226262   2.925   2.029  11.150 -0.6603 -0.2496 -1.2063
 1591TIP3   OH226263   0.315   2.087   5.335  0.0658  0.0172 -0.1294
 1591TIP3    H126264   0.374   2.159   5.358  1.4813 -1.2072  0.1826
 1591TIP3    H226265   0.340   2.063   5.246 -0.7698  0.2591 -0.4314
 1592TIP3   OH226266   3.451   3.504   4.830  0.2606 -0.0176  0.0312
 1592TIP3    H126267   3.511   3.500   4.903  1.3637 -0.3926 -0.8786
 1592TIP3    H226268   3.369   3.469   4.864  0.6554  0.1385  1.1662
 1593TIP3   OH226269   0.817   3.437  15.911  0.3265 -0.0996 -0.2334
 1593TIP3    H126270   0.882   3.490  15.865 -1.0282  4.0128  2.2664
 1593TIP3    H226271   0.862   3.407  15.990  0.3662 -0.5789 -0.4397
 1594TIP3   OH226272   2.391   6.370  12.952 -0.1764 -0.0739 -0.1425
 1594TIP3    H126273   2.381   6.395  13.044 -3.2585 -0.5405 -0.2955
 1594TIP3    H226274   2.349   6.284  12.947  0.5649 -0.3440 -1.8608
 1595TIP3   OH226275   2.296   0.160  13.877  0.9336 -0.0329  0.4203
 1595TIP3    H126276   2.322   0.207  13.957  0.4109 -0.4159  0.8214
 1595TIP3    H226277   2.302   0.226  13.808  0.7458  0.4854  0.8839
 1596TIP3   OH226278   3.538   6.048   1.375  0.0209  0.4170 -0.0699
 1596TIP3    H126279   3.473   6.028   1.443 -0.7397  0.7163 -0.7061
 1596TIP3    H226280   3.605   6.098   1.421 -1.1718  1.8118  0.1865
 1597TIP3   OH226281   3.224   6.395   4.722  0.1156 -0.0846  0.2076
 1597TIP3    H126282   3.271   6.414   4.641  0.7615 -1.7444  0.1743
 1597TIP3    H226283   3.133   6.420   4.704  0.6117  1.3311 -0.3760
 1598TIP3   OH226284   5.936   6.277   6.627 -0.1884 -0.4984 -0.2830
 1598TIP3    H126285   6.013   6.248   6.577  2.4831  3.2112  1.3857
 1598TIP3    H226286   5.960   6.259   6.718 -1.7868 -0.3365  0.1726
 1599TIP3   OH226287   2.370   1.043   1.966  0.1816 -0.5126 -0.4968
 1599TIP3    H126288   2.274   1.046   1.964  0.1718  1.1010  1.0203
 1599TIP3    H226289   2.397   1.135   1.965  1.6134 -0.8414  2.4127
 1600TIP3   OH226290   2.987   1.983   0.067  0.1046 -0.6172  0.2603
 1600TIP3    H126291   3.033   1.999  -0.016 -0.4773 -0.9216 -0.1227
 1600TIP3    H226292   2.977   1.888   0.071 -2.7531 -0.4150 -0.9008
 1601TIP3   OH226293   4.364   5.909   5.114  0.3219  0.6737 -0.1662
 1601TIP3    H126294   4.459   5.903   5.120  0.2182 -0.7367  0.0991
 1601TIP3    H226295   4.335   5.819   5.098 -0.8506  1.3125 -1.8392
 1602TIP3   OH226296   2.646   6.502   3.583 -0.0101  0.1605 -0.6137
 1602TIP3    H126297   2.711   6.563   3.547 -1.1853  1.2051 -1.0201
 1602TIP3    H226298   2.692   6.419   3.591  0.4757  0.0930 -3.8280
 1603TIP3   OH226299   4.310   6.183   1.686  0.0715 -0.9136  0.3523
 1603TIP3    H126300   4.354   6.135   1.616 -0.4310 -1.1637  0.1992
 1603TIP3    H226301   4.377   6.239   1.724  0.7673 -2.0316  0.8013
 1604TIP3   OH226302   6.492   2.257  14.197  0.2498  0.1603 -0.5724
 1604TIP3    H126303   6.570   2.211  14.229 -0.0844 -0.5790 -0.8038
 1604TIP3    H226304   6.426   2.188  14.188  0.5005  0.2494 -3.4310
 1605TIP3   OH226305   3.468   4.628  14.920  0.1558 -0.0569 -0.3682
 1605TIP3    H126306   3.396   4.588  14.872  0.3288 -3.8004  2.2528
 1605TIP3    H226307   3.425   4.673  14.994  0.3914 -1.1824  0.4624
 1606TIP3   OH226308   3.394   6.266  11.522  0.1356  0.1347  1.0614
 1606TIP3    H126309   3.429   6.294  11.437 -0.2192 -1.0519  0.5196
 1606TIP3    H226310   3.299   6.268  11.511  0.0045  2.2752  2.1918
 1607TIP3   OH226311   0.165   0.380  15.873 -0.2035 -0.1717  0.5231
 1607TIP3    H126312   0.186   0.308  15.933  0.5958 -0.7747 -0.4474
 1607TIP3    H226313   0.071   0.393  15.883 -0.0932 -0.3151  1.8399
 1608TIP3   OH226314   2.340   3.292   4.688  0.0852  0.0112  0.5379
 1608TIP3    H126315   2.245   3.288   4.679  0.1341 -0.6572  0.3348
 1608TIP3    H226316   2.367   3.202   4.705  0.9712 -0.2982 -2.2681
 1609TIP3   OH226317   3.692   3.403   1.016 -0.5305  0.3789 -0.3879
 1609TIP3    H126318   3.601   3.433   1.015 -0.4556  0.6125 -0.4414
 1609TIP3    H226319   3.726   3.429   0.930 -0.1641  1.0823 -0.0391
 1610TIP3   OH226320   2.925   0.645   1.552  0.0016 -0.0798 -0.0797
 1610TIP3    H126321   2.907   0.567   1.499 -3.4507  0.1649  0.6048
 1610TIP3    H226322   2.900   0.719   1.496  1.8516  0.4925 -0.1866
 1611TIP3   OH226323   2.835   0.461   4.684 -0.0770  0.7958  0.7106
 1611TIP3    H126324   2.780   0.416   4.748 -1.8961  1.9114 -0.0254
 1611TIP3    H226325   2.855   0.394   4.618  0.1301  0.1726  1.4029
 1612TIP3   OH226326   6.287   5.813  12.356  0.4555  0.2658  0.3381
 1612TIP3    H126327   6.252   5.779  12.273  0.5007  0.1520  0.3651
 1612TIP3    H226328   6.267   5.906  12.354 -1.2819 -0.0636  1.0593
 1613TIP3   OH226329   2.581   2.817   2.692 -0.1013 -0.1710  0.1492
 1613TIP3    H126330   2.511   2.758   2.719 -0.7773  0.1136 -0.9342
 1613TIP3    H226331   2.563   2.899   2.740  0.7046 -0.7432  1.4706
 1614TIP3   OH226332   5.155   2.792  15.211  0.6327  0.3125 -0.5088
 1614TIP3    H126333   5.240   2.754  15.188  0.3503 -0.3880 -0.3793
 1614TIP3    H226334   5.112   2.726  15.264  0.2983  0.9639  0.0376
 1615TIP3   OH226335   3.948   5.330   1.227 -0.2872  0.1762 -0.0318
 1615TIP3    H126336   3.947   5.321   1.322  1.4068  2.6075  0.2565
 1615TIP3    H226337   3.986   5.247   1.195 -2.5039 -1.3865  1.2528
 1616TIP3   OH226338   3.479   1.861  11.131 -0.1965 -0.5405  0.4303
 1616TIP3    H126339   3.400   1.812  11.153 -0.5039 -0.3533 -0.2179
 1616TIP3    H226340   3.451   1.919  11.059  0.5715 -0.5859  0.0947
 1617TIP3   OH226341   1.661   2.316   6.074 -0.5890  0.1573 -0.1889
 1617TIP3    H126342   1.619   2.237   6.040 -0.8002  0.0851  0.2262
 1617TIP3    H226343   1.615   2.334   6.156  0.6004 -0.2842  0.6038
 1618TIP3   OH226344   2.121   3.984   4.743  0.5858 -0.2326  0.5070
 1618TIP3    H126345   2.209   3.969   4.778  1.0003 -1.0483 -0.8666
 1618TIP3    H226346   2.111   3.917   4.675 -0.3583  1.1053 -0.6797
 1619TIP3   OH226347   2.673   0.397  10.728  0.1367 -0.3459  0.3762
 1619TIP3    H126348   2.759   0.409  10.769 -0.5671  0.5890  1.6319
 1619TIP3    H226349   2.671   0.304  10.704  1.9973 -0.1090 -0.8689
 1620TIP3   OH226350   3.854   3.989   5.957  0.2940  0.6226  0.2157
 1620TIP3    H126351   3.806   3.985   6.040  0.9952 -1.1619  0.5595
 1620TIP3    H226352   3.934   4.038   5.978  0.0153  1.0317  0.3420
 1621TIP3   OH226353   4.547   3.173   1.700 -0.2020  0.3031  0.4999
 1621TIP3    H126354   4.534   3.122   1.620 -0.6060 -1.3836  1.6116
 1621TIP3    H226355   4.640   3.164   1.719  0.0453  1.3199 -0.1614
 1622TIP3   OH226356   6.367   0.625  15.017 -0.5935  0.0439 -0.5252
 1622TIP3    H126357   6.400   0.666  14.938  0.9208  0.0508  0.0982
 1622TIP3    H226358   6.401   0.536  15.014 -0.3461  0.1092  0.2189
 1623TIP3   OH226359   6.695   5.368  11.620  0.1110 -0.9567 -0.3090
 1623TIP3    H126360   6.737   5.320  11.548 -1.0586  0.2423 -1.8512
 1623TIP3    H226361   6.661   5.448  11.578 -0.0386  0.0727  1.7176
 1624TIP3   OH226362   1.482   4.545   1.652  0.0172 -0.5648  0.5149
 1624TIP3    H126363   1.482   4.483   1.579  0.8607 -0.7977  0.7116
 1624TIP3    H226364   1.420   4.508   1.715 -0.3844 -0.5892  0.1045
 1625TIP3   OH226365   0.986   1.474   5.440  0.5487 -0.1708  0.2170
 1625TIP3    H126366   1.003   1.567   5.447 -0.0618 -0.1779  1.9146
 1625TIP3    H226367   0.971   1.445   5.530 -0.2458 -1.7040 -0.3905
 1626TIP3   OH226368   1.724   1.488   4.429  0.0913  0.1806  0.6023
 1626TIP3    H126369   1.646   1.542   4.433  0.7564  1.1162  1.0880
 1626TIP3    H226370   1.750   1.475   4.520 -0.0247 -0.8934  0.4840
 1627TIP3   OH226371   6.363   6.612   1.758 -0.3652  0.1008 -0.6548
 1627TIP3    H126372   6.273   6.644   1.768 -0.3503  0.3176 -1.1807
 1627TIP3    H226373   6.382   6.622   1.664  0.4285  0.6664 -0.4407
 1628TIP3   OH226374   6.476   3.413   1.645  0.5365 -0.0672  0.8215
 1628TIP3    H126375   6.456   3.319   1.648 -3.6988  0.5730 -2.4419
 1628TIP3    H226376   6.537   3.423   1.573  0.1225 -0.1978  0.4519
 1629TIP3   OH226377   6.618   4.534  16.320  0.2825  0.0843  0.6256
 1629TIP3    H126378   6.573   4.525  16.404 -0.2209 -0.9832  0.2459
 1629TIP3    H226379   6.578   4.611  16.279 -0.8535 -0.5721  0.5054
 1630TIP3   OH226380   0.915   0.133  13.799 -0.4082 -0.0127 -0.1449
 1630TIP3    H126381   0.973   0.141  13.875 -0.0224  0.9260 -0.5232
 1630TIP3    H226382   0.971   0.156  13.724 -0.8785 -0.5659 -0.6755
 1631TIP3   OH226383   6.481   3.802  15.816 -0.0553 -0.2098 -0.4322
 1631TIP3    H126384   6.516   3.714  15.824  0.7830  0.1394 -0.1985
 1631TIP3    H226385   6.523   3.839  15.739  1.4790  0.8349  0.8740
 1632TIP3   OH226386   5.228   5.040  14.507 -0.3314  0.0801 -0.3947
 1632TIP3    H126387   5.272   4.983  14.570 -0.3709  1.3835  0.8355
 1632TIP3    H226388   5.228   4.990  14.425  1.2519 -0.9348  0.2001
 1633TIP3   OH226389   0.668   5.415  16.863  0.0697  0.0995 -0.1009
 1633TIP3    H126390   0.584   5.424  16.818 -0.6192 -0.3747  1.0639
 1633TIP3    H226391   0.651   5.352  16.933  1.7261 -1.0186 -0.6508
 1634TIP3   OH226392   6.104   2.170  16.877 -0.1111 -0.1635  0.3886
 1634TIP3    H126393   6.048   2.240  16.843  0.9328  1.6985  2.4171
 1634TIP3    H226394   6.050   2.125  16.942 -0.8376 -1.4033 -1.0286
 1635TIP3   OH226395   2.777   1.432  13.376 -0.3148  0.4779 -0.4206
 1635TIP3    H126396   2.806   1.426  13.466 -1.3705 -0.5746 -0.1360
 1635TIP3    H226397   2.770   1.526  13.358 -1.6155  0.6865  1.0938
 1636TIP3   OH226398   0.007   1.308   2.406  0.1635  0.0459  0.0770
 1636TIP3    H126399  -0.036   1.391   2.427  0.5027  0.5598 -1.2216
 1636TIP3    H226400  -0.060   1.258   2.358 -0.2230 -0.6677  1.3198
 1637TIP3   OH226401   1.871   6.287  12.396 -0.3669 -0.0126  0.3817
 1637TIP3    H126402   1.905   6.301  12.308  3.7974 -1.3827  1.6599
 1637TIP3    H226403   1.869   6.374  12.436 -2.0710  0.5826 -0.9282
 1638TIP3   OH226404   0.967   3.684  14.543 -0.0119 -0.6952 -0.3785
 1638TIP3    H126405   1.014   3.730  14.473  0.7275  0.5871  0.9314
 1638TIP3    H226406   1.015   3.602  14.553  1.7374  0.4147  0.6496
 1639TIP3   OH226407   3.117   6.409  13.368 -0.4469 -0.4216  0.7739
 1639TIP3    H126408   3.199   6.392  13.415  0.4649 -1.4215 -1.1321
 1639TIP3    H226409   3.070   6.326  13.373 -0.5992 -0.3541  0.4583
 1640TIP3   OH226410   3.112   4.501  15.730 -0.1754 -0.2714  0.3029
 1640TIP3    H126411   3.148   4.589  15.737  0.0664 -0.4888  2.2228
 1640TIP3    H226412   3.161   4.450  15.794 -1.2744 -1.4721  0.2232
 1641TIP3   OH226413   3.176   1.511   2.549 -0.5094  0.0493 -0.4846
 1641TIP3    H126414   3.188   1.604   2.568 -0.6028 -0.6468  3.4581
 1641TIP3    H226415   3.223   1.466   2.619 -1.3192 -2.8607 -1.7375
 1642TIP3   OH226416   0.207   4.323   4.226 -0.1622  0.1061 -0.1031
 1642TIP3    H126417   0.290   4.366   4.247 -0.8255  1.2750  0.1642
 1642TIP3    H226418   0.216   4.296   4.135  0.4691  0.3373 -0.1077
 1643TIP3   OH226419   2.770   4.327   1.181 -0.4452 -0.4817  0.2116
 1643TIP3    H126420   2.710   4.370   1.120  0.9748  0.5303 -0.4985
 1643TIP3    H226421   2.776   4.237   1.149 -1.4380 -0.5545  0.1970
 1644TIP3   OH226422   5.792   3.188   1.371  0.5788 -0.5433 -0.6542
 1644TIP3    H126423   5.867   3.237   1.337  0.3364 -0.7941 -1.5611
 1644TIP3    H226424   5.829   3.102   1.394  0.5719 -0.6482 -1.0463
 1645TIP3   OH226425   0.597   1.320  16.091  0.6348 -0.2916 -0.3610
 1645TIP3    H126426   0.510   1.285  16.070 -0.0860  0.4571  1.2784
 1645TIP3    H226427   0.630   1.264  16.161 -1.1635  3.0062  3.3620
 1646TIP3   OH226428   6.701   3.934   3.388 -0.0182 -0.0964  0.0096
 1646TIP3    H126429   6.661   3.915   3.473  0.8566 -0.6901  0.2863
 1646TIP3    H226430   6.793   3.947   3.407  0.3072 -0.9529 -0.9656
 1647TIP3   OH226431   2.513   1.673  12.339  0.6493  0.1482 -0.2282
 1647TIP3    H126432   2.440   1.665  12.400  1.6506 -1.2023  0.8500
 1647TIP3    H226433   2.482   1.633  12.258 -0.3240  0.9825 -0.2655
 1648TIP3   OH226434   1.803   1.144   3.109 -0.5634 -0.2729 -0.2425
 1648TIP3    H126435   1.797   1.195   3.190 -2.0842 -0.2103 -0.3878
 1648TIP3    H226436   1.896   1.121   3.102  0.2594  2.9760 -0.4884
 1649TIP3   OH226437   3.715   5.780   0.926 -0.4387  0.2381 -0.5157
 1649TIP3    H126438   3.674   5.793   1.011 -1.7934 -0.5486 -1.0259
 1649TIP3    H226439   3.647   5.806   0.863  0.6151  1.0246 -1.3586
 1650TIP3   OH226440   2.485   0.862   4.153  0.0398  0.0592 -0.5647
 1650TIP3    H126441   2.519   0.823   4.234 -0.7835  0.9953  0.2432
 1650TIP3    H226442   2.560   0.863   4.094  0.4954 -1.1859 -0.0214
 1651TIP3   OH226443   1.399   6.381   5.311 -0.8844 -0.4217  0.5892
 1651TIP3    H126444   1.365   6.347   5.393 -1.4923 -1.4495 -0.0801
 1651TIP3    H226445   1.487   6.413   5.333 -0.9895 -0.8153  1.6040
 1652TIP3   OH226446   1.287   3.199  11.425 -0.0921 -0.5209 -0.2427
 1652TIP3    H126447   1.365   3.164  11.469 -0.3041 -1.6197 -0.7218
 1652TIP3    H226448   1.233   3.233  11.495  2.1916  3.1256 -0.1015
 1653TIP3   OH226449   6.067   0.067   4.437  0.0906 -0.3930  0.0954
 1653TIP3    H126450   6.054   0.076   4.343 -3.4965 -1.4394  0.3959
 1653TIP3    H226451   6.050  -0.025   4.455 -0.4802  0.0451  1.9295
 1654TIP3   OH226452   0.560   3.401   1.791 -0.3494  0.5393  0.4939
 1654TIP3    H126453   0.604   3.364   1.715 -0.7216 -1.1642  1.0841
 1654TIP3    H226454   0.610   3.481   1.811 -0.7429  1.4544 -1.9972
 1655TIP3   OH226455   5.071   4.509   3.250 -0.1831 -0.8357  0.0791
 1655TIP3    H126456   5.166   4.503   3.241 -0.0793  1.8048 -0.9176
 1655TIP3    H226457   5.043   4.566   3.178 -2.3575 -0.4217  1.1891
 1656TIP3   OH226458   0.279   4.034   1.249 -0.8415  0.2451 -0.0641
 1656TIP3    H126459   0.212   3.995   1.193 -1.2095 -0.6726  1.0001
 1656TIP3    H226460   0.361   3.997   1.218 -0.5994  2.4989 -2.3593
 1657TIP3   OH226461   0.243   5.458  11.448 -0.0067 -0.1102 -0.1422
 1657TIP3    H126462   0.170   5.445  11.508 -1.2381 -0.9064 -1.7944
 1657TIP3    H226463   0.287   5.537  11.481 -1.4014  0.1952  1.0464
 1658TIP3   OH226464   2.690   1.812   1.088 -0.0180 -0.6409 -0.7216
 1658TIP3    H126465   2.726   1.794   1.001  0.5144 -0.7007 -0.4945
 1658TIP3    H226466   2.687   1.727   1.132 -0.4444 -0.6347 -0.7459
 1659TIP3   OH226467   2.703   4.961   5.550 -0.2465 -0.2684 -0.0977
 1659TIP3    H126468   2.758   5.038   5.565 -0.5079 -0.3072  1.1658
 1659TIP3    H226469   2.642   4.988   5.481 -1.2754  1.1717  1.3319
 1660TIP3   OH226470   3.716   6.651   4.451  0.2974 -0.6644 -0.3915
 1660TIP3    H126471   3.738   6.740   4.424 -0.7083 -0.5395 -0.8347
 1660TIP3    H226472   3.727   6.651   4.546  0.7601 -0.2011 -0.4432
 1661TIP3   OH226473   2.552   0.322   2.450 -0.3326  0.6018  0.2893
 1661TIP3    H126474   2.555   0.362   2.537 -1.3639  2.6086 -0.5436
 1661TIP3    H226475   2.459   0.300   2.438 -0.3571  1.2109 -0.6657
 1662TIP3   OH226476   0.417   5.421   5.233 -0.0468 -0.1167  0.0819
 1662TIP3    H126477   0.408   5.496   5.174  0.1853  0.1068  0.3297
 1662TIP3    H226478   0.425   5.460   5.320 -0.2038 -0.4409  0.2417
 1663TIP3   OH226479   3.822   0.350  16.954 -0.0119  0.4148  0.5217
 1663TIP3    H126480   3.857   0.328  16.868  0.5959 -1.4625  1.2218
 1663TIP3    H226481   3.770   0.428  16.940  1.6678  1.2599 -1.2015
 1664TIP3   OH226482   1.628   4.660  16.447 -0.2935 -0.1241  1.3296
 1664TIP3    H126483   1.682   4.648  16.525  1.4428  0.1200  0.1717
 1664TIP3    H226484   1.658   4.593  16.386 -1.1220  0.1850  0.5659
 1665TIP3   OH226485   2.879   4.585  11.865 -0.1614 -0.1386  0.5258
 1665TIP3    H126486   2.869   4.522  11.793  2.4523  0.1406 -0.1201
 1665TIP3    H226487   2.959   4.633  11.844  0.6666 -0.0576  3.6619
 1666TIP3   OH226488   1.491   3.476  12.521  0.0210 -0.1657 -0.1243
 1666TIP3    H126489   1.494   3.420  12.444 -0.3198  0.2279 -0.4214
 1666TIP3    H226490   1.411   3.527  12.511  0.2929  0.3240  0.1848
 1667TIP3   OH226491   6.410   4.636   4.837  0.2363 -0.5888  0.0972
 1667TIP3    H126492   6.498   4.603   4.853 -0.0626 -1.2959  0.3261
 1667TIP3    H226493   6.400   4.710   4.896  0.6676 -0.5228  0.0844
 1668TIP3   OH226494   1.185   0.820   4.501 -0.5840 -0.7125 -0.2208
 1668TIP3    H126495   1.196   0.874   4.423  0.0273  1.0984  1.0996
 1668TIP3    H226496   1.127   0.871   4.558 -1.1110 -2.0619  0.4784
 1669TIP3   OH226497   4.190   0.653   0.269  0.3328 -0.6290 -0.3157
 1669TIP3    H126498   4.177   0.558   0.269 -0.4030 -0.5511  1.3329
 1669TIP3    H226499   4.284   0.664   0.285  0.2982 -1.0727  0.2157
 1670TIP3   OH226500   3.471   2.340  12.673 -0.5950  0.2797 -0.1135
 1670TIP3    H126501   3.466   2.428  12.710  0.0613 -0.2625  1.2874
 1670TIP3    H226502   3.499   2.353  12.583 -1.4158  1.5631 -0.1972
 1671TIP3   OH226503   2.046   3.263   0.058 -0.6457  0.2806  0.3551
 1671TIP3    H126504   2.119   3.293   0.112 -1.8086 -0.0600  2.1927
 1671TIP3    H226505   1.979   3.331   0.069 -1.3955 -0.4536  0.4184
 1672TIP3   OH226506   1.452   0.083   4.481  0.1220 -0.3119 -0.9509
 1672TIP3    H126507   1.360   0.072   4.505  0.3553 -1.7155 -0.6099
 1672TIP3    H226508   1.500   0.052   4.558  0.8714  0.2559 -1.1945
 1673TIP3   OH226509   4.808   3.428  16.503  0.0115  0.6847  0.1592
 1673TIP3    H126510   4.815   3.345  16.550  1.6333  1.4694  1.3384
 1673TIP3    H226511   4.870   3.420  16.430 -0.5722  0.4858 -0.3221
 1674TIP3   OH226512   3.860   3.145  10.701  0.8000 -0.5387  0.1265
 1674TIP3    H126513   3.867   3.082  10.772  1.7149 -1.5340 -0.8307
 1674TIP3    H226514   3.847   3.229  10.745 -2.5323 -1.6264  1.3614
 1675TIP3   OH226515   3.629   0.979  16.355  0.6328 -0.2183  0.2684
 1675TIP3    H126516   3.578   0.931  16.290 -1.9057  0.5143  1.6662
 1675TIP3    H226517   3.571   1.048  16.385  3.7127  2.9186 -0.6486
 1676TIP3   OH226518   3.511   2.745   0.602 -0.5917  0.0365 -0.1848
 1676TIP3    H126519   3.476   2.773   0.518 -0.7659  0.1435 -0.0765
 1676TIP3    H226520   3.539   2.827   0.644 -0.5599 -0.0113 -0.1125
 1677TIP3   OH226521   6.139   1.758  14.493  0.0946  0.5213  0.0202
 1677TIP3    H126522   6.153   1.745  14.587  1.1553  0.1270 -0.1827
 1677TIP3    H226523   6.067   1.699  14.471  1.2604 -0.9984  0.1729
 1678TIP3   OH226524   0.414   4.040  11.778  0.2790 -0.4156 -0.1304
 1678TIP3    H126525   0.364   3.973  11.732 -1.2106 -0.5123  1.5507
 1678TIP3    H226526   0.478   3.991  11.830  0.2464 -0.4421 -0.1152
 1679TIP3   OH226527   3.211   3.870  15.084 -0.0119  0.8802  0.3367
 1679TIP3    H126528   3.260   3.808  15.139  0.9731  0.4006 -1.0485
 1679TIP3    H226529   3.250   3.860  14.997 -2.3532  0.7475 -0.7260
 1680TIP3   OH226530   2.090   2.466  17.154  0.5500  0.2675 -0.2830
 1680TIP3    H126531   2.002   2.428  17.160  1.3677 -1.6278  0.0959
 1680TIP3    H226532   2.082   2.533  17.087 -0.9237 -0.7124 -1.1278
 1681TIP3   OH226533   1.701   0.786  12.509 -0.1771  0.0547 -0.3456
 1681TIP3    H126534   1.734   0.795  12.598  0.5813 -0.5841 -0.5552
 1681TIP3    H226535   1.703   0.874  12.473  0.3410  0.1757 -0.0185
 1682TIP3   OH226536   3.715   5.232   1.044 -0.1600  0.0145  0.2683
 1682TIP3    H126537   3.702   5.316   1.000  1.7000  0.3739  0.3528
 1682TIP3    H226538   3.776   5.252   1.116 -0.4377 -1.2290  0.8615
 1683TIP3   OH226539   4.777   3.175  15.881 -0.3416 -0.3174 -0.0784
 1683TIP3    H126540   4.822   3.142  15.958 -0.7037 -1.9061 -0.5312
 1683TIP3    H226541   4.837   3.240  15.845  0.3200 -0.3611  0.9208
 1684TIP3   OH226542   2.982   3.256  12.111 -0.6978  0.0837 -0.3186
 1684TIP3    H126543   2.962   3.344  12.145 -0.0317 -0.5037  1.6623
 1684TIP3    H226544   3.072   3.263  12.080 -0.7054  0.1523 -0.3260
 1685TIP3   OH226545   6.431   5.630   4.148 -0.2474 -0.7954  1.4359
 1685TIP3    H126546   6.384   5.606   4.068  0.6671 -1.0409  0.9685
 1685TIP3    H226547   6.441   5.548   4.195  0.0926 -0.8138  1.3314
 1686TIP3   OH226548   2.939   2.457  11.122 -0.2024 -0.0100  0.5579
 1686TIP3    H126549   2.859   2.470  11.072 -0.4374  0.3278  1.0282
 1686TIP3    H226550   3.005   2.435  11.055 -0.5762  0.1643  0.1268
 1687TIP3   OH226551   1.276   3.428   5.572  0.2633 -0.0649 -0.3458
 1687TIP3    H126552   1.237   3.498   5.519  0.1944 -0.2382 -0.5278
 1687TIP3    H226553   1.253   3.450   5.662 -0.8809 -0.5492 -0.5124
 1688TIP3   OH226554   6.377   4.136  14.266  0.3746 -0.3919  0.1604
 1688TIP3    H126555   6.330   4.188  14.201 -1.3388 -1.1287  0.7738
 1688TIP3    H226556   6.450   4.192  14.294  0.8162  0.1517 -1.9513
 1689TIP3   OH226557   4.310   5.898  16.153 -0.3632 -0.0110 -0.0953
 1689TIP3    H126558   4.347   5.879  16.239 -0.6069  1.4878  0.3508
 1689TIP3    H226559   4.262   5.819  16.130  0.2730 -0.6780  0.8484
 1690TIP3   OH226560   3.921   3.475   0.640  0.2199 -0.0738  0.3604
 1690TIP3    H126561   3.887   3.507   0.557  1.4253  1.7511  0.5461
 1690TIP3    H226562   3.995   3.419   0.614  0.8750  0.8472  0.1998
 1691TIP3   OH226563   1.703   2.369  14.130  0.7240 -0.4427 -0.1028
 1691TIP3    H126564   1.714   2.307  14.057 -0.9528 -0.1761 -0.6068
 1691TIP3    H226565   1.787   2.414  14.136  1.5411 -1.8671 -0.5700
 1692TIP3   OH226566   2.365   1.820  14.026  0.1768  0.4155 -0.3659
 1692TIP3    H126567   2.292   1.879  14.005  2.0767  3.0082  0.0086
 1692TIP3    H226568   2.371   1.762  13.950  0.1721  2.7224 -2.1907
 1693TIP3   OH226569   0.803   5.594  14.053 -0.4897 -0.4332  0.2085
 1693TIP3    H126570   0.716   5.588  14.013  0.2740  0.6178 -1.7371
 1693TIP3    H226571   0.787   5.626  14.141 -2.1227 -0.8850  0.0901
 1694TIP3   OH226572   3.521   0.133  14.386 -0.3173 -0.0246 -0.0180
 1694TIP3    H126573   3.445   0.188  14.406  1.0754  2.6889 -1.9075
 1694TIP3    H226574   3.483   0.050  14.358 -2.5565  0.8026  0.4192
 1695TIP3   OH226575   5.176   0.818  12.381  0.3352  0.2536  0.4051
 1695TIP3    H126576   5.242   0.883  12.355  0.9721  0.8649  3.3167
 1695TIP3    H226577   5.165   0.832  12.475 -2.0394 -1.6225  0.4562
 1696TIP3   OH226578   3.320   5.580  11.365  0.4544  0.6601  0.6007
 1696TIP3    H126579   3.401   5.626  11.344 -0.1206  1.1148 -0.6950
 1696TIP3    H226580   3.293   5.616  11.450  1.5823  0.5414  1.0036
 1697TIP3   OH226581   1.619   5.046  16.883 -0.0592 -0.2201  0.1910
 1697TIP3    H126582   1.679   5.111  16.848  0.3541 -0.3350  0.6734
 1697TIP3    H226583   1.676   4.975  16.913 -0.2955  0.5188  2.4535
 1698TIP3   OH226584   3.049   2.198   5.683 -0.0953  0.0531  0.2335
 1698TIP3    H126585   3.066   2.220   5.775 -1.4553  1.6760  0.1122
 1698TIP3    H226586   2.955   2.209   5.672  0.2166  0.9779 -1.6402
 1699TIP3   OH226587   0.258   0.284   0.009  0.3963  0.1815  0.2484
 1699TIP3    H126588   0.217   0.219   0.066 -0.0135 -0.9298 -1.2663
 1699TIP3    H226589   0.212   0.366   0.028 -0.6373 -0.4578  0.5671
 1700TIP3   OH226590   1.893   0.754   5.107 -0.3622  0.1898 -0.4019
 1700TIP3    H126591   1.947   0.803   5.045  0.2511  1.4572  1.1130
 1700TIP3    H226592   1.910   0.662   5.085  3.6473  0.5092  1.0401
 1701TIP3   OH226593   0.170   4.764  14.222 -0.3083  0.2669 -0.0567
 1701TIP3    H126594   0.196   4.834  14.162 -0.5821  0.7041  0.3337
 1701TIP3    H226595   0.158   4.688  14.166 -1.8854  1.0053 -0.7365
 1702TIP3   OH226596   6.387   1.389  12.883  0.0355  0.1693  0.0142
 1702TIP3    H126597   6.353   1.398  12.972 -1.5340 -0.2820 -0.5157
 1702TIP3    H226598   6.459   1.451  12.878 -0.6282  1.0556  1.2343
 1703TIP3   OH226599   1.096   0.327   5.942 -0.2958 -0.3839 -0.5481
 1703TIP3    H126600   1.060   0.274   6.013 -0.0687 -0.7935 -0.7345
 1703TIP3    H226601   1.059   0.288   5.862 -2.1356  1.3166 -0.5436
 1704TIP3   OH226602   5.577   6.746   0.633  0.2620 -0.0578 -0.5428
 1704TIP3    H126603   5.665   6.738   0.670  0.9384  0.6347 -1.9233
 1704TIP3    H226604   5.518   6.730   0.706  1.5408  0.0595  0.5350
 1705TIP3   OH226605   2.152   3.640   6.307  0.0021  0.1621  0.1623
 1705TIP3    H126606   2.199   3.586   6.370  0.1232  0.0328 -0.0391
 1705TIP3    H226607   2.060   3.622   6.324  0.0508 -0.5700 -0.3077
 1706TIP3   OH226608   1.287   3.442  13.907 -0.2871  0.1796 -0.5585
 1706TIP3    H126609   1.243   3.407  13.829 -1.5342 -0.0822  0.2564
 1706TIP3    H226610   1.363   3.385  13.920 -0.6015 -0.3450 -1.0180
 1707TIP3   OH226611   1.767   3.935  13.504 -0.1358  0.4684 -1.0668
 1707TIP3    H126612   1.794   3.882  13.578 -0.2209  1.4857 -0.3030
 1707TIP3    H226613   1.724   4.012  13.543 -2.1018 -0.0074 -2.1921
 1708TIP3   OH226614   3.160   2.898   5.405  0.2972  0.1809  0.3206
 1708TIP3    H126615   3.256   2.902   5.410  0.2554  2.1145 -0.1588
 1708TIP3    H226616   3.141   2.911   5.312 -0.4157 -0.6670  0.3447
 1709TIP3   OH226617   0.267   5.389  12.961 -0.0578  0.2279 -0.7054
 1709TIP3    H126618   0.270   5.485  12.965 -0.2582  0.2232 -0.4212
 1709TIP3    H226619   0.210   5.364  13.034 -1.6185 -0.0205 -1.9832
 1710TIP3   OH226620   0.940   0.730  15.946 -0.1452 -0.3745 -0.0474
 1710TIP3    H126621   1.016   0.774  15.985 -2.0006  1.6818  1.3449
 1710TIP3    H226622   0.897   0.798  15.894 -0.9971 -1.5506 -0.9151
 1711TIP3   OH226623   4.075   3.906  14.976  0.3080 -0.3074  0.1744
 1711TIP3    H126624   4.032   3.822  14.958 -2.0372  0.4045  2.1915
 1711TIP3    H226625   4.150   3.883  15.030 -1.2318 -0.9807  2.0646
 1712TIP3   OH226626   5.920   1.673   2.471 -0.4822  0.3336  0.0091
 1712TIP3    H126627   5.894   1.633   2.553 -0.1090 -0.7358 -0.3800
 1712TIP3    H226628   5.949   1.761   2.495 -2.9539  0.9971  0.6326
 1713TIP3   OH226629   0.167   1.640   4.748 -0.4408  0.4102  0.1384
 1713TIP3    H126630   0.255   1.666   4.719 -1.2901  1.0535 -1.9955
 1713TIP3    H226631   0.113   1.648   4.669 -2.2849 -0.6222  1.2636
 1714TIP3   OH226632   4.822   0.285   4.239  0.0716  0.0359  0.3342
 1714TIP3    H126633   4.861   0.282   4.326  0.7437  0.6624  0.0638
 1714TIP3    H226634   4.860   0.211   4.192 -0.1423 -0.1843  0.5038
 1715TIP3   OH226635   1.231   0.253  16.803  0.2482  0.0526  0.1722
 1715TIP3    H126636   1.297   0.235  16.735  1.9504  0.1566  1.7481
 1715TIP3    H226637   1.243   0.345  16.824  0.0365 -0.0862  0.9138
 1716TIP3   OH226638   3.654   1.632  16.885  0.1784 -0.4830  0.0383
 1716TIP3    H126639   3.647   1.726  16.900  0.3243 -0.5396  0.4507
 1716TIP3    H226640   3.566   1.606  16.858 -0.0217 -0.3431  0.5510
 1717TIP3   OH226641   0.261   4.946   3.564 -0.4051  0.3775 -0.1078
 1717TIP3    H126642   0.206   4.930   3.641 -1.4401  0.2096 -0.8589
 1717TIP3    H226643   0.198   4.968   3.495  0.5315  0.8143 -0.8265
 1718TIP3   OH226644   2.577   3.357  13.608  0.3571 -0.1119  0.1029
 1718TIP3    H126645   2.498   3.303  13.603 -0.3915  1.0037 -0.3164
 1718TIP3    H226646   2.649   3.297  13.591 -0.5672 -0.7110 -1.7475
 1719TIP3   OH226647   0.389   3.255   0.773  0.1811  0.3516 -0.4161
 1719TIP3    H126648   0.424   3.305   0.699 -0.1988 -0.9731 -1.5169
 1719TIP3    H226649   0.295   3.271   0.770  0.0452 -0.5089 -0.8391
 1720TIP3   OH226650   1.726   1.996   3.349 -0.3911  0.4916  0.1493
 1720TIP3    H126651   1.781   2.070   3.323 -0.4897  1.1174  1.6462
 1720TIP3    H226652   1.666   1.984   3.276  2.4762 -0.9922 -2.0517
 1721TIP3   OH226653   2.901   5.141   2.045  0.3541  0.5226 -0.0066
 1721TIP3    H126654   2.833   5.192   2.089 -0.2758 -2.8258  3.1803
 1721TIP3    H226655   2.866   5.124   1.958 -1.9764  0.5683  0.8964
 1722TIP3   OH226656   4.704   3.787   4.749  0.4391  0.3873 -0.3844
 1722TIP3    H126657   4.676   3.707   4.704 -2.0206  0.9311  0.1188
 1722TIP3    H226658   4.626   3.842   4.749  1.5344  1.9473  1.1385
 1723TIP3   OH226659   4.849   1.132  11.522  0.6158 -0.0652  0.3505
 1723TIP3    H126660   4.867   1.094  11.436  0.5860  0.7208 -0.0101
 1723TIP3    H226661   4.874   1.064  11.584  0.2426 -0.8000 -0.2907
 1724TIP3   OH226662   6.029   3.384  12.168 -0.4048  0.0290  0.7014
 1724TIP3    H126663   6.013   3.472  12.200 -0.1452  0.2265  0.3027
 1724TIP3    H226664   6.014   3.327  12.243 -0.7612  0.3986  0.9096
 1725TIP3   OH226665   1.742   6.335  12.790  0.0886  0.7217 -0.1343
 1725TIP3    H126666   1.720   6.326  12.883 -1.1381  1.3128 -0.3576
 1725TIP3    H226667   1.667   6.382  12.752 -0.6316 -1.7911 -1.9302
 1726TIP3   OH226668   6.161   3.103  12.461  0.3135  0.2212 -0.2499
 1726TIP3    H126669   6.240   3.083  12.411  0.4903  0.6763 -0.1551
 1726TIP3    H226670   6.165   3.045  12.537 -0.3387 -1.0127 -1.1461
 1727TIP3   OH226671   1.534   5.490   2.600  0.3190  0.2376  0.0785
 1727TIP3    H126672   1.628   5.491   2.617  0.2883  1.1298  0.1975
 1727TIP3    H226673   1.508   5.582   2.600 -0.0962  0.1612 -2.5606
 1728TIP3   OH226674   0.918   6.685  16.496 -0.5474  0.0666  0.2630
 1728TIP3    H126675   0.887   6.680  16.587 -1.7610  0.2779 -0.1281
 1728TIP3    H226676   1.003   6.729  16.502 -1.0604  0.9552  1.2112
 1729TIP3   OH226677   1.248   6.241   2.562  0.2701  0.0641 -0.1169
 1729TIP3    H126678   1.282   6.249   2.473  0.0905 -2.6323 -0.4814
 1729TIP3    H226679   1.154   6.226   2.551  0.7566 -3.6692  0.3066
 1730TIP3   OH226680   5.945   2.520  16.371  0.4834  0.8252 -0.2850
 1730TIP3    H126681   5.906   2.446  16.324 -1.7554  1.7593  0.0375
 1730TIP3    H226682   5.991   2.569  16.303 -0.1276  0.4931 -0.9439
 1731TIP3   OH226683   6.195   1.414  16.189  0.1606 -0.3932 -0.2676
 1731TIP3    H126684   6.234   1.351  16.251  0.6404  2.6606  2.6932
 1731TIP3    H226685   6.115   1.371  16.158 -0.6161 -1.6644  3.2706
 1732TIP3   OH226686   3.026   2.700  15.578  0.0027  0.4438  0.3247
 1732TIP3    H126687   3.044   2.790  15.552 -0.2068  0.1353 -0.9221
 1732TIP3    H226688   3.080   2.686  15.655  0.4591  1.4626  0.1967
 1733TIP3   OH226689   0.802   6.383  17.174 -0.3687  0.3450  0.1028
 1733TIP3    H126690   0.885   6.379  17.128  0.7929 -2.2986  2.2698
 1733TIP3    H226691   0.740   6.338  17.117 -0.0087  1.1279 -0.9076
 1734TIP3   OH226692   4.342   3.871  15.074  0.2267 -0.1435 -0.0754
 1734TIP3    H126693   4.352   3.862  14.979  1.5232  1.5655 -0.1306
 1734TIP3    H226694   4.432   3.867  15.108 -0.1334  0.3548  0.9629
 1735TIP3   OH226695   4.629   4.550   6.381  0.0595 -0.5165  0.3747
 1735TIP3    H126696   4.677   4.467   6.377  1.1426  0.0282  1.4777
 1735TIP3    H226697   4.697   4.617   6.368 -0.6251  0.2257  0.6198
 1736TIP3   OH226698   1.561   2.410   1.534 -0.3582 -0.4423  0.7890
 1736TIP3    H126699   1.620   2.456   1.593  1.6440 -0.5753 -1.0557
 1736TIP3    H226700   1.499   2.366   1.592  0.9875  0.1865  2.7487
 1737TIP3   OH226701   6.102   3.326  16.326 -0.1397 -0.4759 -0.3034
 1737TIP3    H126702   6.053   3.279  16.259 -0.7659 -0.6905  0.3001
 1737TIP3    H226703   6.037   3.384  16.367 -0.0264 -1.1864  0.8949
 1738TIP3   OH226704   4.656   0.205  11.589 -0.4888  0.1992  0.5768
 1738TIP3    H126705   4.725   0.157  11.635 -0.4225  1.1911  1.5202
 1738TIP3    H226706   4.684   0.297  11.592 -1.6726  0.5665  0.6416
 1739TIP3   OH226707   2.724   0.013   3.361 -0.4732  0.3302 -0.1130
 1739TIP3    H126708   2.735  -0.011   3.453  1.6665  0.2711 -0.3545
 1739TIP3    H226709   2.747  -0.067   3.313  2.7350  1.6035 -0.8027
 1740TIP3   OH226710   3.672   1.451   5.941 -0.0203  0.0746 -0.1914
 1740TIP3    H126711   3.672   1.544   5.965  0.3792  0.9762 -3.4822
 1740TIP3    H226712   3.756   1.418   5.971 -0.0241  0.8583  0.6952
 1741TIP3   OH226713   4.933   1.652   1.462 -0.5063 -0.3147 -0.0873
 1741TIP3    H126714   4.951   1.615   1.376 -0.0486 -0.1539 -0.0612
 1741TIP3    H226715   5.006   1.624   1.517  0.1933  1.1518 -0.2334
 1742TIP3   OH226716   2.484   4.502  14.641 -0.0119  0.2707 -0.4886
 1742TIP3    H126717   2.443   4.561  14.577  1.0029  1.1343 -0.3562
 1742TIP3    H226718   2.463   4.414  14.609  2.7143  0.6378 -3.5027
 1743TIP3   OH226719   0.338   2.944   3.516  0.4605 -0.0813  0.1149
 1743TIP3    H126720   0.318   3.036   3.533  0.9051 -0.0068  0.2329
 1743TIP3    H226721   0.379   2.913   3.597 -0.4555 -0.6039  0.3860
 1744TIP3   OH226722   6.628   1.697   3.925  0.3185  0.3056  0.1257
 1744TIP3    H126723   6.682   1.776   3.921  1.2266 -0.4167 -3.5847
 1744TIP3    H226724   6.684   1.627   3.892 -0.6538 -1.8703  2.8203
 1745TIP3   OH226725   5.952   2.279  12.893 -0.3114  0.5100 -0.1395
 1745TIP3    H126726   5.994   2.195  12.871  1.6530  1.6807 -0.9585
 1745TIP3    H226727   5.992   2.304  12.976 -2.7118 -0.5348  1.3864
 1746TIP3   OH226728   3.225   3.673  14.635  0.2146  0.1852  0.0010
 1746TIP3    H126729   3.217   3.630  14.550 -1.4242 -0.2654  0.3692
 1746TIP3    H226730   3.250   3.603  14.695  0.2321  0.2881  0.1149
 1747TIP3   OH226731   0.405   6.740   5.610  0.2789 -0.3265 -0.6468
 1747TIP3    H126732   0.405   6.704   5.699  0.0630  1.7264  0.2158
 1747TIP3    H226733   0.314   6.766   5.595  0.5378  0.3968 -1.0047
 1748TIP3   OH226734   5.636   0.294   5.106 -0.1506 -0.1022 -0.8026
 1748TIP3    H126735   5.677   0.209   5.119  0.8964  0.1570 -2.2455
 1748TIP3    H226736   5.610   0.294   5.013  1.1489  1.6764 -1.2057
 1749TIP3   OH226737   1.005   0.153   1.706  0.1184  0.4887 -0.0924
 1749TIP3    H126738   1.069   0.214   1.668 -1.8685  2.3226 -0.6264
 1749TIP3    H226739   0.941   0.140   1.636  0.7510 -2.6275 -0.1444
 1750TIP3   OH226740   3.234   6.611   1.951  0.0371  0.3206 -0.2554
 1750TIP3    H126741   3.205   6.636   2.038  1.1585  1.6472 -0.2360
 1750TIP3    H226742   3.154   6.585   1.905 -0.6146  0.0410  1.0149
 1751TIP3   OH226743   0.668   0.939  12.296 -0.0387 -0.1195  0.5467
 1751TIP3    H126744   0.605   0.975  12.233 -0.1395  0.1769  0.8156
 1751TIP3    H226745   0.619   0.932  12.378 -0.2353 -1.5769  0.3189
 1752TIP3   OH226746   5.718   5.330  14.127  0.5948  0.2775  0.0196
 1752TIP3    H126747   5.707   5.262  14.061  0.0056  2.5419 -2.3135
 1752TIP3    H226748   5.747   5.284  14.205  0.5212 -2.5860 -1.5876
 1753TIP3   OH226749   0.483   2.992   5.782  0.2450  1.1481 -0.0532
 1753TIP3    H126750   0.418   2.931   5.748  1.7490  1.2218 -3.2728
 1753TIP3    H226751   0.492   2.970   5.874 -2.5278 -0.4760 -0.1456
 1754TIP3   OH226752   5.717   2.742  13.376  0.4758  0.7003 -0.2284
 1754TIP3    H126753   5.790   2.710  13.429  0.2831 -0.6816 -0.7716
 1754TIP3    H226754   5.653   2.774  13.440 -0.4756 -2.4988  0.5097
 1755TIP3   OH226755   2.256   5.258  13.217 -0.0494 -0.2157  0.3841
 1755TIP3    H126756   2.203   5.199  13.163 -0.3006 -0.8475  1.3089
 1755TIP3    H226757   2.261   5.215  13.302  2.0614 -0.2327  0.2853
 1756TIP3   OH226758   3.895   5.663   0.122  0.4622  0.2227 -0.1130
 1756TIP3    H126759   3.987   5.639   0.114 -0.3939 -3.4301  0.0669
 1756TIP3    H226760   3.888   5.706   0.208  2.1902  1.7367 -0.7077
 1757TIP3   OH226761   4.146   2.956   4.936  0.2271 -0.2585 -0.0229
 1757TIP3    H126762   4.155   2.903   5.015  0.5110 -1.6206 -0.9655
 1757TIP3    H226763   4.233   2.958   4.897  0.2359  0.9616  0.0375
 1758TIP3   OH226764   6.669   0.230  14.130 -0.2726 -0.0178 -0.3356
 1758TIP3    H126765   6.620   0.304  14.165 -0.1066 -0.3570  0.6195
 1758TIP3    H226766   6.700   0.260  14.044  1.1397  1.6027  0.7208
 1759TIP3   OH226767   4.376   0.727  10.908  0.3391  0.1861  0.0194
 1759TIP3    H126768   4.447   0.752  10.849 -0.8502 -1.5930 -2.2320
 1759TIP3    H226769   4.339   0.810  10.937  1.7485  1.1007 -0.7260
 1760TIP3   OH226770   4.048   0.505   2.636 -0.0606  0.3168 -0.4896
 1760TIP3    H126771   4.063   0.457   2.718  1.2880  1.1959 -0.1969
 1760TIP3    H226772   4.051   0.597   2.662  0.2359  0.6021 -1.5063
 1761TIP3   OH226773   4.350   1.717  12.612  0.1546 -0.3166 -0.4637
 1761TIP3    H126774   4.407   1.641  12.603  0.9354  0.0463  1.2331
 1761TIP3    H226775   4.276   1.687  12.665 -0.0707 -0.1842 -0.7019
 1762TIP3   OH226776   4.565   0.909  16.041 -0.1345  0.5406  0.4586
 1762TIP3    H126777   4.492   0.847  16.040  0.3153  0.0164 -1.2732
 1762TIP3    H226778   4.541   0.975  15.976  1.0377  0.2436 -0.2864
 1763TIP3   OH226779   5.220   5.244  14.878  0.1798  0.0809 -0.2559
 1763TIP3    H126780   5.297   5.262  14.825 -0.6763  1.5800 -1.0283
 1763TIP3    H226781   5.154   5.215  14.815 -0.6385  1.2030  0.0682
 1764TIP3   OH226782   0.109   6.006  12.560 -0.2337  0.2842  0.5125
 1764TIP3    H126783   0.089   5.954  12.638 -3.0905  0.7226  0.1504
 1764TIP3    H226784   0.067   5.958  12.489 -0.9056  1.8612 -0.1758
 1765TIP3   OH226785   1.603   3.926  14.176  0.5881 -0.5107 -0.7363
 1765TIP3    H126786   1.534   3.961  14.232  1.5345 -0.0688  0.1754
 1765TIP3    H226787   1.608   3.833  14.200  1.3196 -0.2225  0.2919
 1766TIP3   OH226788   0.942   2.996  15.866 -0.2109 -0.2908  0.7028
 1766TIP3    H126789   1.035   3.016  15.855 -0.3729  1.1413  1.8398
 1766TIP3    H226790   0.916   2.957  15.782  0.3818  3.3655 -1.2755
 1767TIP3   OH226791   5.841   4.411   1.493  0.6428  0.1756  0.0120
 1767TIP3    H126792   5.794   4.328   1.495  1.1534 -0.1062  0.6311
 1767TIP3    H226793   5.926   4.391   1.532  2.0675  0.1877 -2.9270
 1768TIP3   OH226794   6.638   4.279   3.336  0.0766 -0.6330  0.3637
 1768TIP3    H126795   6.587   4.209   3.375  0.3767 -1.2429 -0.3369
 1768TIP3    H226796   6.678   4.240   3.259 -1.0872  0.7647 -0.9767
 1769TIP3   OH226797   3.995   3.850  12.101 -0.4155  0.4275  0.4609
 1769TIP3    H126798   4.013   3.884  12.013 -1.0184  0.4517  0.3439
 1769TIP3    H226799   4.069   3.794  12.121 -0.0861  0.7303  0.0913
 1770TIP3   OH226800   5.320   3.917   0.711  0.1976 -0.5549  0.0223
 1770TIP3    H126801   5.390   3.980   0.729  0.3817 -0.2266 -1.8080
 1770TIP3    H226802   5.364   3.841   0.673 -0.6343  0.4876 -3.1223
 1771TIP3   OH226803   1.257   3.106  13.729 -0.2715  0.2190 -0.5455
 1771TIP3    H126804   1.253   3.050  13.807 -0.9483  0.7775 -0.1736
 1771TIP3    H226805   1.328   3.168  13.748  0.8234 -0.8324 -1.1785
 1772TIP3   OH226806   0.053   0.265   1.008  0.0958 -0.1872  0.8240
 1772TIP3    H126807   0.080   0.214   1.084  1.2717 -0.4977  0.2095
 1772TIP3    H226808   0.029   0.199   0.942 -1.1568  0.0773  0.9914
 1773TIP3   OH226809   2.273   6.171  17.141  0.2749  0.2799  0.1463
 1773TIP3    H126810   2.220   6.214  17.208 -0.2870  0.4577 -0.3982
 1773TIP3    H226811   2.252   6.078  17.150  4.1584 -0.3786  3.6652
 1774TIP3   OH226812   0.062   5.168  17.260  0.3313  0.0841  0.0669
 1774TIP3    H126813   0.088   5.100  17.321  1.1458 -1.0982 -1.5748
 1774TIP3    H226814   0.041   5.122  17.179 -0.6727  1.6256 -0.5837
 1775TIP3   OH226815   6.685   3.489   1.811  0.0834 -0.9034 -0.2801
 1775TIP3    H126816   6.750   3.481   1.741 -0.2540  2.3954 -1.0570
 1775TIP3    H226817   6.603   3.462   1.771  0.4373 -2.0424 -0.2348
 1776TIP3   OH226818   4.671   2.335   3.802  0.3726 -0.1184 -0.5395
 1776TIP3    H126819   4.626   2.354   3.720  0.4910  0.3504 -0.4986
 1776TIP3    H226820   4.605   2.293   3.857 -0.3355  1.5159 -0.0893
 1777TIP3   OH226821   0.595   4.127   2.711 -0.4370  0.0675 -0.3106
 1777TIP3    H126822   0.657   4.068   2.754 -0.2705  0.7679  0.4290
 1777TIP3    H226823   0.512   4.081   2.713 -0.0708 -0.6187 -0.7547
 1778TIP3   OH226824   1.781   3.529   3.408 -0.0572  0.3691  0.4242
 1778TIP3    H126825   1.719   3.488   3.467 -0.7387 -1.4615 -1.4836
 1778TIP3    H226826   1.850   3.463   3.396  0.8272  1.2972  0.3765
 1779TIP3   OH226827   3.996   4.255  11.833 -0.2094 -0.8572 -0.4872
 1779TIP3    H126828   3.914   4.282  11.875 -0.2283 -1.0022 -0.4292
 1779TIP3    H226829   4.048   4.335  11.829 -0.1739 -0.8589 -0.1108
 1780TIP3   OH226830   6.427   3.145   1.106 -0.2309 -0.3413 -0.2925
 1780TIP3    H126831   6.431   3.050   1.100 -1.8693 -0.5527  1.6497
 1780TIP3    H226832   6.377   3.172   1.029  1.0222 -0.9583 -1.3434
 1781TIP3   OH226833   3.455   3.143   3.242 -0.2018 -0.4543  0.5448
 1781TIP3    H126834   3.386   3.102   3.190 -0.8075  0.3265  0.7243
 1781TIP3    H226835   3.455   3.234   3.214  1.0223 -0.5284  0.2651
 1782TIP3   OH226836   2.761   4.243   0.281 -0.3600  0.6594 -0.0672
 1782TIP3    H126837   2.736   4.276   0.367 -0.4531 -0.9821  0.5508
 1782TIP3    H226838   2.695   4.177   0.260  1.6883 -1.5545  0.2424
 1783TIP3   OH226839   0.825   2.282   4.286 -0.1286  0.0176  0.4459
 1783TIP3    H126840   0.842   2.202   4.235 -0.8285  0.0108  0.2232
 1783TIP3    H226841   0.808   2.250   4.375  1.9310  0.0860  0.8974
 1784TIP3   OH226842   4.086   3.508   4.188 -0.4105 -0.0619  0.5863
 1784TIP3    H126843   3.991   3.504   4.176 -0.5310  0.4014  1.3401
 1784TIP3    H226844   4.121   3.456   4.116 -1.1968  0.5240 -0.2358
 1785TIP3   OH226845   6.397   0.189  15.324  0.2570  0.6845  0.8041
 1785TIP3    H126846   6.414   0.241  15.402 -2.1388 -0.3531  2.0613
 1785TIP3    H226847   6.305   0.163  15.331  0.4193 -0.7355 -1.5726
 1786TIP3   OH226848   4.273   4.333   2.763  0.7270  0.8126  0.3590
 1786TIP3    H126849   4.248   4.302   2.849  0.2902 -0.1660 -0.1097
 1786TIP3    H226850   4.245   4.264   2.703 -0.0686  2.0225 -0.6903
 1787TIP3   OH226851   3.940   4.573   3.320  0.0503 -0.4263 -0.1882
 1787TIP3    H126852   3.956   4.494   3.371 -1.6533 -0.6513  0.0183
 1787TIP3    H226853   3.889   4.629   3.378 -1.3376 -0.4182 -1.3826
 1788TIP3   OH226854   2.375   1.281  15.736  0.0458 -0.7497 -0.7058
 1788TIP3    H126855   2.459   1.326  15.732 -1.1773  1.8517  1.4537
 1788TIP3    H226856   2.396   1.191  15.759  2.3123 -0.4370 -1.4909
 1789TIP3   OH226857   4.140   2.345   0.043 -0.3879 -0.0492  0.4203
 1789TIP3    H126858   4.090   2.371   0.120 -1.7024 -0.4584 -0.2772
 1789TIP3    H226859   4.149   2.426  -0.008 -2.1807 -0.3750 -0.4613
 1790TIP3   OH226860   1.826   5.814  12.679  0.4181  0.5885  0.1018
 1790TIP3    H126861   1.860   5.887  12.731  0.6942 -0.5572  1.5888
 1790TIP3    H226862   1.898   5.788  12.622  0.9187  0.3455  0.8386
 1791TIP3   OH226863   1.715   2.569  13.020  0.1750 -0.0227  0.2243
 1791TIP3    H126864   1.810   2.555  13.011  0.1969  1.5038 -3.0046
 1791TIP3    H226865   1.696   2.639  12.956 -2.8651  0.8355  1.9809
 1792TIP3   OH226866   3.345   2.769  14.549  0.3657 -0.2886  0.6466
 1792TIP3    H126867   3.395   2.850  14.548 -0.0669 -0.0170  0.9122
 1792TIP3    H226868   3.377   2.722  14.627 -0.0414  0.0417  1.0146
 1793TIP3   OH226869   1.943   1.341   0.044 -0.0835  0.1714  0.4971
 1793TIP3    H126870   1.976   1.428   0.023 -1.2169  0.6999  0.8324
 1793TIP3    H226871   1.900   1.312  -0.037 -0.3805  0.2569  0.6200
 1794TIP3   OH226872   1.255   1.731  11.831  0.8182 -0.4122 -0.1941
 1794TIP3    H126873   1.317   1.793  11.795 -0.1362  0.8711  0.3412
 1794TIP3    H226874   1.215   1.776  11.906 -0.3570 -1.4024 -0.1952
 1795TIP3   OH226875   2.801   5.942   3.149  0.0254  0.0104 -0.3346
 1795TIP3    H126876   2.865   5.915   3.215 -2.2223 -1.9335  1.1619
 1795TIP3    H226877   2.718   5.907   3.181 -1.8184  2.4792 -2.1797
 1796TIP3   OH226878   0.298   5.146   1.146 -0.0306  0.6619 -0.1275
 1796TIP3    H126879   0.227   5.207   1.164 -1.4779 -1.4112  1.5251
 1796TIP3    H226880   0.345   5.139   1.230  0.2068 -0.3389 -0.3372
 1797TIP3   OH226881   0.062   2.605  12.360 -0.3797  0.1311  0.2504
 1797TIP3    H126882   0.157   2.612  12.361 -0.3071 -0.8678  0.9888
 1797TIP3    H226883   0.036   2.630  12.271  0.6617 -0.7821 -0.3151
 1798TIP3   OH226884   5.219   5.298   3.178 -0.1006  0.1268 -0.5896
 1798TIP3    H126885   5.215   5.203   3.180 -1.0510  0.1670  0.0359
 1798TIP3    H226886   5.164   5.323   3.104 -1.9335  0.2624  0.7712
 1799TIP3   OH226887   3.044   4.095  14.316 -0.3305  0.0356  0.2218
 1799TIP3    H126888   3.005   4.015  14.280 -1.3450  0.7214 -0.2173
 1799TIP3    H226889   2.975   4.160  14.309  1.0016  1.3648 -0.9125
 1800TIP3   OH226890   5.176   3.998  15.091 -0.5757 -0.2644  0.0894
 1800TIP3    H126891   5.135   4.016  15.006 -0.1748 -0.0945 -0.0705
 1800TIP3    H226892   5.223   4.078  15.112 -0.3443 -0.4516  0.2797
 1801TIP3   OH226893   1.445   4.735   2.331  0.0405  0.6251 -0.2621
 1801TIP3    H126894   1.443   4.734   2.236  0.7457  2.2508 -0.3039
 1801TIP3    H226895   1.452   4.828   2.355 -1.9164  0.3807  1.4048
 1802TIP3   OH226896   2.336   1.020   3.937  0.2766  0.2080  0.1835
 1802TIP3    H126897   2.386   0.972   4.003 -0.3791  0.1427  0.6329
 1802TIP3    H226898   2.260   1.055   3.984 -0.4846 -0.3018 -0.6366
 1803TIP3   OH226899   4.328   1.969  16.001  0.1724 -0.1192  0.8367
 1803TIP3    H126900   4.235   1.988  16.012 -0.3042 -1.9780  0.2043
 1803TIP3    H226901   4.345   1.898  16.061  1.2101  0.2437  0.9759
 1804TIP3   OH226902   2.808   5.749  16.084 -0.1248  0.0195 -0.7705
 1804TIP3    H126903   2.716   5.725  16.095 -0.3166  0.8345 -0.6002
 1804TIP3    H226904   2.828   5.727  15.993 -0.5868  0.1950 -0.9127
 1805TIP3   OH226905   4.979   2.591   2.163  0.3782 -0.2861 -0.3021
 1805TIP3    H126906   5.044   2.650   2.124  1.0780 -0.2419  0.9079
 1805TIP3    H226907   4.980   2.612   2.256 -0.1966 -1.4196 -0.0258
 1806TIP3   OH226908   4.364   6.765   1.898  0.2135  0.1206 -0.0010
 1806TIP3    H126909   4.318   6.700   1.845 -1.7209 -0.8630  2.7142
 1806TIP3    H226910   4.312   6.845   1.888  0.5902  0.2861 -0.6140
 1807TIP3   OH226911   3.429   2.058  10.948  0.4512  0.0977 -0.8220
 1807TIP3    H126912   3.338   2.082  10.936  0.4035 -0.0303 -0.7150
 1807TIP3    H226913   3.474   2.097  10.873  0.4585  0.9409 -0.3868
 1808TIP3   OH226914   6.543   4.207  17.262 -0.0866 -0.6537 -0.0820
 1808TIP3    H126915   6.513   4.148  17.331  1.4457 -0.8038  0.4798
 1808TIP3    H226916   6.526   4.294  17.296 -1.5277 -0.7376 -0.5376
 1809TIP3   OH226917   4.706   1.159  14.084 -0.4151  0.4774  0.4829
 1809TIP3    H126918   4.715   1.064  14.080 -1.2928  0.3037  2.1658
 1809TIP3    H226919   4.792   1.190  14.114 -0.0859  0.2301 -0.1996
 1810TIP3   OH226920   3.511   0.766  13.401  0.3096 -0.3017  0.1589
 1810TIP3    H126921   3.463   0.695  13.443 -2.3552 -0.0247 -2.2730
 1810TIP3    H226922   3.478   0.845  13.443  2.5823 -0.3678  2.1911
 1811TIP3   OH226923   2.348   4.886  12.233 -0.1675 -0.0638 -0.4314
 1811TIP3    H126924   2.363   4.942  12.157  2.8235 -1.4324 -0.9168
 1811TIP3    H226925   2.365   4.797  12.201  1.0566 -0.6680  1.7824
 1812TIP3   OH226926   6.538   6.766  15.305  0.9190 -0.5830  0.4014
 1812TIP3    H126927   6.544   6.748  15.211  3.6884 -1.3486  0.6889
 1812TIP3    H226928   6.494   6.851  15.311 -0.7519 -1.2786 -1.4989
 1813TIP3   OH226929   1.329   5.007   5.006  0.0410 -0.3662 -0.2930
 1813TIP3    H126930   1.247   5.055   5.020  0.3128  0.4159 -1.3208
 1813TIP3    H226931   1.397   5.075   5.005  0.6542 -0.9603  0.0450
 1814TIP3   OH226932   5.858   4.810  16.662 -0.2498  0.0155 -0.3921
 1814TIP3    H126933   5.893   4.893  16.629 -1.1692 -0.4417 -2.6594
 1814TIP3    H226934   5.932   4.767  16.704  1.0294  0.5899 -2.0112
 1815TIP3   OH226935   2.380   1.036   4.969 -0.0362  0.3096 -0.4079
 1815TIP3    H126936   2.475   1.028   4.974 -0.2141 -1.5192  0.5096
 1815TIP3    H226937   2.362   1.044   4.876  1.0140  0.7390 -0.5857
 1816TIP3   OH226938   0.591   3.018   2.663  0.3652 -0.0956 -0.2169
 1816TIP3    H126939   0.637   2.954   2.607 -0.0257 -1.0477  0.5366
 1816TIP3    H226940   0.498   3.000   2.648  0.2529 -0.8480  1.2781
 1817TIP3   OH226941   2.623   0.328   4.792 -0.0834 -0.1370 -0.4613
 1817TIP3    H126942   2.650   0.324   4.884  0.7566  0.4597 -0.6645
 1817TIP3    H226943   2.540   0.375   4.794  0.8117  1.4777 -0.1564
 1818TIP3   OH226944   1.150   1.185  13.841  0.6289 -0.0235 -0.6367
 1818TIP3    H126945   1.242   1.209  13.834  1.0366 -1.4871 -0.4135
 1818TIP3    H226946   1.109   1.224  13.764  1.4163  0.7334 -0.6749
 1819TIP3   OH226947   3.805   6.440  15.892 -0.1631 -0.5874 -0.6014
 1819TIP3    H126948   3.762   6.525  15.893 -1.5896 -1.2966  0.8619
 1819TIP3    H226949   3.822   6.423  15.799 -2.6186 -0.0559 -1.1788
 1820TIP3   OH226950   0.951   1.641  13.955  0.7643 -0.2832  0.0986
 1820TIP3    H126951   0.916   1.693  14.027  0.4166  0.6443 -0.7352
 1820TIP3    H226952   1.019   1.586  13.995  1.4216  1.1103  0.9015
 1821TIP3   OH226953   2.090   1.997  16.296  0.2444 -0.1520  0.1341
 1821TIP3    H126954   2.003   1.996  16.337  0.3014 -0.6412  0.2420
 1821TIP3    H226955   2.142   2.054  16.352  0.0707 -0.0804  0.2242
 1822TIP3   OH226956   2.687   0.928  15.200  0.3021  0.3559 -0.7082
 1822TIP3    H126957   2.609   0.922  15.255  0.0160 -2.6431 -1.3311
 1822TIP3    H226958   2.652   0.939  15.111  0.6061 -0.0358 -0.8784
 1823TIP3   OH226959   2.897   4.444   5.145 -0.1841 -0.5137 -0.1004
 1823TIP3    H126960   2.825   4.417   5.201  1.0767 -1.8193  0.9470
 1823TIP3    H226961   2.976   4.422   5.195  1.0027 -2.6279 -2.7622
 1824TIP3   OH226962   2.628   2.056   0.131  0.2180 -0.0389  0.0980
 1824TIP3    H126963   2.702   2.009   0.169  1.4364 -0.1548 -2.3526
 1824TIP3    H226964   2.608   2.010   0.050 -1.4895  0.9866 -0.0997
 1825TIP3   OH226965   4.260   2.413  16.420 -0.1765  0.0149  0.2206
 1825TIP3    H126966   4.247   2.384  16.330 -1.3051  0.2082  0.3197
 1825TIP3    H226967   4.204   2.490  16.430 -0.9672 -0.6982  1.4407
 1826TIP3   OH226968   2.426   5.128   5.716 -0.6317 -0.2882 -0.2455
 1826TIP3    H126969   2.411   5.200   5.655 -2.1908  0.0303  0.4968
 1826TIP3    H226970   2.400   5.049   5.667 -2.1573 -0.0047  0.0845
 1827TIP3   OH226971   2.384   3.728   3.864  0.3884  0.0644  0.1312
 1827TIP3    H126972   2.403   3.638   3.838  0.4344 -0.1175  0.7814
 1827TIP3    H226973   2.456   3.751   3.924 -1.7076 -0.8602  3.1372
 1828TIP3   OH226974   6.605   6.396  12.949  0.1564 -0.3337 -0.3007
 1828TIP3    H126975   6.650   6.341  12.884  1.1453  0.8674 -0.6386
 1828TIP3    H226976   6.581   6.335  13.019  1.9716 -1.0705 -0.2914
 1829TIP3   OH226977   0.608   4.034  13.210  0.2375 -0.4023  0.2057
 1829TIP3    H126978   0.668   4.013  13.138 -0.7575  1.4551 -1.2238
 1829TIP3    H226979   0.528   3.987  13.191 -0.9539  2.1728 -1.3917
 1830TIP3   OH226980   2.780   2.625   6.495  0.3683  0.3423 -0.3714
 1830TIP3    H126981   2.724   2.681   6.548  1.6833  1.1490  0.2024
 1830TIP3    H226982   2.855   2.605   6.552 -0.5729 -2.9233 -0.1481
 1831TIP3   OH226983   2.371   1.377  12.809  0.4347  0.2084  0.3198
 1831TIP3    H126984   2.358   1.471  12.820 -0.4950  0.0866  0.3359
 1831TIP3    H226985   2.429   1.369  12.733  1.4018  0.8225  0.9853
 1832TIP3   OH226986   5.863   5.458  15.869 -0.0520 -0.6967 -0.5949
 1832TIP3    H126987   5.828   5.545  15.890  0.5603 -0.5091 -0.3210
 1832TIP3    H226988   5.786   5.404  15.853 -0.4982 -0.4433  0.6013
 1833TIP3   OH226989   1.768   5.435   0.307 -0.2587 -0.7061 -0.2992
 1833TIP3    H126990   1.795   5.427   0.215 -3.2619  1.5957 -1.5002
 1833TIP3    H226991   1.745   5.528   0.316 -0.9142 -1.1104  2.5306
 1834TIP3   OH226992   2.503   0.496  12.571  0.2480 -0.7340  0.4622
 1834TIP3    H126993   2.494   0.412  12.525 -0.7183 -2.0962  3.0280
 1834TIP3    H226994   2.594   0.520  12.559  0.5251 -2.1241 -0.3613
 1835TIP3   OH226995   5.305   4.602  12.567  0.2659  0.3265 -1.0305
 1835TIP3    H126996   5.288   4.637  12.479 -1.0209  1.4088 -0.3574
 1835TIP3    H226997   5.384   4.648  12.596  1.3550 -0.8527 -2.0490
 1836TIP3   OH226998   1.676   3.529   3.821 -0.2398  0.8872 -1.1250
 1836TIP3    H126999   1.767   3.540   3.794  0.0214 -0.1937 -0.7270
 1836TIP3    H227000   1.658   3.605   3.877  1.4303 -0.5233  1.4219
 1837TIP3   OH227001   1.615   5.382  14.287  0.5664  0.0838  0.5491
 1837TIP3    H127002   1.641   5.337  14.367  1.2724 -0.4335  0.0352
 1837TIP3    H227003   1.584   5.313  14.228 -1.1271  0.5857  0.8040
 1838TIP3   OH227004   5.472   4.506  11.715  0.2621 -0.5966 -0.1181
 1838TIP3    H127005   5.555   4.546  11.739  0.5003 -0.9984 -0.2603
 1838TIP3    H227006   5.490   4.459  11.634 -0.3486  0.1332 -0.6897
 1839TIP3   OH227007   2.569   4.536  10.651 -0.2992  0.4971  0.7199
 1839TIP3    H127008   2.538   4.459  10.604  0.7205 -0.4658  1.5850
 1839TIP3    H227009   2.515   4.541  10.729  1.4275 -0.9673  2.0420
 1840TIP3   OH227010   4.607   0.223   5.470  0.3024  0.1896 -0.3340
 1840TIP3    H127011   4.515   0.235   5.447  0.1292 -1.1404 -0.3847
 1840TIP3    H227012   4.648   0.306   5.447 -0.7600  0.5690 -0.9279
 1841TIP3   OH227013   3.975   0.720  14.966  0.3414  0.4191  0.0643
 1841TIP3    H127014   4.066   0.714  14.935  0.2463 -0.1730 -0.1038
 1841TIP3    H227015   3.982   0.710  15.061  0.3061 -1.2052 -0.0916
 1842TIP3   OH227016   6.053   1.777  17.061  0.0361  0.4388 -0.3674
 1842TIP3    H127017   6.089   1.735  16.983  1.9009 -1.0870  1.2580
 1842TIP3    H227018   5.999   1.710  17.102 -0.4687  1.0423 -0.0373
 1843TIP3   OH227019   1.870   3.855  13.737 -0.0920  0.3471  1.0072
 1843TIP3    H127020   1.945   3.865  13.795  0.6778 -0.7239  0.2329
 1843TIP3    H227021   1.811   3.796  13.784  0.3954 -0.2811  0.8422
 1844TIP3   OH227022   3.184   4.770   3.731  0.1962  0.0831  0.2096
 1844TIP3    H127023   3.258   4.728   3.689 -0.6695 -1.7392  0.4625
 1844TIP3    H227024   3.144   4.702   3.785 -2.6883  0.4933 -1.2583
 1845TIP3   OH227025   4.089   6.170   1.875 -0.0283  0.6797  0.0173
 1845TIP3    H127026   4.110   6.262   1.885  0.6739  0.6016 -0.6518
 1845TIP3    H227027   4.132   6.144   1.793 -0.8075 -0.0604 -0.1781
 1846TIP3   OH227028   3.154   0.272  11.783 -0.1401  0.0875 -0.9320
 1846TIP3    H127029   3.226   0.216  11.754  0.0395 -0.3352  0.2921
 1846TIP3    H227030   3.082   0.211  11.799  0.0089  0.2098  0.2677
 1847TIP3   OH227031   6.730   5.792  16.795  0.2961  0.0800 -0.0073
 1847TIP3    H127032   6.676   5.870  16.809  0.4244  0.0448  0.7029
 1847TIP3    H227033   6.795   5.795  16.865  1.4620  0.3288 -1.0863
 1848TIP3   OH227034   6.557   2.017   3.269 -0.3359 -0.3152  0.0834
 1848TIP3    H127035   6.604   2.032   3.351  0.2510 -0.2695 -0.2577
 1848TIP3    H227036   6.474   1.977   3.295  0.0559 -0.7463  0.6599
 1849TIP3   OH227037   5.131   3.048  13.180 -0.1231 -0.0922  0.4362
 1849TIP3    H127038   5.193   2.981  13.208  0.3027 -1.2294 -3.0066
 1849TIP3    H227039   5.057   3.038  13.240  1.9182 -0.3469  3.0269
 1850TIP3   OH227040   1.706   5.001   0.556  0.3877  0.3607  0.1914
 1850TIP3    H127041   1.629   5.054   0.535 -1.6761 -1.2978  3.1871
 1850TIP3    H227042   1.731   5.030   0.644  3.9507  1.6705 -1.1750
 1851TIP3   OH227043   1.810   4.743   0.683  0.1046  0.1140 -0.3338
 1851TIP3    H127044   1.719   4.741   0.710  0.2671  1.5997  0.3730
 1851TIP3    H227045   1.811   4.793   0.601  0.3119  0.3389 -0.1969
 1852TIP3   OH227046   6.476   5.894  11.179 -0.0959 -0.4253  0.1006
 1852TIP3    H127047   6.558   5.872  11.134  0.0104 -1.4717  0.7875
 1852TIP3    H227048   6.418   5.820  11.162 -0.2114 -0.6282  1.2685
 1853TIP3   OH227049   2.711   3.467   4.297 -0.2637  0.5534 -0.3111
 1853TIP3    H127050   2.651   3.542   4.299 -0.4448  0.3864  0.8330
 1853TIP3    H227051   2.798   3.507   4.302 -0.3678  0.6943  0.5601
 1854TIP3   OH227052   0.962   0.394  13.497  0.3567 -0.1411 -0.4728
 1854TIP3    H127053   0.957   0.464  13.562 -3.8250 -0.4147 -0.3127
 1854TIP3    H227054   0.907   0.425  13.425 -0.4483 -2.6268 -0.9798
 1855TIP3   OH227055   6.616   2.674  16.807 -0.0007  0.4951  0.5423
 1855TIP3    H127056   6.707   2.698  16.794  0.0178 -0.2977 -0.8770
 1855TIP3    H227057   6.619   2.585  16.843 -0.1968  0.5537  0.7027
 1856TIP3   OH227058   3.581   3.642   3.616 -0.1647  0.0780  0.1149
 1856TIP3    H127059   3.631   3.580   3.670 -1.6303 -0.3951  0.9515
 1856TIP3    H227060   3.641   3.665   3.545  0.8608 -1.3008  0.5012
 1857TIP3   OH227061   4.367   2.008   2.999 -0.0818 -0.4661 -0.4119
 1857TIP3    H127062   4.338   2.083   3.051 -0.7716 -1.2767  0.3907
 1857TIP3    H227063   4.290   1.987   2.945 -0.0520 -0.9113 -0.2759
 1858TIP3   OH227064   1.231   4.899   2.970  0.0939 -0.1949 -0.2151
 1858TIP3    H127065   1.309   4.955   2.971 -0.2576  0.3042 -0.1860
 1858TIP3    H227066   1.207   4.892   2.878 -1.0014  1.3307 -0.0703
 1859TIP3   OH227067   3.039   2.845  13.403 -0.5609 -0.1494  0.3462
 1859TIP3    H127068   3.058   2.861  13.495  1.8514 -0.8966 -0.0074
 1859TIP3    H227069   3.014   2.753  13.398  1.3707 -0.6728 -0.0375
 1860TIP3   OH227070   5.819   5.584  11.919  0.2025 -0.0778  0.6249
 1860TIP3    H127071   5.833   5.624  11.833 -2.4317  0.3250  0.3565
 1860TIP3    H227072   5.896   5.529  11.932  1.2163  0.7775 -1.4540
 1861TIP3   OH227073   1.305   1.640   1.988 -0.8129 -0.7995  0.2346
 1861TIP3    H127074   1.230   1.584   1.967 -0.3307 -2.1615  2.0113
 1861TIP3    H227075   1.284   1.677   2.074 -0.1142 -0.0105  0.0749
 1862TIP3   OH227076   0.055   4.636   0.573  0.0460  0.6441 -1.2309
 1862TIP3    H127077  -0.015   4.572   0.586  0.6329  0.3674  0.6873
 1862TIP3    H227078   0.078   4.628   0.480  0.0274 -1.8349 -1.0641
 1863TIP3   OH227079   0.820   4.678   4.847 -0.0958 -0.0280 -0.1113
 1863TIP3    H127080   0.889   4.615   4.868  0.2168  0.7003  1.0880
 1863TIP3    H227081   0.755   4.666   4.916  0.3575  1.5296  0.6106
 1864TIP3   OH227082   5.836   4.728  15.929  0.6942 -0.2246 -0.0788
 1864TIP3    H127083   5.796   4.678  16.000 -4.0895  2.6254 -0.5019
 1864TIP3    H227084   5.853   4.814  15.968 -2.2618  1.4691 -2.3007
 1865TIP3   OH227085   3.944   4.522  15.264 -0.5800 -0.3028  0.4182
 1865TIP3    H127086   3.998   4.513  15.343  0.6772 -0.2518 -0.4065
 1865TIP3    H227087   3.964   4.444  15.213 -0.5554  0.1930 -0.3309
 1866TIP3   OH227088   4.178   2.392  11.936  0.3962 -0.3472 -0.3496
 1866TIP3    H127089   4.262   2.392  11.891  0.0244 -0.4538 -1.0466
 1866TIP3    H227090   4.197   2.430  12.022  1.2246 -0.7033 -0.3654
 1867TIP3   OH227091   0.709   6.436   2.701 -0.2993 -0.3379 -0.3850
 1867TIP3    H127092   0.796   6.478   2.697 -0.8795  0.8210 -1.0745
 1867TIP3    H227093   0.709   6.390   2.785  0.2539  1.3371  0.5688
 1868TIP3   OH227094   1.269   6.645  12.745  0.2778  0.2934 -0.1813
 1868TIP3    H127095   1.245   6.737  12.733  0.5685  0.4648  0.5225
 1868TIP3    H227096   1.238   6.601  12.666 -2.5456  0.4613  0.8023
 1869TIP3   OH227097   1.890   4.177  13.830 -0.2258 -0.2769  0.3398
 1869TIP3    H127098   1.810   4.183  13.778  0.9060  0.8185 -1.3253
 1869TIP3    H227099   1.869   4.116  13.900 -1.8658 -1.6527 -1.3100
 1870TIP3   OH227100   1.748   2.392  16.928  0.4039  0.7733 -0.7826
 1870TIP3    H127101   1.667   2.424  16.888 -1.7598 -0.5644  2.3239
 1870TIP3    H227102   1.777   2.464  16.984  0.8309  0.8918 -1.1553
 1871TIP3   OH227103   2.348   1.774  15.766 -0.2705  0.5802 -0.7334
 1871TIP3    H127104   2.378   1.779  15.856 -1.0126 -1.2211 -0.3778
 1871TIP3    H227105   2.254   1.760  15.772  0.1361 -3.1373 -1.7055
 1872TIP3   OH227106   4.339   1.961   4.076 -0.3999 -0.6287 -0.3751
 1872TIP3    H127107   4.315   1.869   4.082  0.4896 -0.7855  1.0356
 1872TIP3    H227108   4.299   2.002   4.152 -0.1185 -0.0044 -0.5583
 1873TIP3   OH227109   4.262   4.119  14.750  0.5319 -0.0727 -0.1379
 1873TIP3    H127110   4.171   4.145  14.764  0.3188 -0.2283 -1.1552
 1873TIP3    H227111   4.290   4.171  14.674  1.6092  0.7341  0.8102
 1874TIP3   OH227112   6.194   6.121  17.292 -0.1066 -0.2613 -0.3427
 1874TIP3    H127113   6.271   6.083  17.251 -0.6949 -1.3444 -0.4780
 1874TIP3    H227114   6.228   6.173  17.365  0.8184  0.1798 -1.0835
 1875TIP3   OH227115   3.147   0.050   0.304 -0.8220 -0.8555 -0.0326
 1875TIP3    H127116   3.061   0.024   0.336 -0.4729  0.6994  2.2463
 1875TIP3    H227117   3.195   0.079   0.382  1.2679 -0.3017 -1.4623
 1876TIP3   OH227118   5.512   4.953  16.553 -0.0190 -0.2048 -0.2429
 1876TIP3    H127119   5.568   4.884  16.588  0.2013  0.1366  0.0811
 1876TIP3    H227120   5.423   4.916  16.558 -0.3131  0.7019  2.9489
 1877TIP3   OH227121   1.736   2.052  16.066 -0.6530  0.1308 -0.7182
 1877TIP3    H127122   1.708   2.048  16.157  0.2926 -0.6803 -0.4620
 1877TIP3    H227123   1.655   2.069  16.017 -1.2614 -0.1149  0.2019
 1878TIP3   OH227124   3.794   2.426   4.494  0.0585 -0.1534  0.6190
 1878TIP3    H127125   3.790   2.435   4.589  1.4002  1.0941  0.5911
 1878TIP3    H227126   3.760   2.339   4.476 -2.9153  0.6509  2.0000
 1879TIP3   OH227127   1.745   6.438   2.355 -0.1772 -0.0112 -0.1000
 1879TIP3    H127128   1.697   6.512   2.317 -0.1766  0.5044  0.8574
 1879TIP3    H227129   1.726   6.364   2.298  0.4979  0.9181 -1.5552
 1880TIP3   OH227130   1.154   5.197   0.222 -0.1430  0.0233  0.5334
 1880TIP3    H127131   1.207   5.118   0.228  0.4316  0.2901 -0.9657
 1880TIP3    H227132   1.119   5.196   0.133 -1.3252  0.6972  0.9800
 1881TIP3   OH227133   0.997   6.596  13.187 -0.2274 -0.6009  1.1389
 1881TIP3    H127134   1.056   6.580  13.261  0.2507 -1.4231  0.5981
 1881TIP3    H227135   1.055   6.631  13.119 -0.6857  0.2598  1.1928
 1882TIP3   OH227136   3.711   3.068  16.955  0.4328  0.0435  0.4350
 1882TIP3    H127137   3.776   3.124  16.997 -0.0553  0.8770  0.0925
 1882TIP3    H227138   3.628   3.114  16.966  0.1324 -0.2402 -0.5120
 1883TIP3   OH227139   3.749   1.950  13.268  0.1321 -0.1151 -0.0063
 1883TIP3    H127140   3.828   1.949  13.323 -0.2718  1.4738  0.6213
 1883TIP3    H227141   3.780   1.918  13.183  0.9386 -1.7973  0.8731
 1884TIP3   OH227142   3.829   2.806  12.435  0.4455 -0.2224 -0.1316
 1884TIP3    H127143   3.832   2.761  12.350  0.2361 -0.2904 -0.1026
 1884TIP3    H227144   3.740   2.840  12.441  0.7730  0.6960 -0.4108
 1885TIP3   OH227145   4.823   5.594  13.578  0.0573  0.5733 -0.1107
 1885TIP3    H127146   4.815   5.515  13.630  1.4329  0.1904 -0.4729
 1885TIP3    H227147   4.860   5.659  13.638  1.1131  0.2883 -0.4438
 1886TIP3   OH227148   3.441   6.321   5.148  0.3812 -0.0767 -0.0161
 1886TIP3    H127149   3.456   6.317   5.242 -1.9577 -3.7906  0.2943
 1886TIP3    H227150   3.524   6.292   5.110  0.8051 -0.1578  0.9544
 1887TIP3   OH227151   0.664   1.304   6.329  0.4204 -0.3839 -0.6513
 1887TIP3    H127152   0.596   1.342   6.386  0.5840 -2.5343  1.0643
 1887TIP3    H227153   0.744   1.348   6.355  0.3015 -0.5639  0.0423
 1888TIP3   OH227154   2.350   2.281  14.386 -0.1084 -0.5349 -0.5184
 1888TIP3    H127155   2.423   2.334  14.419 -0.8975  0.6887 -0.6660
 1888TIP3    H227156   2.376   2.191  14.403  1.2401 -0.1010 -0.1617
 1889TIP3   OH227157   5.984   6.291  10.725  0.3874 -0.2601 -0.5160
 1889TIP3    H127158   5.935   6.361  10.683 -1.2279  0.2909  2.1563
 1889TIP3    H227159   5.955   6.211  10.681 -2.1925  0.1663  0.3393
 1890TIP3   OH227160   5.899   0.743  12.565 -0.5847 -0.1616  0.2056
 1890TIP3    H127161   5.809   0.712  12.579 -0.2278 -0.6162  1.4945
 1890TIP3    H227162   5.910   0.741  12.470 -1.6886 -0.8015  0.0821
 1891TIP3   OH227163   0.589   0.617   1.611  0.1014 -0.5379  0.2540
 1891TIP3    H127164   0.678   0.617   1.576  0.0004 -0.4273 -0.0073
 1891TIP3    H227165   0.542   0.680   1.556  0.1452  0.2542  1.1047
 1892TIP3   OH227166   4.693   4.443   5.704 -0.2648 -0.3333 -0.1595
 1892TIP3    H127167   4.724   4.373   5.646  0.3725  0.1098 -0.3614
 1892TIP3    H227168   4.601   4.454   5.680 -0.1511 -0.5322 -0.7151
 1893TIP3   OH227169   6.716   6.076  16.110 -0.0979 -0.1738 -0.2236
 1893TIP3    H127170   6.661   6.141  16.066  0.3589  1.0637  0.9927
 1893TIP3    H227171   6.702   5.995  16.060  0.0541  1.0697 -2.3571
 1894TIP3   OH227172   5.347   0.469   1.599  0.0915  0.4199  0.1636
 1894TIP3    H127173   5.253   0.468   1.614 -0.1612  0.5502 -1.3494
 1894TIP3    H227174   5.365   0.390   1.548  0.6393  0.9005 -0.4107
 1895TIP3   OH227175   4.892   3.901  14.930  0.0932 -0.5981  0.2936
 1895TIP3    H127176   4.982   3.933  14.930 -1.1103  3.0200 -1.2562
 1895TIP3    H227177   4.856   3.928  15.014  0.2731 -1.4981  0.6606
 1896TIP3   OH227178   4.850   4.169  15.689  0.7191 -0.3142  0.3586
 1896TIP3    H127179   4.854   4.255  15.731  2.0878  0.0567 -0.4724
 1896TIP3    H227180   4.757   4.148  15.686  0.3919  0.9897  0.8727
 1897TIP3   OH227181   6.473   1.653   1.495 -0.5645 -0.4510 -0.1028
 1897TIP3    H127182   6.474   1.561   1.522 -0.8264 -0.7128 -0.9754
 1897TIP3    H227183   6.566   1.679   1.495 -0.2608 -1.4648 -2.3606
 1898TIP3   OH227184   5.995   6.144   1.787 -0.5505 -0.7913 -0.4613
 1898TIP3    H127185   6.030   6.227   1.820  0.6533 -0.3807 -2.6534
 1898TIP3    H227186   5.907   6.139   1.825 -0.3579  1.1213  0.3308
 1899TIP3   OH227187   4.130   5.404   2.088 -0.4003 -0.4831 -0.4524
 1899TIP3    H127188   4.077   5.385   2.010 -1.4885 -0.4391  0.2529
 1899TIP3    H227189   4.191   5.472   2.060 -3.0192  2.0032 -0.3955
 1900TIP3   OH227190   1.573   6.221  13.801 -0.2037  0.6485  0.0173
 1900TIP3    H127191   1.627   6.201  13.877  0.7011  1.5213 -0.3936
 1900TIP3    H227192   1.535   6.136  13.777 -0.0846  0.2678  1.1094
 1901TIP3   OH227193   2.111   6.637   3.613  0.3353  0.4170  0.0768
 1901TIP3    H127194   2.046   6.596   3.556  0.4458  3.5100 -2.3952
 1901TIP3    H227195   2.196   6.612   3.577  0.4336  0.8620 -0.0070
 1902TIP3   OH227196   4.048   2.153   3.429 -0.1190  0.5937  0.0237
 1902TIP3    H127197   4.052   2.093   3.504 -2.4813  0.1244 -0.1750
 1902TIP3    H227198   4.058   2.240   3.467 -2.2178  0.4234  1.0331
 1903TIP3   OH227199   3.241   5.634   5.428 -0.0262 -0.4372  0.1819
 1903TIP3    H127200   3.267   5.636   5.336 -0.1907  1.8433  0.1708
 1903TIP3    H227201   3.152   5.598   5.427 -0.6833  1.1645 -0.7324
 1904TIP3   OH227202   0.360   2.553  15.409 -0.2543 -0.0836  0.3457
 1904TIP3    H127203   0.296   2.591  15.348 -0.8662  0.1643  1.1306
 1904TIP3    H227204   0.311   2.485  15.456  0.5980 -1.2393 -0.4293
 1905TIP3   OH227205   3.660   0.448   2.991 -0.8147 -0.1009  0.2370
 1905TIP3    H127206   3.670   0.353   2.987 -0.7943 -0.0859 -0.1436
 1905TIP3    H227207   3.589   0.467   2.929  0.8379  0.3635 -1.5789
 1906TIP3   OH227208   3.930   2.262  14.213  0.0095 -0.3056 -0.1403
 1906TIP3    H127209   4.007   2.290  14.162 -1.0595 -0.9842 -2.1979
 1906TIP3    H227210   3.917   2.171  14.188 -1.3512 -0.2456  0.3413
 1907TIP3   OH227211   6.049   1.160  15.825  0.1260 -0.4310 -0.0748
 1907TIP3    H127212   5.971   1.212  15.844 -1.3010 -2.9006  1.0656
 1907TIP3    H227213   6.084   1.136  15.911  0.7880 -1.3305 -0.5796
 1908TIP3   OH227214   4.828   0.213  11.136 -0.1463  0.0749  0.4621
 1908TIP3    H127215   4.816   0.155  11.060 -0.3412 -0.3170  0.7941
 1908TIP3    H227216   4.910   0.259  11.118 -1.1386  1.3877 -0.9189
 1909TIP3   OH227217   6.654   1.508   2.206 -0.0988 -0.3572  0.3617
 1909TIP3    H127218   6.582   1.521   2.145 -2.5474 -2.4000  2.6803
 1909TIP3    H227219   6.679   1.416   2.194  1.0946 -0.0729  0.6557
 1910TIP3   OH227220   3.988   4.850   3.389 -0.5753  0.1320  0.0327
 1910TIP3    H127221   4.046   4.844   3.313  1.3741 -0.1889  1.4977
 1910TIP3    H227222   3.963   4.759   3.407  0.4522  0.0075  0.8720
 1911TIP3   OH227223   6.444   0.328   3.731  0.2247  0.0546 -0.0600
 1911TIP3    H127224   6.505   0.384   3.779 -0.0987  1.3408 -1.1099
 1911TIP3    H227225   6.359   0.369   3.744 -0.0156 -0.1839 -0.8587
 1912TIP3   OH227226   5.048   0.716  10.480  0.1160 -0.3174 -0.0807
 1912TIP3    H127227   5.061   0.719  10.575  1.6710 -2.3001 -0.1988
 1912TIP3    H227228   5.115   0.775  10.445  0.7538 -0.9969 -0.0255
 1913TIP3   OH227229   1.293   1.402  12.557  0.5353  0.7293 -0.4697
 1913TIP3    H127230   1.231   1.330  12.542 -0.7185  1.7361 -0.2491
 1913TIP3    H227231   1.324   1.425  12.470 -0.1404  0.8334 -0.6910
 1914TIP3   OH227232   3.338   6.004  17.222  0.1545  0.0527 -0.2247
 1914TIP3    H127233   3.312   5.957  17.143 -1.3030  1.5110 -0.6618
 1914TIP3    H227234   3.433   6.013  17.215  0.2174 -1.1230 -1.0648
 1915TIP3   OH227235   1.400   6.140   4.316 -0.1685 -0.1468 -0.3669
 1915TIP3    H127236   1.441   6.218   4.278  0.8933 -1.0785 -1.1829
 1915TIP3    H227237   1.361   6.094   4.242 -0.0116 -0.8497 -0.0215
 1916TIP3   OH227238   4.746   1.245  15.767  0.1818 -0.4167  0.6998
 1916TIP3    H127239   4.744   1.339  15.751  1.2445 -0.3037  1.1920
 1916TIP3    H227240   4.798   1.210  15.694 -0.2033 -0.6273  0.5234
 1917TIP3   OH227241   2.756   1.761  14.996 -0.0342 -0.5392 -0.7712
 1917TIP3    H127242   2.745   1.681  14.944 -0.8486 -0.2680 -1.0340
 1917TIP3    H227243   2.849   1.781  14.990  0.1794 -1.4705 -0.6980
 1918TIP3   OH227244   4.224   4.391  15.010 -0.1587 -0.4067 -0.7003
 1918TIP3    H127245   4.309   4.349  15.024 -1.2723 -2.0352  1.4880
 1918TIP3    H227246   4.242   4.460  14.946  3.1201  0.3276  0.9164
 1919TIP3   OH227247   1.458   0.638   5.082 -0.0890 -0.2427  0.2989
 1919TIP3    H127248   1.411   0.566   5.124  1.1432 -1.2065  0.0824
 1919TIP3    H227249   1.444   0.625   4.988  0.2088 -0.2623  0.2547
 1920TIP3   OH227250   5.775   5.801   6.100  0.0641 -0.1062  0.1366
 1920TIP3    H127251   5.735   5.753   6.027  1.8416  0.5075 -1.2703
 1920TIP3    H227252   5.716   5.876   6.114 -0.5614 -0.5000 -0.3406
 1921TIP3   OH227253   1.624   0.569   0.650  0.7932 -0.3237 -0.3663
 1921TIP3    H127254   1.704   0.597   0.605  0.2468  0.6853 -0.7265
 1921TIP3    H227255   1.561   0.556   0.580  1.5782 -4.4849 -0.4237
 1922TIP3   OH227256   5.983   5.591  16.080 -0.0688  0.0612  0.4691
 1922TIP3    H127257   6.047   5.533  16.120 -0.4107  0.7084  1.9957
 1922TIP3    H227258   5.967   5.554  15.993  1.8185 -0.5112  0.3537
 1923TIP3   OH227259   6.813   0.606   4.309 -0.0275 -0.2767  0.7330
 1923TIP3    H127260   6.782   0.549   4.238 -0.8101  2.1779 -0.9618
 1923TIP3    H227261   6.761   0.580   4.385 -0.3939 -1.7815 -0.0113
 1924TIP3   OH227262   6.547   0.566  16.492  0.6982  0.3060  0.3813
 1924TIP3    H127263   6.597   0.590  16.570 -0.0396  0.2522  0.8742
 1924TIP3    H227264   6.472   0.517  16.526 -0.5795  1.8119 -0.1971
 1925TIP3   OH227265   3.474   6.779   3.234 -0.2794  0.4805  0.6185
 1925TIP3    H127266   3.566   6.764   3.256 -0.4646  0.1205  1.1469
 1925TIP3    H227267   3.442   6.835   3.305 -0.8033 -0.4422  1.1066
 1926TIP3   OH227268   6.293   4.316  11.998  0.7078  0.2321 -0.1627
 1926TIP3    H127269   6.225   4.259  11.961  1.4219  0.1387 -1.3643
 1926TIP3    H227270   6.357   4.255  12.035  0.5062  0.3000  0.2916
 1927TIP3   OH227271   4.322   4.346  16.883  0.3206 -0.2152 -0.2869
 1927TIP3    H127272   4.403   4.388  16.910  0.3627  0.9903 -2.2051
 1927TIP3    H227273   4.261   4.418  16.869 -0.3858 -0.9567 -1.1146
 1928TIP3   OH227274   1.024   6.436  10.690  0.4006 -0.7695 -0.8813
 1928TIP3    H127275   0.951   6.427  10.751  0.7443 -0.9478 -0.4941
 1928TIP3    H227276   0.997   6.386  10.612  0.3850 -1.3716 -0.4917
 1929TIP3   OH227277   4.077   6.159  15.193 -0.2591  0.5770  0.1574
 1929TIP3    H127278   4.085   6.129  15.283 -1.1875  0.0470  0.0785
 1929TIP3    H227279   4.163   6.144  15.154 -0.4030 -1.0416  0.4204
 1930TIP3   OH227280   0.000   1.274  14.019  0.8512  0.5018  0.5749
 1930TIP3    H127281  -0.074   1.225  13.983  0.8647  0.5673  0.4588
 1930TIP3    H227282  -0.040   1.342  14.073  0.8005  1.2986 -0.4604
 1931TIP3   OH227283   2.948   3.823   4.893 -0.1472 -0.5441  0.4689
 1931TIP3    H127284   3.007   3.843   4.821  0.3460 -2.0189  0.4383
 1931TIP3    H227285   2.968   3.887   4.960  0.7041 -0.3393  0.0211
 1932TIP3   OH227286   3.535   1.589   1.526 -0.3082 -0.1274 -0.4342
 1932TIP3    H127287   3.621   1.602   1.564 -0.1976 -2.9189  0.3591
 1932TIP3    H227288   3.547   1.520   1.460 -1.7590  0.0534 -0.9185
 1933TIP3   OH227289   2.632   2.113  12.533  0.1698 -0.7864  0.5491
 1933TIP3    H127290   2.566   2.118  12.602 -0.2180 -0.1793  0.1421
 1933TIP3    H227291   2.589   2.150  12.456  0.9760 -0.4231  0.2681
 1934TIP3   OH227292   2.439   0.423  16.972 -0.2976 -0.6090 -0.0698
 1934TIP3    H127293   2.432   0.473  16.890 -1.4040 -1.4792 -0.5186
 1934TIP3    H227294   2.365   0.454  17.024  1.1215  0.8468  1.1200
 1935TIP3   OH227295   4.705   3.211   0.329  0.5164 -0.0170  0.3133
 1935TIP3    H127296   4.672   3.176   0.246  1.1510 -0.6267  0.3075
 1935TIP3    H227297   4.648   3.175   0.396 -0.0172  0.5018  0.1396
 1936TIP3   OH227298   5.852   3.642   1.381 -0.7779 -0.6338 -0.3384
 1936TIP3    H127299   5.855   3.636   1.477  4.1833  1.7967 -0.2269
 1936TIP3    H227300   5.811   3.727   1.364 -2.2114 -1.3250 -0.4634
 1937TIP3   OH227301   2.933   0.540   3.596 -0.1324  0.2433  0.0093
 1937TIP3    H127302   2.944   0.508   3.686  1.1786 -2.0297 -0.9225
 1937TIP3    H227303   2.939   0.635   3.604  2.0804 -0.0137  2.0659
 1938TIP3   OH227304   3.472   2.047  11.907  0.0964  0.1130 -0.4015
 1938TIP3    H127305   3.523   1.982  11.859 -0.6572 -0.7815 -0.0061
 1938TIP3    H227306   3.384   2.041  11.871  0.2749  1.7019 -1.1244
 1939TIP3   OH227307   5.155   5.024   2.322  0.0069  0.4283 -0.0342
 1939TIP3    H127308   5.250   5.029   2.311  0.1078 -1.2418  0.0598
 1939TIP3    H227309   5.141   5.022   2.416 -0.0495 -0.7831 -0.0697
 1940TIP3   OH227310   1.423   5.729  12.843 -0.0985  0.0772 -0.0059
 1940TIP3    H127311   1.368   5.787  12.790  0.5671 -0.5404 -1.3854
 1940TIP3    H227312   1.373   5.647  12.849  1.5340 -1.2050 -3.0079
 1941TIP3   OH227313   0.320   2.220  15.323  0.1537  0.1400  0.9817
 1941TIP3    H127314   0.248   2.260  15.274 -0.3810 -1.6212  0.2762
 1941TIP3    H227315   0.277   2.166  15.389  0.8063 -1.5286  0.0583
 1942TIP3   OH227316   2.397   2.150  15.400 -0.1411 -0.2664 -0.1807
 1942TIP3    H127317   2.472   2.207  15.419 -2.0465  2.2008  0.0994
 1942TIP3    H227318   2.382   2.102  15.481  0.6201 -0.1843  0.0168
 1943TIP3   OH227319   2.692   4.342  12.336  0.2162 -0.2485  0.1016
 1943TIP3    H127320   2.675   4.361  12.428 -0.1136 -2.0754  0.4509
 1943TIP3    H227321   2.730   4.422  12.301 -1.0723  0.9773  1.4538
 1944TIP3   OH227322   6.351   5.607   3.418  0.3120 -0.3607  0.2489
 1944TIP3    H127323   6.420   5.563   3.369  0.5630  1.6118 -1.2317
 1944TIP3    H227324   6.306   5.661   3.353 -1.3138 -0.0557  1.6020
 1945TIP3   OH227325   2.673   0.797   0.021  0.0390  0.1330 -0.0238
 1945TIP3    H127326   2.626   0.750  -0.048 -1.1784  1.6459 -0.2575
 1945TIP3    H227327   2.616   0.790   0.098  0.2297  0.5426  0.1557
 1946TIP3   OH227328   3.194   6.294   2.096 -0.1320  0.1827  0.2968
 1946TIP3    H127329   3.113   6.344   2.097 -0.3145 -0.0750 -0.7009
 1946TIP3    H227330   3.228   6.305   2.007  0.2990 -0.7068  0.3414
 1947TIP3   OH227331   3.017   4.145  12.298  0.2299  0.3182  0.4502
 1947TIP3    H127332   3.108   4.119  12.307  0.4781  1.2337  0.6234
 1947TIP3    H227333   2.975   4.117  12.379  0.5618  0.7229  0.7650
 1948TIP3   OH227334   0.004   0.986   0.015  0.5362  0.3585 -0.4999
 1948TIP3    H127335  -0.041   0.918   0.064 -0.1177  1.5569  0.5834
 1948TIP3    H227336   0.097   0.973   0.036  0.3028  0.5485  0.6343
 1949TIP3   OH227337   4.587   2.181  10.815  0.7822 -0.8024  1.0119
 1949TIP3    H127338   4.629   2.096  10.811 -0.2290 -1.2897  0.2659
 1949TIP3    H227339   4.614   2.225  10.734  0.4049 -0.8503  0.8594
 1950TIP3   OH227340   5.913   6.085  11.007  0.3771 -0.4398  0.0514
 1950TIP3    H127341   6.003   6.105  11.035  0.2445 -0.6903  0.6523
 1950TIP3    H227342   5.893   6.001  11.049 -0.2843 -0.1873  0.2409
 1951TIP3   OH227343   2.622   3.377   4.553 -0.0767 -0.0560  0.1780
 1951TIP3    H127344   2.635   3.368   4.458  1.2900  0.2113  0.3320
 1951TIP3    H227345   2.681   3.448   4.578  0.6572 -1.1189  1.4769
 1952TIP3   OH227346   5.917   6.569  16.277 -0.0270  0.1644  0.2328
 1952TIP3    H127347   5.904   6.658  16.244 -2.8882  0.2604  1.4939
 1952TIP3    H227348   5.974   6.580  16.353 -0.2466  0.9239  0.2960
 1953TIP3   OH227349   3.522   3.220  14.740 -0.6846  0.1322 -0.3600
 1953TIP3    H127350   3.566   3.146  14.698 -0.5730 -0.1760  0.2938
 1953TIP3    H227351   3.533   3.204  14.833 -2.3274 -0.0333 -0.1885
 1954TIP3   OH227352   4.125   3.699  12.826 -0.8831 -0.1078 -0.2318
 1954TIP3    H127353   4.163   3.611  12.838  0.7070  0.5774 -0.1786
 1954TIP3    H227354   4.193   3.759  12.857 -1.6707  1.1876 -0.9760
 1955TIP3   OH227355   3.162   4.391  10.557  0.1908 -0.0046 -0.3313
 1955TIP3    H127356   3.245   4.408  10.514 -0.1344 -0.3146 -1.0908
 1955TIP3    H227357   3.169   4.300  10.587  1.4261  1.0040  2.5791
 1956TIP3   OH227358   0.938   3.419   6.557  0.1673  0.0572 -0.5135
 1956TIP3    H127359   0.973   3.465   6.480  0.7883  0.1954 -0.1545
 1956TIP3    H227360   0.920   3.330   6.525  0.9787 -0.0574 -0.6749
 1957TIP3   OH227361   4.598   0.907  11.446  0.0350 -0.0688  0.3533
 1957TIP3    H127362   4.586   0.981  11.387  0.3352 -1.6860 -1.8204
 1957TIP3    H227363   4.693   0.904  11.461  0.0732 -0.2768  0.0758
 1958TIP3   OH227364   1.049   4.819   1.721 -0.9459 -0.1500  0.4184
 1958TIP3    H127365   1.004   4.900   1.700  1.8400  1.4567  0.3569
 1958TIP3    H227366   1.062   4.776   1.636  1.9094  1.7743 -0.1973
 1959TIP3   OH227367   6.632   1.064   3.943 -0.4080 -0.4033  0.5084
 1959TIP3    H127368   6.586   1.095   4.021  0.2568  0.9726  0.3707
 1959TIP3    H227369   6.672   0.981   3.970 -0.3516 -0.0384  1.5662
 1960TIP3   OH227370   3.301   4.083   3.022  0.0030  0.1191  0.4433
 1960TIP3    H127371   3.267   4.020   3.085  0.6105  0.6637  1.3191
 1960TIP3    H227372   3.314   4.163   3.072 -3.1960  1.7511 -1.2294
 1961TIP3   OH227373   4.425   4.574  14.564 -0.5746 -0.1091 -0.3752
 1961TIP3    H127374   4.520   4.584  14.572 -0.4709 -0.9908 -0.5130
 1961TIP3    H227375   4.401   4.637  14.496 -0.3247  1.3071  0.8266
 1962TIP3   OH227376   1.550   2.981   1.760 -0.0747 -0.4515  0.1157
 1962TIP3    H127377   1.633   2.988   1.713  0.5846 -1.6353  1.0643
 1962TIP3    H227378   1.499   3.057   1.731  2.2158  1.6058  1.2524
 1963TIP3   OH227379   1.445   0.067  13.012  0.2714  0.2719  0.1516
 1963TIP3    H127380   1.531   0.045  12.978 -0.1898  0.6629 -1.3242
 1963TIP3    H227381   1.450   0.161  13.030  0.6411 -0.0089  1.5943
 1964TIP3   OH227382   1.074   2.641   1.046 -0.2166  0.5390 -0.7204
 1964TIP3    H127383   1.097   2.677   1.131  0.3964 -0.5195 -0.4265
 1964TIP3    H227384   1.038   2.554   1.065 -2.4995  1.2948 -1.3444
 1965TIP3   OH227385   6.061   5.999   4.077 -0.4333  0.2297 -0.0033
 1965TIP3    H127386   6.121   5.987   4.151  1.5081  2.0501 -1.2306
 1965TIP3    H227387   6.033   5.910   4.054  0.9420 -0.5505  1.2751
 1966TIP3   OH227388   4.180   3.555   2.612 -0.4408  0.5828 -0.6718
 1966TIP3    H127389   4.233   3.635   2.617  0.3127  0.0912 -0.6694
 1966TIP3    H227390   4.098   3.577   2.656 -0.3236  1.4249 -0.8718
 1967TIP3   OH227391   0.802   3.516  13.710  0.1565 -0.0195 -0.0841
 1967TIP3    H127392   0.794   3.555  13.797  0.3764 -1.5913  0.6501
 1967TIP3    H227393   0.766   3.428  13.720 -0.4179  0.0192 -1.7478
 1968TIP3   OH227394   4.348   3.370   6.068  0.5939 -0.1658 -0.0090
 1968TIP3    H127395   4.435   3.339   6.093  0.3451  0.3157  1.5020
 1968TIP3    H227396   4.291   3.340   6.139 -0.5612 -0.8600 -1.1949
 1969TIP3   OH227397   5.396   6.616   2.432  0.8189  0.3935  0.0770
 1969TIP3    H127398   5.399   6.704   2.472  0.6365  0.1162  0.7091
 1969TIP3    H227399   5.483   6.580   2.449  0.7260  0.2580  0.2691
 1970TIP3   OH227400   2.828   3.120  12.317  0.1984  0.4072  0.6375
 1970TIP3    H127401   2.748   3.133  12.266 -0.5899  0.0805  1.7674
 1970TIP3    H227402   2.870   3.043  12.277  0.1214  0.7750 -0.1585
 1971TIP3   OH227403   3.811   3.098  12.644  0.8124  0.3522  0.0622
 1971TIP3    H127404   3.774   3.101  12.732 -1.4636  1.5476 -0.8894
 1971TIP3    H227405   3.905   3.103  12.657  0.7855 -3.4947  2.6145
 1972TIP3   OH227406   4.365   3.525  15.134  0.1060  0.3979  0.3162
 1972TIP3    H127407   4.386   3.570  15.052 -1.5849  2.6023  1.0606
 1972TIP3    H227408   4.306   3.584  15.180  0.5578 -1.0621  2.8872
 1973TIP3   OH227409   4.736   6.433  16.519  0.1906  0.3905 -0.1236
 1973TIP3    H127410   4.710   6.484  16.442 -0.8209  1.2471  0.7573
 1973TIP3    H227411   4.763   6.349  16.484 -0.9907  0.5042 -1.3699
 1974TIP3   OH227412   5.480   0.118   1.884 -0.8342  0.2854 -0.0617
 1974TIP3    H127413   5.551   0.067   1.845 -0.4407  0.7057  0.1098
 1974TIP3    H227414   5.441   0.165   1.811 -1.7864 -0.9532 -0.3806
 1975TIP3   OH227415   0.804   3.454  13.196  0.6554  0.7595 -0.5480
 1975TIP3    H127416   0.722   3.408  13.179  1.6017 -0.9571 -0.5867
 1975TIP3    H227417   0.787   3.504  13.275 -1.0638  2.0365 -1.6914
 1976TIP3   OH227418   0.783   0.110  11.352 -0.5537 -0.2217 -0.2832
 1976TIP3    H127419   0.830   0.146  11.278 -1.2531 -2.7880 -2.0536
 1976TIP3    H227420   0.801   0.170  11.424  1.1163  1.6641 -2.2187
 1977TIP3   OH227421   6.053   0.673   2.328 -0.2641  0.3507 -0.5183
 1977TIP3    H127422   6.026   0.758   2.363 -1.6537 -0.2295 -0.1515
 1977TIP3    H227423   6.149   0.677   2.328 -0.3225  2.1155 -1.0235
 1978TIP3   OH227424   3.130   0.976  13.102 -0.0851  0.2025 -0.1366
 1978TIP3    H127425   3.142   0.996  13.195 -0.1926  0.1650 -0.1143
 1978TIP3    H227426   3.039   0.948  13.095 -0.5222  1.6486 -0.5015
 1979TIP3   OH227427   4.989   6.314  14.856 -0.2279 -0.1236 -0.0684
 1979TIP3    H127428   5.055   6.321  14.787 -0.7600 -0.2752 -0.5960
 1979TIP3    H227429   4.906   6.333  14.812 -0.2869  2.4943  1.0814
 1980TIP3   OH227430   6.421   4.188  14.837  0.3524 -0.1512 -0.1103
 1980TIP3    H127431   6.372   4.246  14.779 -1.3546 -0.1477  1.3086
 1980TIP3    H227432   6.432   4.239  14.918 -0.0982 -1.3370  0.7114
 1981TIP3   OH227433   2.235   5.518   0.092  0.7337  0.1333  0.3021
 1981TIP3    H127434   2.193   5.519   0.179  0.5073 -0.6916  0.2127
 1981TIP3    H227435   2.305   5.583   0.098 -0.3230  1.2654  0.5793
 1982TIP3   OH227436   1.380   1.878  14.087 -0.3135 -0.0268 -0.2756
 1982TIP3    H127437   1.371   1.792  14.129 -1.1396  0.1915  0.0185
 1982TIP3    H227438   1.391   1.859  13.994 -0.6135 -0.4554 -0.2253
 1983TIP3   OH227439   2.690   0.279  12.290  0.4010 -0.0448 -0.0825
 1983TIP3    H127440   2.681   0.196  12.245  1.9432 -0.2225 -0.1089
 1983TIP3    H227441   2.642   0.268  12.372 -1.6447 -0.0220 -1.2418
 1984TIP3   OH227442   0.488   2.199  14.189 -0.5869  0.5802  0.1495
 1984TIP3    H127443   0.581   2.219  14.193 -0.0969 -0.9265 -2.1089
 1984TIP3    H227444   0.450   2.268  14.134 -0.0560 -0.9243 -2.1974
 1985TIP3   OH227445   2.503   4.373  14.906  0.2581  0.4611 -0.2824
 1985TIP3    H127446   2.552   4.299  14.869  1.9229  0.9183  0.9533
 1985TIP3    H227447   2.486   4.430  14.831  0.7879 -0.1734 -0.8968
 1986TIP3   OH227448   3.338   6.581  14.945  0.3415 -0.2013  0.0029
 1986TIP3    H127449   3.245   6.601  14.955 -0.0721 -0.9357 -2.0522
 1986TIP3    H227450   3.375   6.592  15.033 -1.7605 -0.3232  0.9329
 1987TIP3   OH227451   5.416   0.996   0.808  0.1966 -0.2402 -0.0162
 1987TIP3    H127452   5.421   0.906   0.842 -0.5182  0.1075  1.0080
 1987TIP3    H227453   5.333   1.000   0.762  0.1528 -0.0536  0.0779
 1988TIP3   OH227454   1.109   2.928  14.190 -0.8740 -0.2281 -0.0905
 1988TIP3    H127455   1.143   3.002  14.240 -1.2910 -0.9270  1.2439
 1988TIP3    H227456   1.120   2.852  14.248 -0.9401 -1.1307 -1.2308
 1989TIP3   OH227457   3.942   4.626   3.793 -0.0400  0.3500  0.3831
 1989TIP3    H127458   3.937   4.639   3.887 -2.2244  0.3530  0.2876
 1989TIP3    H227459   3.907   4.538   3.779 -1.7618  1.1660 -0.6011
 1990TIP3   OH227460   3.087   3.983   1.528  0.0253 -0.6489 -0.2121
 1990TIP3    H127461   3.156   3.917   1.536 -0.9163 -1.9113 -1.9946
 1990TIP3    H227462   3.021   3.957   1.593  0.8294  0.0402  0.8757
 1991TIP3   OH227463   3.526   2.994  11.090 -0.0691 -0.0154  0.1864
 1991TIP3    H127464   3.577   2.930  11.042  0.7794  0.4480  0.4616
 1991TIP3    H227465   3.459   2.943  11.136 -0.2098 -0.5605 -0.6320
 1992TIP3   OH227466   2.069   4.092   4.032  0.2979 -0.1708  0.7835
 1992TIP3    H127467   1.975   4.087   4.014  0.0798  1.0765  1.4747
 1992TIP3    H227468   2.105   4.011   3.998 -1.1589 -1.0224  1.2443
 1993TIP3   OH227469   3.802   2.185  11.734 -0.6055 -0.3220 -0.5776
 1993TIP3    H127470   3.778   2.250  11.668  0.5269 -1.2841 -1.9720
 1993TIP3    H227471   3.898   2.191  11.740 -0.7736  0.4520  1.7305
 1994TIP3   OH227472   0.391   3.277   5.970  0.6234 -0.2597 -0.1358
 1994TIP3    H127473   0.431   3.255   6.054 -0.4814 -0.9103  0.2179
 1994TIP3    H227474   0.319   3.216   5.961  1.5926 -1.1309 -2.2286
 1995TIP3   OH227475   2.699   1.967   2.310  0.2864 -0.0011  0.1504
 1995TIP3    H127476   2.680   1.893   2.252  1.4726 -0.5443  0.4357
 1995TIP3    H227477   2.630   1.963   2.377 -0.5248  0.0496 -0.6653
 1996TIP3   OH227478   3.072   5.318  16.223  0.2881  0.3651 -0.8300
 1996TIP3    H127479   3.072   5.224  16.239  1.6232  0.4044 -0.5556
 1996TIP3    H227480   3.034   5.356  16.303 -0.3170  0.0698 -0.9700
 1997TIP3   OH227481   6.762   6.200   4.534 -0.3625 -0.1934  0.0183
 1997TIP3    H127482   6.683   6.216   4.481 -1.0930 -1.1712  0.7940
 1997TIP3    H227483   6.780   6.107   4.522  1.8285  0.4005 -1.6990
 1998TIP3   OH227484   6.140   2.012  10.703 -0.4149 -0.0178  0.7310
 1998TIP3    H127485   6.171   2.103  10.700 -2.2466  0.6081 -0.4663
 1998TIP3    H227486   6.220   1.960  10.705  0.6688  1.6310  1.7743
 1999TIP3   OH227487   1.429   1.471   4.017 -0.5122  0.2276  0.0184
 1999TIP3    H127488   1.514   1.479   4.061 -0.4012 -3.2787  0.5327
 1999TIP3    H227489   1.370   1.527   4.067  0.2875 -1.4371  2.9188
 2000TIP3   OH227490   2.985   4.879  16.474  0.1323  0.1919 -0.8806
 2000TIP3    H127491   2.997   4.784  16.479  0.4676  0.2870  0.4308
 2000TIP3    H227492   2.927   4.900  16.548 -0.2173  0.9692 -1.3626
 2001TIP3   OH227493   2.069   3.864  12.871 -0.0006 -0.0174  0.6803
 2001TIP3    H127494   2.046   3.879  12.779 -1.3116  1.0842  1.1695
 2001TIP3    H227495   2.057   3.770  12.883  1.3879 -0.3807 -0.5835
 2002TIP3   OH227496   0.203   4.964  16.232  0.2850 -0.1484 -0.7762
 2002TIP3    H127497   0.275   4.984  16.173 -0.3594 -1.1401 -1.9470
 2002TIP3    H227498   0.199   5.038  16.293  2.8190 -0.4971 -0.1436
 2003TIP3   OH227499   6.690   4.886  11.970 -0.0158 -0.3554 -0.9943
 2003TIP3    H127500   6.742   4.853  12.043 -1.9255  0.2931  0.6926
 2003TIP3    H227501   6.673   4.977  11.991 -2.1685 -0.6520 -1.2939
 2004TIP3   OH227502   1.722   1.295   1.211 -0.3348  0.3184  0.1242
 2004TIP3    H127503   1.804   1.282   1.163 -0.4517 -0.3606  0.0960
 2004TIP3    H227504   1.740   1.367   1.271  0.7046 -0.7106  1.0609
 2005TIP3   OH227505   1.662   0.950   2.652 -0.3116 -0.4626  0.3680
 2005TIP3    H127506   1.703   0.895   2.719  0.6307  1.4343  1.3903
 2005TIP3    H227507   1.593   0.998   2.698 -0.1082  0.3559 -0.1535
 2006TIP3   OH227508   0.542   2.497   4.634  0.2994 -0.3391 -0.1481
 2006TIP3    H127509   0.506   2.586   4.624  1.7912  0.1833 -0.9624
 2006TIP3    H227510   0.503   2.447   4.562  0.6153  0.0411 -0.5883
 2007TIP3   OH227511   1.304   2.897  13.299 -0.5301 -0.0263 -0.0245
 2007TIP3    H127512   1.263   2.945  13.226 -0.1790  1.1499  0.5412
 2007TIP3    H227513   1.230   2.869  13.353 -0.8232 -1.2514 -1.0198
 2008TIP3   OH227514   6.042   3.594   4.804  0.2838 -0.1923  0.3640
 2008TIP3    H127515   6.111   3.655   4.777  0.3650 -0.0632  0.8501
 2008TIP3    H227516   6.025   3.542   4.726 -0.5218  1.1351 -0.3659
 2009TIP3   OH227517   2.141   6.730  11.156  0.2197 -0.0622  0.0115
 2009TIP3    H127518   2.090   6.798  11.199  1.6386  1.4562 -0.6608
 2009TIP3    H227519   2.099   6.720  11.070  1.6418  1.9385 -0.9541
 2010TIP3   OH227520   1.336   6.030  15.982  0.5201  0.5997 -0.1054
 2010TIP3    H127521   1.346   6.009  15.889 -0.2901 -0.0369 -0.0492
 2010TIP3    H227522   1.397   5.971  16.026  0.3957  0.4179 -0.1765
 2011TIP3   OH227523   1.838   3.784   0.007  0.1816  0.6493  0.2057
 2011TIP3    H127524   1.900   3.739  -0.050 -0.8517  0.5084 -0.8570
 2011TIP3    H227525   1.786   3.714   0.046 -1.0481  0.8576 -1.0011
 2012TIP3   OH227526   5.847   1.804   3.065  0.4239  0.7183  0.4629
 2012TIP3    H127527   5.908   1.761   3.005  0.0566 -0.1032  0.6654
 2012TIP3    H227528   5.891   1.885   3.091  0.6122  1.0485 -0.8608
 2013TIP3   OH227529   2.622   0.750  13.823  0.0765  0.0008  0.2247
 2013TIP3    H127530   2.536   0.731  13.858  0.5061 -0.4907  1.0165
 2013TIP3    H227531   2.625   0.704  13.739  0.0603 -1.0599  0.8110
 2014TIP3   OH227532   4.792   0.380  16.967 -0.1077 -0.2969 -0.1303
 2014TIP3    H127533   4.717   0.320  16.971 -0.7936  0.6233  1.1064
 2014TIP3    H227534   4.786   0.421  16.881 -0.7122 -0.6337 -0.2457
 2015TIP3   OH227535   6.472   3.121   0.774 -0.1185  0.1798 -0.3313
 2015TIP3    H127536   6.496   3.034   0.806  0.1800 -0.1557 -1.4447
 2015TIP3    H227537   6.438   3.105   0.686  1.2118  1.3316 -1.0679
 2016TIP3   OH227538   5.453   0.609  16.906  0.7702 -0.5946 -0.1625
 2016TIP3    H127539   5.401   0.554  16.848  0.2584 -1.0361  0.7101
 2016TIP3    H227540   5.526   0.640  16.851  0.0598 -0.6530 -1.1511
 2017TIP3   OH227541   1.270   1.005   0.261  0.2239  0.6365  0.2785
 2017TIP3    H127542   1.269   1.077   0.323  0.2124  1.6420 -0.8772
 2017TIP3    H227543   1.246   1.044   0.177 -0.1930 -0.7785 -0.2874
 2018TIP3   OH227544   3.210   1.319   5.910 -0.3324  0.6116  0.1790
 2018TIP3    H127545   3.284   1.380   5.902  0.5361 -0.6990 -2.4990
 2018TIP3    H227546   3.169   1.320   5.824 -0.0499 -2.8778 -0.0665
 2019TIP3   OH227547   1.337   2.004   3.023  0.0060 -0.3263 -0.1148
 2019TIP3    H127548   1.256   2.023   2.976  0.5638 -0.8776 -1.3235
 2019TIP3    H227549   1.311   1.998   3.115 -1.3438 -0.6525 -0.5097
 2020TIP3   OH227550   3.575   4.970   1.143  0.4771 -0.0844  0.1188
 2020TIP3    H127551   3.554   4.975   1.237  1.7872 -2.0082  0.5346
 2020TIP3    H227552   3.605   5.059   1.121 -1.4353  0.8482  1.0969
 2021TIP3   OH227553   0.548   4.701   6.476 -0.0607 -0.1642  0.2784
 2021TIP3    H127554   0.490   4.766   6.517 -0.6986 -0.6770  0.1968
 2021TIP3    H227555   0.624   4.752   6.447 -0.7387  0.6151 -0.1432
 2022TIP3   OH227556   5.924   4.967  10.417 -0.0528 -0.2052  0.4177
 2022TIP3    H127557   5.981   5.032  10.459  0.4261 -2.1071  2.8478
 2022TIP3    H227558   5.976   4.932  10.345  1.0537 -0.3386  1.2573
 2023TIP3   OH227559   5.821   0.325   1.879  0.1733 -0.7000 -0.3754
 2023TIP3    H127560   5.885   0.269   1.833  1.2598  1.0530 -1.0281
 2023TIP3    H227561   5.744   0.325   1.821  0.4266 -0.9324 -0.7173
 2024TIP3   OH227562   0.595   3.691   1.733 -0.3034  0.3324 -0.0746
 2024TIP3    H127563   0.503   3.668   1.716 -0.0585  0.8977 -2.2215
 2024TIP3    H227564   0.592   3.783   1.760 -0.5357 -0.1635  1.6831
 2025TIP3   OH227565   6.598   3.302   4.554 -0.2834  0.0211  0.0991
 2025TIP3    H127566   6.582   3.221   4.603  1.0137 -2.0584 -2.7334
 2025TIP3    H227567   6.534   3.301   4.484  0.0784  1.2128 -0.2622
 2026TIP3   OH227568   2.035   5.866   3.029 -0.0338  0.6636  0.0431
 2026TIP3    H127569   2.087   5.936   3.068 -0.2001  0.5135  0.5375
 2026TIP3    H227570   2.047   5.791   3.088  2.1067 -0.4823 -1.7547
 2027TIP3   OH227571   3.358   3.449  15.651 -0.3019  0.4487  0.2383
 2027TIP3    H127572   3.268   3.423  15.666 -0.6101  0.9787 -0.6488
 2027TIP3    H227573   3.390   3.388  15.585  0.2179 -0.1976  1.0807
 2028TIP3   OH227574   2.385   2.500   4.025  0.7238 -0.0135  0.1842
 2028TIP3    H127575   2.330   2.425   4.051  1.5519 -1.1380 -1.2457
 2028TIP3    H227576   2.418   2.534   4.108  0.8701 -1.6585  0.8326
 2029TIP3   OH227577   5.490   4.557  11.213 -0.5888 -0.2149 -0.0723
 2029TIP3    H127578   5.430   4.493  11.253 -0.7173 -0.1123 -0.0992
 2029TIP3    H227579   5.456   4.642  11.240  0.5047 -0.1941  1.2761
 2030TIP3   OH227580   0.427   3.150   0.483  0.1407 -0.2634 -0.2149
 2030TIP3    H127581   0.407   3.239   0.512  0.6971  0.4719 -2.0471
 2030TIP3    H227582   0.500   3.123   0.538 -1.0305 -0.1963  1.4268
 2031TIP3   OH227583   0.056   0.035  16.204 -0.3895 -0.3858 -0.7587
 2031TIP3    H127584   0.114  -0.041  16.216  0.0362  0.0508 -0.0547
 2031TIP3    H227585  -0.018   0.018  16.262  0.0812  0.1180 -0.0120
 2032TIP3   OH227586   3.079   6.505  11.144  0.0573 -0.3868 -0.1872
 2032TIP3    H127587   3.106   6.436  11.084  0.2345 -0.3886 -0.1062
 2032TIP3    H227588   3.002   6.469  11.189 -1.2445  0.3587 -1.7758
 2033TIP3   OH227589   3.531   0.690  16.195 -0.0042 -0.2617  0.0904
 2033TIP3    H127590   3.535   0.722  16.105 -1.1205  2.1613  0.8546
 2033TIP3    H227591   3.448   0.723  16.229  1.1718  0.3359  2.5245
 2034TIP3   OH227592   2.763   6.365   5.656 -0.3860 -0.0377 -0.7452
 2034TIP3    H127593   2.842   6.404   5.618  1.0620 -1.3184  0.8304
 2034TIP3    H227594   2.703   6.438   5.667  2.1585  1.7909  1.8858
 2035TIP3   OH227595   6.600   3.530  15.840 -0.3202  0.0684 -0.0739
 2035TIP3    H127596   6.686   3.563  15.864  1.0813 -2.7240 -1.0227
 2035TIP3    H227597   6.575   3.473  15.914 -0.7953 -0.1013 -0.3629
 2036TIP3   OH227598   1.453   4.927   4.303 -0.1211 -0.0272 -0.1472
 2036TIP3    H127599   1.440   4.882   4.386 -2.0719  0.7544 -0.0033
 2036TIP3    H227600   1.475   5.017   4.328  0.6244 -0.1186 -0.4668
 2037TIP3   OH227601   3.427   6.307   4.442 -0.0390  0.0399  0.0017
 2037TIP3    H127602   3.423   6.391   4.487 -2.3315  0.1555 -0.3775
 2037TIP3    H227603   3.337   6.274   4.443  0.3151 -1.1347 -2.2516
 2038TIP3   OH227604   2.040   0.400  14.044 -1.1432  0.1985  0.3308
 2038TIP3    H127605   2.071   0.384  13.954  2.1518  1.4576  1.1445
 2038TIP3    H227606   2.046   0.315  14.086  0.7719  0.2645  0.2702
 2039TIP3   OH227607   2.952   5.714  14.184 -0.3628  0.2176 -0.0829
 2039TIP3    H127608   2.893   5.789  14.175 -0.4519  0.3233  1.2184
 2039TIP3    H227609   2.910   5.658  14.249 -0.1409 -0.8199 -0.8138
 2040TIP3   OH227610   1.768   1.062   4.896  0.0652  0.5174 -0.0690
 2040TIP3    H127611   1.845   1.013   4.870  0.7446  2.3350 -1.5865
 2040TIP3    H227612   1.709   0.996   4.933  1.8119 -1.0743 -0.0311
 2041TIP3   OH227613   6.306   4.094   0.233 -0.3922  0.1236  0.1591
 2041TIP3    H127614   6.306   4.053   0.146 -0.7597  0.7338 -0.1295
 2041TIP3    H227615   6.230   4.056   0.277 -0.3424 -0.0121  0.1295
 2042TIP3   OH227616   4.007   0.019   1.360  0.2228  0.0804  0.4485
 2042TIP3    H127617   3.922   0.062   1.367  0.5233  0.6052  0.9440
 2042TIP3    H227618   4.013  -0.008   1.269 -0.5085 -0.0271  0.4278
 2043TIP3   OH227619   6.182   4.441   4.347 -0.4446 -0.1591 -0.1212
 2043TIP3    H127620   6.131   4.479   4.419  0.4512  1.8878 -0.5600
 2043TIP3    H227621   6.263   4.410   4.389 -1.4139 -2.1624  0.3337
 2044TIP3   OH227622   2.027   5.167  15.482 -0.1690  0.0472  0.9507
 2044TIP3    H127623   2.108   5.160  15.532  0.3012  0.2299  0.2256
 2044TIP3    H227624   2.035   5.101  15.413 -0.5900  0.1279  0.8196
 2045TIP3   OH227625   4.449   1.079  14.295 -0.3780  0.0089 -0.0247
 2045TIP3    H127626   4.448   1.175  14.294  1.4419  0.0345 -1.1970
 2045TIP3    H227627   4.526   1.055  14.244  0.1274 -2.0643  1.6532
 2046TIP3   OH227628   0.472   2.356  15.604 -0.7531  0.4342  0.6157
 2046TIP3    H127629   0.557   2.370  15.563 -1.7740  1.0576 -1.3639
 2046TIP3    H227630   0.412   2.345  15.531 -2.1962 -1.1799  1.9949
 2047TIP3   OH227631   6.415   5.438  10.405 -0.1369 -0.9252 -0.3215
 2047TIP3    H127632   6.357   5.398  10.340  1.2851 -1.7884 -1.0712
 2047TIP3    H227633   6.470   5.499  10.355 -0.8066  0.3781  0.4854
 2048TIP3   OH227634   4.326   3.564  16.458 -0.2562 -0.3037  0.0812
 2048TIP3    H127635   4.267   3.604  16.394  0.8754  0.7769 -0.3241
 2048TIP3    H227636   4.368   3.639  16.501  0.9654 -1.0638  0.2229
 2049TIP3   OH227637   3.656   4.211   1.827 -0.1476 -0.3602 -0.5587
 2049TIP3    H127638   3.721   4.199   1.896  0.5900  0.0320 -1.1841
 2049TIP3    H227639   3.706   4.211   1.746 -0.5959  2.4823 -0.9014
 2050TIP3   OH227640   1.470   4.726  11.458  0.2246  0.5951 -0.2156
 2050TIP3    H127641   1.381   4.752  11.435  0.2234  0.7900  0.0024
 2050TIP3    H227642   1.526   4.787  11.411  0.2707 -0.1212 -1.1057
 2051TIP3   OH227643   6.314   3.993   2.706 -0.1931  0.3679  0.0112
 2051TIP3    H127644   6.321   3.900   2.727 -1.1119  0.2437 -0.2224
 2051TIP3    H227645   6.323   4.037   2.791 -1.3165 -0.0121  0.3320
 2052TIP3   OH227646   0.463   4.842  11.443  0.2434 -0.0216 -0.0343
 2052TIP3    H127647   0.539   4.788  11.461  0.5662  0.6149  0.5270
 2052TIP3    H227648   0.444   4.826  11.350  0.8846 -0.3946 -0.1038
 2053TIP3   OH227649   3.112   3.912   4.680 -0.0413  0.1583  0.1437
 2053TIP3    H127650   3.091   3.912   4.587 -2.2311 -3.0907  0.5331
 2053TIP3    H227651   3.092   4.000   4.710  0.4888  1.1751 -2.3918
 2054TIP3   OH227652   5.082   2.465   3.781  0.0976 -0.2330  0.0615
 2054TIP3    H127653   5.124   2.419   3.708 -0.2834  1.1904 -1.0574
 2054TIP3    H227654   5.155   2.500   3.831  0.2958  1.4108 -1.3469
 2055TIP3   OH227655   6.380   1.761   5.531  0.0939  0.1395 -0.2526
 2055TIP3    H127656   6.294   1.760   5.573  0.8164 -0.3868  1.2800
 2055TIP3    H227657   6.392   1.851   5.501 -0.7786  0.3360 -0.0041
 2056TIP3   OH227658   6.527   2.447   3.780  0.4618  1.0436 -0.3191
 2056TIP3    H127659   6.575   2.372   3.816  0.5177  0.4236 -1.6420
 2056TIP3    H227660   6.522   2.429   3.686 -2.9916  0.7337 -0.1261
 2057TIP3   OH227661   2.568   3.786   1.934 -0.0165 -0.6635  0.1725
 2057TIP3    H127662   2.583   3.818   2.023 -0.0932  0.7339 -0.3075
 2057TIP3    H227663   2.528   3.700   1.946  0.9056 -0.9262  1.4839
 2058TIP3   OH227664   1.605   0.405   1.235 -0.0227  0.0647  0.4103
 2058TIP3    H127665   1.510   0.416   1.241  0.1412  1.7552  0.0910
 2058TIP3    H227666   1.631   0.460   1.161  1.0849 -1.1988 -0.1601
 2059TIP3   OH227667   1.478   2.551   1.939  0.6612  0.1378  0.2638
 2059TIP3    H127668   1.488   2.641   1.906 -2.0679 -0.6898 -3.0392
 2059TIP3    H227669   1.562   2.510   1.920  1.1662  1.3705 -0.2376
 2060TIP3   OH227670   4.755   6.265  14.297 -0.2374  0.5873 -0.0408
 2060TIP3    H127671   4.807   6.201  14.347  0.6344  1.5336  0.2613
 2060TIP3    H227672   4.739   6.222  14.213  0.7399  0.1458 -0.0098
 2061TIP3   OH227673   5.787   0.954  15.286 -0.2980 -0.2636  0.6656
 2061TIP3    H127674   5.775   0.964  15.192  0.3907 -0.1220  0.5896
 2061TIP3    H227675   5.700   0.969  15.323 -0.2669  1.1974  0.1799
 2062TIP3   OH227676   4.920   2.280  16.931  0.4112  0.2192 -0.1616
 2062TIP3    H127677   4.860   2.211  16.901  0.8770  1.0558 -3.1799
 2062TIP3    H227678   5.006   2.252  16.900  0.8830  1.2577  0.1856
 2063TIP3   OH227679   3.735   2.593   2.824 -0.4050 -0.2714 -0.5011
 2063TIP3    H127680   3.739   2.569   2.731  2.9439  0.1186 -0.5473
 2063TIP3    H227681   3.820   2.565   2.859 -1.3046  0.3441  2.2587
 2064TIP3   OH227682   4.762   0.527  11.509 -0.0126  0.6223 -0.2700
 2064TIP3    H127683   4.795   0.455  11.456 -2.1825 -0.1516 -0.6261
 2064TIP3    H227684   4.800   0.512  11.596  0.6932 -0.1377 -0.7090
 2065TIP3   OH227685   0.056   5.162   1.558 -0.4626 -0.1459  0.1071
 2065TIP3    H127686   0.012   5.246   1.574 -0.8014  0.1220 -2.0824
 2065TIP3    H227687   0.148   5.185   1.546 -0.5555 -0.0883 -0.4933
 2066TIP3   OH227688   0.086   5.345  13.199 -0.0432  0.1202 -0.0043
 2066TIP3    H127689   0.005   5.365  13.152  0.5187  0.5838 -0.7967
 2066TIP3    H227690   0.087   5.406  13.273  0.9931  2.1687 -1.6404
 2067TIP3   OH227691   3.846   2.943   5.883 -0.3258 -0.3718  0.0625
 2067TIP3    H127692   3.811   2.878   5.944 -2.4522  0.0499 -0.6564
 2067TIP3    H227693   3.899   3.001   5.937  0.6811 -2.0317  0.9075
 2068TIP3   OH227694   3.106   0.819  12.106  0.0004 -0.3935  0.5471
 2068TIP3    H127695   3.081   0.874  12.032  1.7933 -0.4846 -0.1569
 2068TIP3    H227696   3.153   0.878  12.165 -1.8863 -0.1956  1.8985
 2069TIP3   OH227697   3.958   4.694   4.771  0.2282 -0.1559  0.7949
 2069TIP3    H127698   3.999   4.765   4.722  0.2652 -0.5520  0.2494
 2069TIP3    H227699   3.996   4.614   4.735 -1.4391 -0.5674 -0.1356
 2070TIP3   OH227700   0.485   0.260  15.800 -0.4498 -0.2028 -0.0918
 2070TIP3    H127701   0.465   0.352  15.816  0.9282  0.2102 -0.6629
 2070TIP3    H227702   0.578   0.251  15.821 -0.3185 -1.2246 -1.0038
 2071TIP3   OH227703   4.818   6.348   2.405 -0.5529 -0.2207  0.6721
 2071TIP3    H127704   4.838   6.419   2.466  0.4170  0.2579 -0.1977
 2071TIP3    H227705   4.723   6.338   2.411 -0.5748  0.4358  1.5835
 2072TIP3   OH227706   3.715   1.956   2.954 -0.4513  0.0185  0.0885
 2072TIP3    H127707   3.631   2.003   2.951 -0.2538  0.3984  0.4075
 2072TIP3    H227708   3.779   2.020   2.925 -0.1454  0.0263  0.7603
 2073TIP3   OH227709   2.794   4.505   2.459  0.1926  0.8640 -0.2254
 2073TIP3    H127710   2.769   4.483   2.370  0.5740  0.9775 -0.3610
 2073TIP3    H227711   2.795   4.422   2.506  1.3852  0.6262 -0.6710
 2074TIP3   OH227712   1.133   6.602   0.644 -1.3057  0.3883  0.2170
 2074TIP3    H127713   1.200   6.578   0.708 -1.9472  1.0956  1.1664
 2074TIP3    H227714   1.101   6.519   0.610 -0.9663  0.0090  0.8303
 2075TIP3   OH227715   5.774   3.291   5.982 -0.1530  0.0299 -0.3149
 2075TIP3    H127716   5.756   3.348   6.057  0.6070  1.1180 -0.9425
 2075TIP3    H227717   5.779   3.203   6.019 -1.6848  0.3282  0.6202
 2076TIP3   OH227718   3.785   3.384   4.812 -0.5609 -0.7388  0.3187
 2076TIP3    H127719   3.741   3.427   4.885 -2.1166 -2.3163  0.3351
 2076TIP3    H227720   3.876   3.376   4.841 -1.0981 -1.1039  1.9781
 2077TIP3   OH227721   3.044   2.806  14.509 -0.4956  0.5026  0.1760
 2077TIP3    H127722   3.122   2.815  14.564 -0.4004 -0.4789  0.2117
 2077TIP3    H227723   3.078   2.775  14.425 -0.9145 -0.5972  0.4055
 2078TIP3   OH227724   6.106   6.454  11.692  0.1069  0.0484  0.4288
 2078TIP3    H127725   6.148   6.525  11.643  0.5906 -0.9940 -0.6749
 2078TIP3    H227726   6.179   6.401  11.724 -0.2875 -0.3730  0.6233
 2079TIP3   OH227727   4.052   5.976   1.614  0.5253  0.1308  0.4203
 2079TIP3    H127728   4.030   5.891   1.652 -1.4817  0.5471  0.2667
 2079TIP3    H227729   4.109   5.955   1.540  0.2747 -1.0686  0.5542
 2080TIP3   OH227730   1.001   0.819   4.189  0.0474  0.8615  0.0938
 2080TIP3    H127731   1.056   0.888   4.227 -0.7709  1.1318  0.8038
 2080TIP3    H227732   0.943   0.866   4.128 -0.1155  0.7170  0.1393
 2081TIP3   OH227733   4.889   4.194  11.597 -0.0262 -0.6393 -0.1947
 2081TIP3    H127734   4.940   4.255  11.650  1.6592 -0.7609 -1.6568
 2081TIP3    H227735   4.941   4.180  11.518 -1.6189 -1.9343 -1.0556
 2082TIP3   OH227736   6.817   2.217  15.695 -0.4714 -0.1145 -0.5591
 2082TIP3    H127737   6.734   2.173  15.676 -1.1331  1.1058 -0.5716
 2082TIP3    H227738   6.797   2.272  15.771  0.1996  0.5883 -0.8937
 2083TIP3   OH227739   0.503   3.453   6.631 -0.3801  0.0096  0.0300
 2083TIP3    H127740   0.542   3.445   6.718 -0.9346  1.1250  0.3796
 2083TIP3    H227741   0.567   3.413   6.573  0.4497  0.1740  0.8222
 2084TIP3   OH227742   2.003   4.855  16.533  0.3438  0.2487 -0.3082
 2084TIP3    H127743   1.962   4.771  16.513  1.0156 -0.2444  0.3425
 2084TIP3    H227744   2.090   4.848  16.493  1.4001 -0.4246  2.0544
 2085TIP3   OH227745   3.503   5.789  11.714 -0.4207  0.1452  0.1323
 2085TIP3    H127746   3.553   5.779  11.796 -1.8047 -2.1735  0.7384
 2085TIP3    H227747   3.525   5.711  11.663  0.3530  1.5311 -1.7079
 2086TIP3   OH227748   0.553   3.304  16.783 -0.3621 -0.6271 -0.3155
 2086TIP3    H127749   0.525   3.254  16.706  0.1282 -0.3128 -0.7034
 2086TIP3    H227750   0.503   3.386  16.777 -2.4732 -1.7493  1.2588
 2087TIP3   OH227751   4.291   1.546  13.684  0.0846  0.6896  0.1995
 2087TIP3    H127752   4.291   1.450  13.682  0.2224  0.7061 -0.8280
 2087TIP3    H227753   4.319   1.567  13.773 -2.4250 -0.2168  1.2578
 2088TIP3   OH227754   5.925   3.690  16.045  0.5362 -0.1648 -0.2521
 2088TIP3    H127755   5.897   3.606  16.008  2.2156 -0.0245 -1.9171
 2088TIP3    H227756   6.002   3.669  16.097  0.4154  0.2224  0.0889
 2089TIP3   OH227757   1.837   0.953   1.444  0.7456  0.2721 -0.1470
 2089TIP3    H127758   1.840   1.034   1.495 -1.6627  0.8021 -0.7971
 2089TIP3    H227759   1.821   0.981   1.354  0.2211 -0.8956 -0.4306
 2090TIP3   OH227760   6.496   3.948   0.869  0.4479 -0.1112 -0.0834
 2090TIP3    H127761   6.422   3.923   0.815  0.7096 -1.8781  0.3688
 2090TIP3    H227762   6.510   4.041   0.848 -1.0175 -0.1179 -1.1656
 2091TIP3   OH227763   1.870   1.748  14.928  0.4375  0.1696 -0.3412
 2091TIP3    H127764   1.837   1.698  14.854  0.0457  1.0080 -0.7472
 2091TIP3    H227765   1.964   1.729  14.930  0.0508 -1.7473  0.4441
 2092TIP3   OH227766   2.753   4.839  16.306 -0.1170  0.2278  0.7133
 2092TIP3    H127767   2.667   4.834  16.347 -0.8132  2.2831 -0.4344
 2092TIP3    H227768   2.811   4.873  16.374 -1.0731  2.7236  0.3086
 2093TIP3   OH227769   0.113   2.372   4.488  0.0334 -0.5945  0.2260
 2093TIP3    H127770   0.039   2.322   4.523 -2.0185  2.0117 -0.2152
 2093TIP3    H227771   0.078   2.416   4.411  2.3108  0.0004 -0.5044
 2094TIP3   OH227772   4.767   3.850  15.547  0.0263 -0.4925 -0.0893
 2094TIP3    H127773   4.789   3.858  15.454 -1.7936 -1.6830 -0.6484
 2094TIP3    H227774   4.846   3.878  15.593  0.0062  2.7513 -1.9517
 2095TIP3   OH227775   4.498   6.768  13.407 -0.6133  0.4960  0.7431
 2095TIP3    H127776   4.429   6.703  13.423  0.0264 -0.0840  1.1708
 2095TIP3    H227777   4.455   6.853  13.421 -1.3261  0.1481  0.6698
 2096TIP3   OH227778   6.469   5.477  13.747 -0.1572  0.0117  0.2868
 2096TIP3    H127779   6.397   5.472  13.811 -0.6814 -0.4622 -0.3286
 2096TIP3    H227780   6.494   5.569  13.747 -0.8950  0.2183  0.3725
 2097TIP3   OH227781   2.493   4.424  13.892 -0.3079 -0.0997 -0.2467
 2097TIP3    H127782   2.471   4.515  13.911 -1.5518 -0.6636  1.0923
 2097TIP3    H227783   2.490   4.380  13.977 -0.5278 -1.5688 -0.9954
 2098TIP3   OH227784   0.920   1.798  13.744  0.4065 -0.5118 -0.4800
 2098TIP3    H127785   0.940   1.747  13.822 -0.2199  0.9129  0.6546
 2098TIP3    H227786   0.827   1.781  13.727  0.8364 -1.7802 -1.6698
 2099TIP3   OH227787   1.602   5.291  12.572 -0.0370 -0.4883  0.0690
 2099TIP3    H127788   1.677   5.350  12.575  2.1500 -3.1305 -0.6012
 2099TIP3    H227789   1.581   5.283  12.479  0.0063 -1.1377  0.1102
 2100TIP3   OH227790   6.453   2.500  14.089  0.3790  0.0044 -0.0026
 2100TIP3    H127791   6.471   2.460  14.004 -0.5733 -1.8642  0.6431
 2100TIP3    H227792   6.457   2.427  14.151 -1.6424  0.8529  1.1835
 2101TIP3   OH227793   0.088   5.939  11.723 -0.0974  0.1756 -0.1030
 2101TIP3    H127794   0.151   5.983  11.666  2.5083 -1.3735  1.5203
 2101TIP3    H227795   0.125   5.948  11.811 -2.1663 -0.7530  0.8951
 2102TIP3   OH227796   0.066   4.434   4.974  0.2565 -0.5104 -0.2286
 2102TIP3    H127797   0.147   4.395   4.940 -1.2951 -2.6722 -1.5366
 2102TIP3    H227798   0.091   4.524   4.996  3.2476 -1.3879  0.2989
 2103TIP3   OH227799   6.048   1.010   1.732 -0.2401  0.4249  0.0321
 2103TIP3    H127800   6.020   0.952   1.803  2.2717 -0.6188  0.2208
 2103TIP3    H227801   6.016   0.968   1.652 -1.1831  0.4788  0.3666
 2104TIP3   OH227802   0.545   6.792   4.959  0.0263  0.7291  0.1125
 2104TIP3    H127803   0.575   6.713   4.913  0.1257  0.2433  1.0099
 2104TIP3    H227804   0.626   6.839   4.979  0.1808 -0.3141  2.0493
 2105TIP3   OH227805   3.969   6.423  14.244 -0.7279  0.0466  0.1104
 2105TIP3    H127806   4.022   6.490  14.199 -0.6464  0.7699  1.2595
 2105TIP3    H227807   3.906   6.394  14.178  1.2818 -1.0321 -1.3667
 2106TIP3   OH227808   0.730   4.079  12.599  0.8501 -0.3580 -0.4700
 2106TIP3    H127809   0.751   4.000  12.548  3.1009 -0.0977 -0.0096
 2106TIP3    H227810   0.762   4.060  12.687  0.2384  0.5879 -0.0309
 2107TIP3   OH227811   6.455   5.795  17.229  0.1198  0.4756  0.3230
 2107TIP3    H127812   6.373   5.782  17.181  1.1058 -2.7552 -0.6082
 2107TIP3    H227813   6.444   5.742  17.308  2.0592 -1.6838 -0.7993
 2108TIP3   OH227814   2.483   4.597  14.217  0.0493 -0.1423 -0.0366
 2108TIP3    H127815   2.440   4.634  14.294  1.3156 -1.0514  1.1465
 2108TIP3    H227816   2.550   4.538  14.254  1.8130  0.7005 -1.8231
 2109TIP3   OH227817   1.735   3.012  11.875  0.3148  0.5257 -0.0278
 2109TIP3    H127818   1.799   2.971  11.934  0.1614 -0.3799 -0.4806
 2109TIP3    H227819   1.785   3.032  11.796 -0.1311 -0.8817 -0.6722
 2110TIP3   OH227820   1.952   5.822  11.627 -0.1066 -0.0030  0.3559
 2110TIP3    H127821   1.910   5.760  11.568  1.4628  0.2597 -1.0950
 2110TIP3    H227822   1.926   5.908  11.594  2.0743  0.1744 -0.9939
 2111TIP3   OH227823   0.754   6.370   1.792  0.0852  0.3652 -0.0303
 2111TIP3    H127824   0.832   6.425   1.788  0.9239 -0.9215 -2.3245
 2111TIP3    H227825   0.786   6.285   1.823 -0.4917 -0.0286 -0.5072
 2112TIP3   OH227826   4.836   3.729  10.719 -0.1073  0.1895  0.2402
 2112TIP3    H127827   4.775   3.753  10.649 -1.0625  2.0575  1.6566
 2112TIP3    H227828   4.923   3.749  10.684 -0.6318  1.7968 -0.1488
 2113TIP3   OH227829   2.516   4.892  13.751 -0.0288 -0.3428 -0.5352
 2113TIP3    H127830   2.582   4.828  13.725  0.5708  0.5145 -1.1603
 2113TIP3    H227831   2.558   4.977  13.737 -0.9011  0.1938  0.0417
 2114TIP3   OH227832   6.216   0.292   1.903 -0.0642  0.0971  0.2119
 2114TIP3    H127833   6.252   0.373   1.939  1.2994 -0.2959 -0.2045
 2114TIP3    H227834   6.217   0.231   1.976 -0.6830  0.3339  0.4168
 2115TIP3   OH227835   1.429   3.495   0.846 -0.0732  0.2476  0.4249
 2115TIP3    H127836   1.491   3.536   0.906  0.0083 -0.9659  1.1968
 2115TIP3    H227837   1.364   3.453   0.903  0.2979 -1.3772 -0.3050
 2116TIP3   OH227838   5.140   1.381  13.649 -0.4246  0.2399 -0.3323
 2116TIP3    H127839   5.136   1.299  13.699 -1.1689  1.1123  1.0692
 2116TIP3    H227840   5.061   1.379  13.594 -0.1527 -0.2315 -0.7136
 2117TIP3   OH227841   3.275   6.081   3.970  0.2390 -0.7586  0.0829
 2117TIP3    H127842   3.352   6.025   3.957 -1.1615 -3.1616  1.8889
 2117TIP3    H227843   3.207   6.042   3.915 -0.1595  0.4622 -0.3188
 2118TIP3   OH227844   0.396   3.525   5.237  0.2964  0.0640  0.8958
 2118TIP3    H127845   0.477   3.556   5.196 -0.4291 -0.9739 -1.4140
 2118TIP3    H227846   0.326   3.569   5.189 -0.5347  0.8683  2.8086
 2119TIP3   OH227847   0.547   1.019   3.033  0.3047 -0.4961  0.9409
 2119TIP3    H127848   0.580   0.930   3.028 -2.3284 -1.4197 -1.0470
 2119TIP3    H227849   0.615   1.072   2.993  0.4198 -2.0490 -0.9574
 2120TIP3   OH227850   3.654   5.877   1.167 -0.0298  0.6993  0.7253
 2120TIP3    H127851   3.602   5.895   1.245 -0.4894  1.4260  0.2495
 2120TIP3    H227852   3.727   5.939   1.171 -0.7184  1.5657 -0.0546
 2121TIP3   OH227853   6.813   3.359   5.169 -0.3280  0.7203 -0.5624
 2121TIP3    H127854   6.848   3.417   5.101  1.4589  0.1630 -0.1380
 2121TIP3    H227855   6.888   3.341   5.226 -1.4620 -0.0182  0.7156
 2122TIP3   OH227856   5.791   5.006   4.658  0.7953 -0.1451  0.2859
 2122TIP3    H127857   5.872   4.955   4.663  0.4163 -0.7075  0.8338
 2122TIP3    H227858   5.764   5.000   4.566  1.5459  0.3164  0.0346
 2123TIP3   OH227859   6.133   1.245   4.437 -0.4081  0.2810  0.4013
 2123TIP3    H127860   6.038   1.257   4.444 -0.3199  2.4167 -1.5115
 2123TIP3    H227861   6.169   1.294   4.511 -0.7804 -0.9267  1.4114
 2124TIP3   OH227862   0.648   4.981  15.923 -0.2538 -0.1966  0.1045
 2124TIP3    H127863   0.597   5.062  15.918 -1.1829 -0.7883  0.0359
 2124TIP3    H227864   0.590   4.918  15.965  0.8802 -0.5168  1.2549
 2125TIP3   OH227865   5.868   6.774   5.987  0.4056  0.4966 -0.0626
 2125TIP3    H127866   5.874   6.681   6.010  2.3782  0.3605 -1.0321
 2125TIP3    H227867   5.818   6.813   6.059  1.5747 -0.9027  1.5510
 2126TIP3   OH227868   5.650   4.407   5.712 -0.1310 -0.0961  0.1163
 2126TIP3    H127869   5.655   4.371   5.800 -0.8475 -2.2086 -0.6807
 2126TIP3    H227870   5.733   4.380   5.671 -0.1322  0.2324 -0.1049
 2127TIP3   OH227871   0.661   2.473  13.244  0.3460  0.0041  0.4158
 2127TIP3    H127872   0.599   2.545  13.249  0.9183  0.5334  0.0543
 2127TIP3    H227873   0.684   2.455  13.336 -0.1269 -0.0028  0.5314
 2128TIP3   OH227874   1.097   6.014  15.637 -0.0820 -0.2524  0.3470
 2128TIP3    H127875   1.023   6.030  15.578 -1.3299 -1.1595  1.6460
 2128TIP3    H227876   1.145   6.097  15.636 -0.7931  0.1729 -0.9462
 2129TIP3   OH227877   5.602   3.153   1.034  0.2353 -0.5251  0.8374
 2129TIP3    H127878   5.529   3.145   1.096  1.8220 -0.1859  2.8084
 2129TIP3    H227879   5.628   3.245   1.039 -0.6537 -0.1178 -1.5747
 2130TIP3   OH227880   4.777   6.263   5.240 -0.7663 -0.0967  0.1347
 2130TIP3    H127881   4.719   6.204   5.193 -1.9963  1.9445 -0.9749
 2130TIP3    H227882   4.721   6.305   5.306 -0.0697  0.3336  0.4645
 2131TIP3   OH227883   4.481   0.451  14.955 -0.8716 -0.5548 -0.0694
 2131TIP3    H127884   4.508   0.383  15.016 -1.6404 -0.7104  0.1005
 2131TIP3    H227885   4.425   0.406  14.891  0.7084 -0.5901 -1.4524
 2132TIP3   OH227886   0.944   4.753  17.058  0.2840  0.7427 -0.2582
 2132TIP3    H127887   0.983   4.758  17.145  0.7883 -0.7333 -0.4015
 2132TIP3    H227888   0.868   4.695  17.068 -0.3947  1.5593 -0.5381
 2133TIP3   OH227889   6.411   2.852   2.277 -0.1560  0.6501  0.3069
 2133TIP3    H127890   6.456   2.863   2.361 -0.4051  1.7627  0.3044
 2133TIP3    H227891   6.479   2.861   2.211  0.3451 -1.9383  0.4202
 2134TIP3   OH227892   1.341   4.094   3.614  0.3941  0.3554  0.2008
 2134TIP3    H127893   1.311   4.125   3.699 -0.7152 -0.3801  0.0857
 2134TIP3    H227894   1.265   4.050   3.576  0.8502  0.7442 -1.2063
 2135TIP3   OH227895   1.467   4.041  15.110  0.2153 -0.1487 -0.6014
 2135TIP3    H127896   1.533   3.989  15.064 -0.9014 -1.4747 -0.7400
 2135TIP3    H227897   1.438   3.984  15.182 -1.2714  0.1240 -0.9616
 2136TIP3   OH227898   6.081   0.799  14.410  0.2649  0.6105 -0.2743
 2136TIP3    H127899   6.163   0.755  14.391 -1.8866 -3.0387 -1.6159
 2136TIP3    H227900   6.040   0.812  14.325 -2.1254 -0.9392  0.5910
 2137TIP3   OH227901   4.730   0.773  16.256  0.2251  0.1433  0.6141
 2137TIP3    H127902   4.727   0.827  16.177 -0.9058 -2.1332 -0.9293
 2137TIP3    H227903   4.751   0.835  16.326 -1.0099  2.5906 -1.1110
 2138TIP3   OH227904   4.499   6.737   5.333  0.2726 -0.3426 -0.2164
 2138TIP3    H127905   4.523   6.654   5.290  1.5804 -0.9344  1.5638
 2138TIP3    H227906   4.582   6.785   5.338  0.0120 -0.0146  1.0165
 2139TIP3   OH227907   4.316   4.865   4.863 -0.2729 -0.0615 -0.3085
 2139TIP3    H127908   4.405   4.886   4.892  0.2993 -0.5012 -1.7450
 2139TIP3    H227909   4.261   4.926   4.912  0.7887  0.0935  0.7358
 2140TIP3   OH227910   2.486   4.908   4.840  0.3710 -0.4778 -0.3002
 2140TIP3    H127911   2.499   4.861   4.757  0.8602 -1.0910  0.1202
 2140TIP3    H227912   2.404   4.873   4.875 -0.2091  0.2940 -0.8631
 2141TIP3   OH227913   3.652   1.076  14.448  0.3401  0.4815  0.3663
 2141TIP3    H127914   3.718   1.045  14.509 -1.4561 -1.8076  1.2143
 2141TIP3    H227915   3.645   1.170  14.465  2.8894  0.6471  0.6656
 2142TIP3   OH227916   3.210   6.648  12.237 -0.0952  0.4613  0.0981
 2142TIP3    H127917   3.298   6.670  12.206 -0.1011 -1.2840 -1.1862
 2142TIP3    H227918   3.152   6.689  12.173 -0.1938  0.5431  0.2404
 2143TIP3   OH227919   1.129   4.546   2.298  0.3382 -0.1139  0.1014
 2143TIP3    H127920   1.063   4.476   2.300 -0.6365  0.7557 -1.1038
 2143TIP3    H227921   1.111   4.599   2.376  1.0767 -1.1878  1.0194
 2144TIP3   OH227922   1.607   4.740  14.313 -0.0921  0.5941 -0.1995
 2144TIP3    H127923   1.684   4.703  14.269 -1.3893  0.9013 -2.8777
 2144TIP3    H227924   1.538   4.676  14.297 -0.9057  1.3313  0.3097
 2145TIP3   OH227925   0.605   3.204   4.035  0.4911  0.1203  0.0968
 2145TIP3    H127926   0.581   3.111   4.034 -0.0211  0.2451  0.3564
 2145TIP3    H227927   0.539   3.244   4.092 -0.4638  0.9477 -1.5547
 2146TIP3   OH227928   1.519   5.083   1.786 -0.5761  0.3113  0.3763
 2146TIP3    H127929   1.608   5.090   1.751 -0.0288 -2.2841  1.1480
 2146TIP3    H227930   1.531   5.065   1.879 -1.9892  3.2754  1.1899
 2147TIP3   OH227931   0.508   1.214   0.963 -0.2390 -0.2896  0.1412
 2147TIP3    H127932   0.519   1.125   0.930  0.9894  0.4723 -1.6016
 2147TIP3    H227933   0.586   1.261   0.933 -1.0858  1.4915  0.6121
 2148TIP3   OH227934   5.650   5.623  11.478 -0.7942  0.0177  0.1928
 2148TIP3    H127935   5.624   5.650  11.390 -0.3024  0.4302  0.1715
 2148TIP3    H227936   5.670   5.530  11.469 -0.3631  0.1487 -0.2244
 2149TIP3   OH227937   2.794   1.996   5.415 -0.5502  0.1321 -0.5336
 2149TIP3    H127938   2.737   1.999   5.493  0.2608 -0.0095  0.0731
 2149TIP3    H227939   2.877   1.961   5.448 -0.7945 -1.7150 -1.8435
 2150TIP3   OH227940   4.681   4.113  12.083  0.5243  0.1257 -0.0536
 2150TIP3    H127941   4.722   4.106  12.170 -0.3338 -0.3282  0.3193
 2150TIP3    H227942   4.754   4.109  12.022  1.1146  0.1958  0.6425
 2151TIP3   OH227943   0.866   1.557   2.801 -0.6647 -0.3601  0.4290
 2151TIP3    H127944   0.885   1.470   2.764 -0.5015 -0.0182 -0.3060
 2151TIP3    H227945   0.936   1.572   2.864  0.5477  0.1460 -1.0006
 2152TIP3   OH227946   4.532   2.175   1.135  0.0665 -0.4677 -0.0124
 2152TIP3    H127947   4.481   2.215   1.066 -0.2398 -2.3605 -0.9225
 2152TIP3    H227948   4.620   2.166   1.099  0.3549  0.2276  0.5186
 2153TIP3   OH227949   3.842   4.667  13.432 -0.7879  0.3610  0.5404
 2153TIP3    H127950   3.831   4.647  13.525  0.2669 -1.5154  0.2814
 2153TIP3    H227951   3.923   4.622  13.407 -0.1833  2.1910 -0.9096
 2154TIP3   OH227952   1.435   1.050  15.187 -0.1735 -0.4781 -0.4792
 2154TIP3    H127953   1.479   1.117  15.135  0.6057 -1.4106 -1.0228
 2154TIP3    H227954   1.506   0.996  15.222 -0.6736  0.1818  1.6196
 2155TIP3   OH227955   5.368   3.388  10.961  0.3393  0.1518  0.2053
 2155TIP3    H127956   5.404   3.323  11.021  0.1951 -1.4432 -1.3798
 2155TIP3    H227957   5.360   3.341  10.878 -0.6232  1.9498 -0.7393
 2156TIP3   OH227958   0.642   2.028  12.920  0.1136  0.2937 -0.1879
 2156TIP3    H127959   0.555   2.054  12.949  0.2040 -0.2660  0.6085
 2156TIP3    H227960   0.691   2.110  12.913 -0.2014  0.5221  0.2797
 2157TIP3   OH227961   0.657   5.050  16.747 -0.5009  0.7280  0.0469
 2157TIP3    H127962   0.687   5.119  16.805 -0.5168  0.2483  0.6394
 2157TIP3    H227963   0.735   5.025  16.696  0.1095 -0.4925  1.5505
 2158TIP3   OH227964   3.185   6.208  14.117  0.0650  0.9180  0.0219
 2158TIP3    H127965   3.265   6.233  14.070 -0.1286  0.5502 -0.5029
 2158TIP3    H227966   3.116   6.210  14.051  0.4483 -3.3800 -0.6356
 2159TIP3   OH227967   0.780   1.669   4.764 -0.2468  0.0687  0.4207
 2159TIP3    H127968   0.843   1.617   4.814 -4.0037 -0.8597  4.5665
 2159TIP3    H227969   0.723   1.603   4.724  0.0984  0.9269 -1.5156
 2160TIP3   OH227970   4.389   0.065  11.695 -0.3833  0.5553 -0.1382
 2160TIP3    H127971   4.309   0.110  11.720  0.7714  0.8455  3.3049
 2160TIP3    H227972   4.387  -0.018  11.742  0.8289  0.1386 -0.7890
 2161TIP3   OH227973   1.621   5.936   2.807  0.0456 -0.3564  0.5694
 2161TIP3    H127974   1.550   5.892   2.760  0.7518  0.6870 -1.5355
 2161TIP3    H227975   1.666   5.865   2.853 -0.0828 -1.5746 -1.1208
 2162TIP3   OH227976   6.723   5.494   5.820 -0.5334 -0.1170 -0.0409
 2162TIP3    H127977   6.649   5.531   5.771  0.7485  1.3108 -0.9445
 2162TIP3    H227978   6.738   5.555   5.891 -0.3198 -0.4978  0.2458
 2163TIP3   OH227979   3.544   1.994   3.661  0.2650 -0.1993 -0.0713
 2163TIP3    H127980   3.627   2.041   3.654 -0.0726  0.4393  0.2259
 2163TIP3    H227981   3.507   2.022   3.744 -0.5482 -0.0077 -0.4942
 2164TIP3   OH227982   1.287   2.084   0.688 -0.4752  0.0523  0.7803
 2164TIP3    H127983   1.210   2.037   0.656 -1.2896  0.6123  1.8790
 2164TIP3    H227984   1.253   2.169   0.717  0.7836  0.8323 -0.0029
 2165TIP3   OH227985   3.480   4.054   1.987  0.2259  0.2931 -0.2234
 2165TIP3    H127986   3.509   3.985   1.927 -0.4280 -0.7332  0.6221
 2165TIP3    H227987   3.522   4.133   1.954 -2.0077  0.2137 -3.4998
 2166TIP3   OH227988   0.927   2.649  13.231  0.7449  0.5511  0.4046
 2166TIP3    H127989   0.995   2.584  13.215 -0.3159 -0.4366 -0.2394
 2166TIP3    H227990   0.853   2.620  13.177 -0.4840  1.0998  1.7292
 2167TIP3   OH227991   6.267   4.053   1.049 -0.1122  0.7368 -0.1313
 2167TIP3    H127992   6.242   4.062   0.958 -1.5178  0.9563  0.2604
 2167TIP3    H227993   6.349   4.003   1.047 -1.1744 -1.0270 -1.4135
 2168TIP3   OH227994   4.449   5.073   3.171 -0.2360  0.3824 -0.2227
 2168TIP3    H127995   4.431   5.041   3.260 -0.0284  1.4630  0.2218
 2168TIP3    H227996   4.396   5.152   3.163  1.4535  1.5408 -0.2353
 2169TIP3   OH227997   6.150   0.993   6.349  0.2794  0.5496 -0.4138
 2169TIP3    H127998   6.099   1.073   6.336 -0.5866  0.0629 -0.0594
 2169TIP3    H227999   6.130   0.939   6.273  0.5385  0.4913 -0.4435
 2170TIP3   OH228000   0.404   2.274   1.404 -0.0362  0.3692  0.0206
 2170TIP3    H128001   0.333   2.328   1.438  0.6819  0.8407  0.7993
 2170TIP3    H228002   0.476   2.287   1.467  0.5679 -0.4817 -0.4864
 2171TIP3   OH228003   2.757   2.215  15.649  0.0757 -0.3636 -0.6587
 2171TIP3    H128004   2.830   2.231  15.709 -0.6550 -1.7116  0.6037
 2171TIP3    H228005   2.768   2.124  15.623 -1.5278 -0.7608  0.0429
 2172TIP3   OH228006   4.760   6.569   4.111 -0.2576  0.7575 -0.0705
 2172TIP3    H128007   4.715   6.650   4.134  1.1293  2.0285 -1.7612
 2172TIP3    H228008   4.850   6.582   4.138  0.2242  0.2281 -1.4006
 2173TIP3   OH228009   0.574   0.961  13.972  0.4635 -0.3539  0.5311
 2173TIP3    H128010   0.556   1.038  13.918  1.1866 -0.8152 -0.3925
 2173TIP3    H228011   0.665   0.939  13.953 -0.3195 -2.6926 -0.8575
 2174TIP3   OH228012   5.393   3.569  11.265 -0.4209  0.3157  0.0396
 2174TIP3    H128013   5.321   3.509  11.245  0.0186  0.4742 -2.2389
 2174TIP3    H228014   5.359   3.626  11.334 -1.8392 -0.7368  0.2380
 2175TIP3   OH228015   1.424   0.807  11.805 -0.0327 -0.8379 -0.1805
 2175TIP3    H128016   1.388   0.764  11.728  0.2950 -2.0269  0.3199
 2175TIP3    H228017   1.506   0.846  11.775 -0.1707 -0.8362 -0.5523
 2176TIP3   OH228018   0.269   6.110   6.368 -0.4725 -0.4356  0.7363
 2176TIP3    H128019   0.250   6.204   6.360  0.7773 -0.3811 -2.3364
 2176TIP3    H228020   0.355   6.100   6.327 -0.8790 -3.0510  0.4622
 2177TIP3   OH228021   0.883   4.723   0.747  0.1946 -0.5421 -0.5883
 2177TIP3    H128022   0.860   4.637   0.711  0.9321 -1.5052  1.1238
 2177TIP3    H228023   0.965   4.706   0.795 -0.1821  0.9028  0.5821
 2178TIP3   OH228024   6.474   0.971   1.864  0.2285  0.1782  0.1443
 2178TIP3    H128025   6.543   0.930   1.812  1.1964 -0.3355  1.8082
 2178TIP3    H228026   6.512   1.054   1.893 -0.8935  1.2189 -1.2844
 2179TIP3   OH228027   1.821   6.339  15.792 -0.2075 -0.7106 -0.3623
 2179TIP3    H128028   1.788   6.250  15.805  0.1732 -0.5715  1.7133
 2179TIP3    H228029   1.900   6.343  15.845  0.0368  0.7373 -0.8138
 2180TIP3   OH228030   5.209   0.646   1.803 -0.5726 -0.1002 -0.0350
 2180TIP3    H128031   5.244   0.734   1.788  0.8936 -1.0491 -2.3988
 2180TIP3    H228032   5.264   0.610   1.872  0.1464  0.1098 -0.4885
 2181TIP3   OH228033   1.375   6.761  15.747  0.2079  0.8030 -0.2794
 2181TIP3    H128034   1.423   6.808  15.678  0.0545  1.8544  0.3149
 2181TIP3    H228035   1.355   6.676  15.708  0.9507  1.0286 -1.1976
 2182TIP3   OH228036   2.767   4.707   6.463  0.4370 -0.4942 -0.6234
 2182TIP3    H128037   2.828   4.763   6.413  0.5167 -0.6767 -0.7325
 2182TIP3    H228038   2.723   4.767   6.522  0.7852 -0.3720 -0.4848
 2183TIP3   OH228039   5.337   1.341  16.152  0.0639  0.1455  0.5010
 2183TIP3    H128040   5.400   1.406  16.122 -1.7567  0.7013 -2.2827
 2183TIP3    H228041   5.252   1.386  16.147 -0.8662 -1.4446  1.5568
 2184TIP3   OH228042   3.247   0.070   2.597  0.2657 -0.0726 -0.2971
 2184TIP3    H128043   3.257   0.154   2.554 -0.7532 -0.4228 -1.2331
 2184TIP3    H228044   3.334   0.030   2.593  0.5460  0.5703 -0.6023
 2185TIP3   OH228045   5.446   2.922   1.252 -0.1143 -0.3935 -0.2577
 2185TIP3    H128046   5.530   2.911   1.207  0.1016 -2.2983  0.5835
 2185TIP3    H228047   5.470   2.934   1.344 -0.6583  1.4117 -0.3401
 2186TIP3   OH228048   0.052   4.093   4.375 -0.2380  0.0037  0.0494
 2186TIP3    H128049   0.099   4.165   4.332 -0.2287 -0.9555 -1.5626
 2186TIP3    H228050   0.115   4.021   4.378 -1.2933 -0.9957 -1.3105
 2187TIP3   OH228051   1.656   1.046  15.709 -0.5512  0.1395  0.4371
 2187TIP3    H128052   1.685   1.129  15.670 -0.7923 -0.9833 -2.2640
 2187TIP3    H228053   1.578   1.022  15.658  1.5656 -3.5163 -1.2815
 2188TIP3   OH228054   6.138   2.272  12.503  0.0764 -0.6398 -0.2084
 2188TIP3    H128055   6.074   2.334  12.467  0.2514 -1.4470 -2.0049
 2188TIP3    H228056   6.140   2.290  12.597 -2.3620 -0.2190 -0.2096
 2189TIP3   OH228057   3.726   2.366   3.604 -0.2015  0.1885 -0.6725
 2189TIP3    H128058   3.717   2.446   3.552 -0.4238  0.5644 -0.0691
 2189TIP3    H228059   3.636   2.345   3.631 -0.0930 -0.0187 -0.4682
 2190TIP3   OH228060   6.218   6.496  12.223  0.4225 -0.4316  0.4984
 2190TIP3    H128061   6.259   6.471  12.140  0.3286  0.8215  0.0580
 2190TIP3    H228062   6.273   6.567  12.256 -0.2425 -0.1042  0.9081
 2191TIP3   OH228063   0.460   5.514   6.671  0.5513 -0.2823  0.2001
 2191TIP3    H128064   0.524   5.446   6.692  1.3733 -0.0975 -1.5853
 2191TIP3    H228065   0.454   5.513   6.575 -2.0826 -0.2318  0.3321
 2192TIP3   OH228066   5.231   4.138  11.858 -0.1347  0.1137 -0.4945
 2192TIP3    H128067   5.227   4.075  11.930  0.2735  0.7476  0.1004
 2192TIP3    H228068   5.204   4.089  11.781  2.3893 -1.4255 -0.4548
 2193TIP3   OH228069   3.611   2.893  13.322 -0.5274 -0.4129 -0.1250
 2193TIP3    H128070   3.615   2.895  13.418  2.1452 -1.1264 -0.1678
 2193TIP3    H228071   3.657   2.973  13.295 -2.2575  0.3595 -0.8095
 2194TIP3   OH228072   1.444   1.749  13.844 -0.4763  0.3417  0.4988
 2194TIP3    H128073   1.475   1.666  13.808 -1.0349  0.4621 -0.2720
 2194TIP3    H228074   1.524   1.799  13.861 -0.1669 -0.0851  0.2973
 2195TIP3   OH228075   3.779   1.159   1.416 -0.7801 -0.1015 -0.2449
 2195TIP3    H128076   3.780   1.101   1.341 -1.6133 -0.6067  0.1322
 2195TIP3    H228077   3.700   1.136   1.464  0.8405 -1.2754  1.9475
 2196TIP3   OH228078   2.276   5.024   3.437 -0.9095 -0.0170  0.7004
 2196TIP3    H128079   2.245   5.112   3.414  1.0946  0.4496 -0.2918
 2196TIP3    H228080   2.328   5.036   3.516 -1.7913 -0.5516  1.3801
 2197TIP3   OH228081   2.575   1.765  15.216 -0.1665  0.5242  0.3659
 2197TIP3    H128082   2.605   1.724  15.135 -2.3157 -0.6424  0.1180
 2197TIP3    H228083   2.586   1.859  15.201  0.8189  0.2544 -0.6941
 2198TIP3   OH228084   1.067   0.945  11.727 -0.2071 -0.4886  0.2172
 2198TIP3    H128085   1.054   0.943  11.632 -0.2451  1.3944  0.1752
 2198TIP3    H228086   0.994   0.998  11.760  0.5993  0.0353  1.1592
 2199TIP3   OH228087   0.940   6.060   4.241 -0.0795  0.6285 -0.3483
 2199TIP3    H128088   0.914   6.061   4.149 -0.2923 -1.7906 -0.3567
 2199TIP3    H228089   1.009   6.126   4.248  0.5061  0.2631 -2.4223
 2200TIP3   OH228090   6.808   0.976  12.388 -0.4987 -0.1854  0.1421
 2200TIP3    H128091   6.824   0.990  12.295  0.4454  0.9077  0.4535
 2200TIP3    H228092   6.813   1.064  12.427 -0.1080 -0.7147  1.3237
 2201TIP3   OH228093   4.593   3.198  15.543 -0.1085 -0.1324 -0.2314
 2201TIP3    H128094   4.528   3.232  15.482  1.0128 -0.3218 -1.5445
 2201TIP3    H228095   4.655   3.270  15.554 -1.0035  0.3726  1.7217
 2202TIP3   OH228096   2.676   1.711  13.313 -0.7147  0.3794 -0.2665
 2202TIP3    H128097   2.620   1.777  13.354 -0.8780 -0.6271  1.1623
 2202TIP3    H228098   2.616   1.659  13.260 -0.9604 -0.0099  0.3876
 2203TIP3   OH228099   5.632   5.364   3.578  0.7922 -0.0835 -0.1876
 2203TIP3    H128100   5.595   5.448   3.549  3.2040  1.3829  0.7865
 2203TIP3    H228101   5.607   5.302   3.509  0.5859  1.8525 -1.9166
 2204TIP3   OH228102   4.398   4.911  11.887 -0.2177 -0.9469 -0.1260
 2204TIP3    H128103   4.345   4.896  11.965 -1.1902 -0.1412 -0.6110
 2204TIP3    H228104   4.470   4.849  11.894 -0.5387 -1.1856  1.1854
 2205TIP3   OH228105   1.520   0.546  14.862  0.1469  0.3182  0.1813
 2205TIP3    H128106   1.552   0.624  14.818 -0.3605 -0.6690 -2.0011
 2205TIP3    H228107   1.585   0.479  14.843 -2.3935 -1.3507 -3.1326
 2206TIP3   OH228108   1.295   3.678  12.463  0.4014  0.3828  0.0059
 2206TIP3    H128109   1.324   3.761  12.426  0.8160  0.2106 -0.0630
 2206TIP3    H228110   1.208   3.664  12.426 -0.1128  1.2988  0.8404
 2207TIP3   OH228111   4.966   2.687   4.928 -0.4832 -0.0886  0.6208
 2207TIP3    H128112   4.936   2.601   4.898 -1.3456  0.2469  0.5059
 2207TIP3    H228113   5.061   2.677   4.937 -0.2122 -0.3192 -1.8976
 2208TIP3   OH228114   5.899   0.792  15.559  0.0850  0.0963  0.2845
 2208TIP3    H128115   5.808   0.765  15.551 -0.2659  1.2663  0.1728
 2208TIP3    H228116   5.901   0.882  15.525  1.3297 -0.0192  0.0037
 2209TIP3   OH228117   2.715   0.348  16.757  0.0507 -0.2630 -0.0416
 2209TIP3    H128118   2.643   0.406  16.734 -0.9763 -1.1777  0.7914
 2209TIP3    H228119   2.673   0.274  16.800  1.6977  0.3769  2.8145
 2210TIP3   OH228120   6.657   2.004   5.247  0.0672 -0.0845  0.5081
 2210TIP3    H128121   6.735   2.059   5.255 -0.1413  0.1045  1.3442
 2210TIP3    H228122   6.690   1.914   5.254  0.3308 -0.0454 -0.2043
 2211TIP3   OH228123   1.450   4.081   2.680 -0.2690  0.2303  0.4259
 2211TIP3    H128124   1.477   4.172   2.665  0.2123  0.0761  0.3548
 2211TIP3    H228125   1.394   4.060   2.605 -0.2530  0.4192  0.3612
 2212TIP3   OH228126   6.612   2.757   2.840  0.3244  0.0198 -0.6643
 2212TIP3    H128127   6.586   2.844   2.808  0.8582  0.3986 -0.0763
 2212TIP3    H228128   6.702   2.747   2.811  0.1064 -0.5441 -1.1469
 2213TIP3   OH228129   4.647   6.382   0.928  0.6517 -0.3561  0.3982
 2213TIP3    H128130   4.639   6.363   0.835  0.9211 -0.4727  0.3982
 2213TIP3    H228131   4.592   6.459   0.942  2.2672  0.9174 -0.2586
 2214TIP3   OH228132   3.018   0.955  14.053 -0.2956  0.8125  0.2845
 2214TIP3    H128133   2.997   0.907  13.973 -0.0570  0.8756  0.1834
 2214TIP3    H228134   2.957   1.029  14.053  0.4323  1.4237 -0.3999
 2215TIP3   OH228135   0.198   4.481  15.649  0.1653 -0.0502 -0.0876
 2215TIP3    H128136   0.196   4.392  15.614  0.9770  0.2995 -1.0440
 2215TIP3    H228137   0.177   4.471  15.742  0.1835 -1.2280 -0.2066
 2216TIP3   OH228138   2.697   1.293  12.037  0.4826  0.1395 -0.0193
 2216TIP3    H128139   2.637   1.368  12.037  0.0167 -0.1972 -2.2830
 2216TIP3    H228140   2.640   1.217  12.024  1.3535 -0.2177 -1.7967
 2217TIP3   OH228141   6.575   4.673  15.265  0.1957  0.1483  0.0799
 2217TIP3    H128142   6.644   4.712  15.319  0.3853 -0.5898  0.3746
 2217TIP3    H228143   6.574   4.726  15.185  0.5432  0.6715  0.4208
 2218TIP3   OH228144   4.621   1.524  12.690  0.0808 -0.6260  0.6544
 2218TIP3    H128145   4.560   1.463  12.648  0.0273 -0.1615  0.0478
 2218TIP3    H228146   4.579   1.547  12.773 -1.4738  1.1228 -0.5734
 2219TIP3   OH228147   4.911   2.293  15.968  0.2036  0.0069  0.2273
 2219TIP3    H128148   4.846   2.229  15.940  0.2944  0.0533 -0.0874
 2219TIP3    H228149   4.935   2.340  15.888  1.0299 -0.3789  0.2461
 2220TIP3   OH228150   5.454   2.020   3.902  0.1960  0.0134 -0.3677
 2220TIP3    H128151   5.389   2.090   3.898 -1.4364 -1.4327 -0.1214
 2220TIP3    H228152   5.535   2.060   3.873 -0.1978  2.5808  1.8921
 2221TIP3   OH228153   1.199   6.089  11.778 -0.4843  0.0084 -0.0373
 2221TIP3    H128154   1.113   6.098  11.738 -0.4026 -2.0222 -0.7321
 2221TIP3    H228155   1.252   6.045  11.712  0.6380 -0.2036  0.9904
 2222TIP3   OH228156   1.246   4.038   4.056 -0.4558 -0.0156  0.3214
 2222TIP3    H128157   1.263   3.978   3.983 -0.6854 -1.3592  1.3384
 2222TIP3    H228158   1.151   4.038   4.065 -0.3970 -0.3360  0.9967
 2223TIP3   OH228159   1.206   5.608   4.426 -0.0504 -0.1368 -0.3780
 2223TIP3    H128160   1.202   5.692   4.381  0.1867 -0.9911 -2.0174
 2223TIP3    H228161   1.122   5.602   4.472 -0.0106  1.0533 -0.1446
 2224TIP3   OH228162   3.991   0.862   2.290  0.9994 -0.1080  0.3638
 2224TIP3    H128163   4.078   0.824   2.297  0.2248 -1.5388  2.8062
 2224TIP3    H228164   3.983   0.919   2.366  0.0502  0.5453 -0.2144
 2225TIP3   OH228165   4.888   5.457  16.159 -0.3151  0.2950 -0.2318
 2225TIP3    H128166   4.937   5.425  16.083 -0.8449 -1.3529  0.0983
 2225TIP3    H228167   4.917   5.401  16.231  1.5489  3.0131  1.2230
 2226TIP3   OH228168   1.742   2.542  15.909  0.3051  0.1127  0.3960
 2226TIP3    H128169   1.788   2.465  15.874 -0.0863 -0.2182  0.6124
 2226TIP3    H228170   1.798   2.572  15.981  1.4852  1.2222 -0.9414
 2227TIP3   OH228171   1.987   6.381   2.493 -0.7053 -0.0915 -0.1341
 2227TIP3    H128172   2.010   6.473   2.479 -0.4368 -0.3013 -1.0917
 2227TIP3    H228173   1.910   6.367   2.438 -1.5437 -0.0981  1.0180
 2228TIP3   OH228174   5.324   3.629   2.634 -0.4908 -0.2895  0.2533
 2228TIP3    H128175   5.232   3.618   2.608 -0.3811 -1.0974  0.1921
 2228TIP3    H228176   5.372   3.630   2.551 -0.4247 -0.0372  0.2945
 2229TIP3   OH228177   5.428   6.785  15.318 -0.9265  0.0954 -0.0970
 2229TIP3    H128178   5.487   6.712  15.301 -0.7601  0.0082  0.8560
 2229TIP3    H228179   5.461   6.825  15.399 -1.7840  0.4329  0.0910
 2230TIP3   OH228180   6.207   5.459   3.200 -0.1033  0.1565 -0.6227
 2230TIP3    H128181   6.216   5.554   3.207  0.5966  0.1489 -1.2838
 2230TIP3    H228182   6.222   5.427   3.288  0.7841  0.5822 -0.6109
 2231TIP3   OH228183   2.026   4.102  16.139 -0.0139  0.2761  0.6198
 2231TIP3    H128184   2.117   4.100  16.167  1.1154  1.1798 -2.7730
 2231TIP3    H228185   2.011   4.016  16.099 -0.0693  0.7816 -0.4683
 2232TIP3   OH228186   0.620   1.168  11.479  0.5322 -0.0476  0.2184
 2232TIP3    H128187   0.703   1.179  11.525  0.2930  1.3535  0.3476
 2232TIP3    H228188   0.631   1.216  11.397  0.0639 -0.3724 -0.0371
 2233TIP3   OH228189   2.355   1.311  12.374 -0.2952  0.2142 -0.1593
 2233TIP3    H128190   2.440   1.282  12.408 -0.0837 -0.5030 -1.2747
 2233TIP3    H228191   2.367   1.313  12.279 -1.3360  0.7213 -0.2786
 2234TIP3   OH228192   6.474   4.556  11.452 -0.7439 -0.0992 -0.2492
 2234TIP3    H128193   6.530   4.617  11.499 -0.4782 -0.6917  0.2151
 2234TIP3    H228194   6.530   4.479  11.438 -1.6579 -0.9733  0.8479
 2235TIP3   OH228195   0.507   3.073  10.479  0.1066 -0.8413  0.2059
 2235TIP3    H128196   0.548   3.160  10.479 -0.8444 -0.3755  0.9886
 2235TIP3    H228197   0.561   3.021  10.538  0.8312 -0.8563 -0.4697
 2236TIP3   OH228198   3.158   6.739   2.220 -0.3529  0.1585 -0.5153
 2236TIP3    H128199   3.221   6.668   2.228  0.1841  0.7387  0.4304
 2236TIP3    H228200   3.081   6.708   2.267 -0.1296  0.1790 -0.1293
 2237TIP3   OH228201   5.131   5.865  17.263  0.5882 -1.0145 -0.2625
 2237TIP3    H128202   5.125   5.770  17.261  1.1004 -1.1016  1.5527
 2237TIP3    H228203   5.193   5.887  17.193 -0.3247 -1.9251 -1.3755
 2238TIP3   OH228204   3.681   6.705  16.350  0.1523  0.5731 -0.3777
 2238TIP3    H128205   3.617   6.733  16.285 -0.9011  0.0532  0.4197
 2238TIP3    H228206   3.656   6.615  16.372 -0.3946  1.2405  1.8143
 2239TIP3   OH228207   2.709   2.011   3.706  0.0631  0.1598 -0.0118
 2239TIP3    H128208   2.718   2.062   3.786  1.9188 -1.6575  0.9602
 2239TIP3    H228209   2.755   1.929   3.724 -0.6122 -0.7975 -2.4758
 2240TIP3   OH228210   6.133   2.681   1.777  0.3451  0.2608  0.3683
 2240TIP3    H128211   6.087   2.619   1.721 -1.4565  1.4872  0.4509
 2240TIP3    H228212   6.216   2.639   1.797  0.0768 -1.1371 -1.4114
 2241TIP3   OH228213   2.826   1.691  15.326 -0.0941  0.2490 -0.2242
 2241TIP3    H128214   2.778   1.619  15.366  0.1151 -0.0777 -0.5573
 2241TIP3    H228215   2.765   1.765  15.327 -0.2247  0.1395  0.3362
 2242TIP3   OH228216   4.569   1.451  13.269  0.7657 -0.4081  0.2010
 2242TIP3    H128217   4.589   1.408  13.187  0.7683  1.0174 -0.5610
 2242TIP3    H228218   4.649   1.497  13.293  0.5058 -0.1427  0.5753
 2243TIP3   OH228219   3.701   6.334   1.436  0.3640 -0.0061 -0.1212
 2243TIP3    H128220   3.676   6.396   1.504 -0.6540 -0.2048 -0.2993
 2243TIP3    H228221   3.710   6.387   1.357 -0.4910 -0.0859 -0.2707
 2244TIP3   OH228222   1.041   0.553   2.836 -0.1401  0.0080  0.7947
 2244TIP3    H128223   1.029   0.519   2.924 -0.9279  1.4793  1.2787
 2244TIP3    H228224   1.074   0.642   2.848  1.2847 -0.3366 -0.4284
 2245TIP3   OH228225   5.552   0.801   6.096  0.0452  0.5691  0.3085
 2245TIP3    H128226   5.520   0.713   6.081 -0.4550  0.9146 -0.6626
 2245TIP3    H228227   5.647   0.794   6.083 -0.1935  0.5330 -1.4947
 2246TIP3   OH228228   4.738   4.628   4.670  0.0701 -0.0016 -0.4429
 2246TIP3    H128229   4.744   4.722   4.685  1.6908  0.1818 -2.0311
 2246TIP3    H228230   4.822   4.593   4.700 -0.5476 -0.9458  0.1963
 2247TIP3   OH228231   5.485   0.045  13.708 -0.2566 -0.7185 -0.2040
 2247TIP3    H128232   5.530  -0.003  13.777  1.2781  1.0547  0.0689
 2247TIP3    H228233   5.547   0.048  13.636 -0.0620  1.4416  0.0390
 2248TIP3   OH228234   4.974   4.412   3.676 -0.2209  0.4456  0.2768
 2248TIP3    H128235   4.993   4.471   3.603  1.0286  0.3708  0.5364
 2248TIP3    H228236   4.955   4.328   3.634  0.7135  0.3472  0.0485
 2249TIP3   OH228237   6.050   6.706  17.052  0.2839  0.1463  0.1988
 2249TIP3    H128238   6.118   6.668  17.107  0.7826 -0.8961 -1.1204
 2249TIP3    H228239   5.973   6.712  17.109  1.2919  0.7425  1.5127
 2250TIP3   OH228240   0.766   4.160   3.475  0.6159  0.7171  0.2394
 2250TIP3    H128241   0.758   4.065   3.465 -0.0892  0.7748  0.2120
 2250TIP3    H228242   0.677   4.193   3.464  0.7978  1.3480  0.6198
 2251TIP3   OH228243   5.224   6.477  15.837 -0.7882  0.3431  0.4539
 2251TIP3    H128244   5.150   6.446  15.787 -1.0020  0.9246  0.3980
 2251TIP3    H228245   5.194   6.560  15.875  0.7214  1.9837 -1.7780
 2252TIP3   OH228246   5.613   3.609   1.242  0.2069 -0.1055  0.1212
 2252TIP3    H128247   5.622   3.667   1.318  0.6635 -0.5524  0.4111
 2252TIP3    H228248   5.634   3.522   1.276  1.2357 -0.1901 -0.7037
 2253TIP3   OH228249   0.454   1.596   2.745 -0.3027  0.2197 -0.7530
 2253TIP3    H128250   0.362   1.621   2.755 -0.3072  0.4443 -1.3273
 2253TIP3    H228251   0.499   1.680   2.732  0.2416  0.2967  1.3569
 2254TIP3   OH228252   3.212   3.623  13.962 -0.4723  0.4971  0.3344
 2254TIP3    H128253   3.187   3.544  14.010 -1.4478 -0.1077 -1.1289
 2254TIP3    H228254   3.227   3.593  13.872  1.5521  1.5692  0.2780
 2255TIP3   OH228255   4.362   3.076  14.610  0.2233  0.2053 -0.0149
 2255TIP3    H128256   4.458   3.077  14.618  0.1724  3.0321  0.8571
 2255TIP3    H228257   4.347   3.067  14.516  1.3473 -0.0154 -0.1914
 2256TIP3   OH228258   0.697   0.994  14.240  0.8072 -0.1272 -0.0021
 2256TIP3    H128259   0.615   0.985  14.290 -0.2112  0.3154 -1.5475
 2256TIP3    H228260   0.671   0.979  14.149  2.1035  1.8611 -0.7329
 2257TIP3   OH228261   6.186   2.700  13.610 -0.1776  0.1143 -0.4825
 2257TIP3    H128262   6.241   2.661  13.678 -0.2632  1.8553  0.6259
 2257TIP3    H228263   6.245   2.710  13.535 -0.0223 -1.6183 -0.5961
 2258TIP3   OH228264   1.227   4.929   4.494  0.0930 -0.1461 -0.1939
 2258TIP3    H128265   1.180   4.924   4.410 -0.0084 -1.3236 -0.0727
 2258TIP3    H228266   1.176   4.992   4.546 -0.5253 -0.3204 -0.5819
 2259TIP3   OH228267   3.148   4.556  15.009 -0.0606 -0.0909 -0.4262
 2259TIP3    H128268   3.143   4.519  14.921 -0.1590 -1.4068  0.1164
 2259TIP3    H228269   3.213   4.503  15.054  0.3549  0.8955  0.1451
 2260TIP3   OH228270   3.021   6.209   3.322 -0.0739 -0.3209  0.2274
 2260TIP3    H128271   3.063   6.159   3.252  0.0209 -2.5650  1.8051
 2260TIP3    H228272   2.927   6.203   3.304 -0.0322 -0.6029  0.1058
 2261TIP3   OH228273   3.508   2.192   1.554 -0.5023  0.1213 -0.6282
 2261TIP3    H128274   3.558   2.183   1.634 -2.6006 -1.2897  0.5844
 2261TIP3    H228275   3.469   2.279   1.559 -2.3485 -0.7599  0.9521
 2262TIP3   OH228276   4.715   6.415   3.379 -0.0776 -0.4063 -0.3463
 2262TIP3    H128277   4.666   6.360   3.441 -1.0793  1.6616  0.7235
 2262TIP3    H228278   4.788   6.450   3.430  1.1768 -1.5618 -1.3138
 2263TIP3   OH228279   4.437   6.097   1.146  0.0944  0.0879  0.1769
 2263TIP3    H128280   4.472   6.019   1.190  0.0470  0.7206  1.3514
 2263TIP3    H228281   4.466   6.170   1.200 -0.6428  0.8256 -0.4146
 2264TIP3   OH228282   3.190   1.332   0.079  0.2931 -0.4131 -0.0216
 2264TIP3    H128283   3.147   1.269   0.022  1.0313 -0.5932 -0.3769
 2264TIP3    H228284   3.137   1.331   0.159 -2.0525  1.4492 -1.4745
 2265TIP3   OH228285   4.712   1.860   0.167  0.0755  0.1972  0.0294
 2265TIP3    H128286   4.659   1.939   0.174 -0.6785 -0.2625 -0.4069
 2265TIP3    H228287   4.735   1.855   0.074  0.1343 -0.0848  0.0581
 2266TIP3   OH228288   5.307   2.886  10.962  0.0279 -0.0690 -0.5035
 2266TIP3    H128289   5.219   2.923  10.961 -0.6311 -1.5795 -0.9242
 2266TIP3    H228290   5.337   2.897  11.052 -1.5132 -1.5641  0.2421
 2267TIP3   OH228291   5.619   1.423   3.025 -0.1461 -0.1139  0.1039
 2267TIP3    H128292   5.617   1.482   2.949 -0.9620  0.5591  0.6351
 2267TIP3    H228293   5.532   1.385   3.028 -0.0380 -0.3259  0.5652
 2268TIP3   OH228294   6.168   1.194   1.498 -0.2072 -0.4203 -0.2039
 2268TIP3    H128295   6.160   1.174   1.591 -0.3974  0.3832 -0.0409
 2268TIP3    H228296   6.154   1.110   1.454  0.7798 -0.9708  0.5235
 2269TIP3   OH228297   1.090   0.166  14.011  0.5002 -0.1921 -0.1654
 2269TIP3    H128298   1.053   0.154  14.098 -0.0897 -0.2035 -0.4068
 2269TIP3    H228299   1.157   0.233  14.022  0.3441 -0.1044  0.2774
 2270TIP3   OH228300   2.887   0.594   1.844  0.3030  0.3487  0.0060
 2270TIP3    H128301   2.889   0.572   1.751 -0.4515  1.2683 -0.2311
 2270TIP3    H228302   2.934   0.522   1.886  0.0057 -0.4551 -1.0075
 2271TIP3   OH228303   5.308   5.087  12.113  0.0938  0.0903  0.1325
 2271TIP3    H128304   5.390   5.130  12.133 -0.2378  1.0327 -0.4947
 2271TIP3    H228305   5.323   5.045  12.028 -0.8192  2.3360 -1.1943
 2272TIP3   OH228306   4.825   1.174  11.169  0.4628  0.1480 -0.2607
 2272TIP3    H128307   4.815   1.177  11.074 -0.0247 -0.8250 -0.2525
 2272TIP3    H228308   4.915   1.202  11.185  0.1146  1.7069 -0.9016
 2273TIP3   OH228309   2.594   4.337   1.509 -0.0905 -0.1014  0.0071
 2273TIP3    H128310   2.666   4.274   1.506 -0.1939 -0.2156 -0.1173
 2273TIP3    H228311   2.517   4.283   1.529 -0.1339  0.0265  0.1810
 2274TIP3   OH228312   5.834   2.072  11.934 -0.4207  0.0067  0.9334
 2274TIP3    H128313   5.896   2.040  12.000 -0.1679 -1.4798  0.0075
 2274TIP3    H228314   5.819   1.996  11.878 -1.2409  1.0393 -0.2524
 2275TIP3   OH228315   4.158   5.426  13.142 -0.6171 -0.0867 -0.0738
 2275TIP3    H128316   4.238   5.457  13.184 -1.1229  1.6484 -0.3581
 2275TIP3    H228317   4.182   5.341  13.105  0.8492  0.0267  0.5723
 2276TIP3   OH228318   3.833   0.414   0.718  0.0960 -0.3388  0.2921
 2276TIP3    H128319   3.793   0.500   0.732 -0.3749 -0.8092  1.8783
 2276TIP3    H228320   3.774   0.352   0.761 -0.0336 -1.5694 -1.5939
 2277TIP3   OH228321   0.555   0.391  15.466  0.0831 -0.1009 -0.1476
 2277TIP3    H128322   0.633   0.446  15.460  0.7867 -1.1153 -0.6406
 2277TIP3    H228323   0.570   0.321  15.402 -1.5241  0.0311 -0.6806
 2278TIP3   OH228324   3.601   6.172   3.763  0.6982  0.5307  0.1461
 2278TIP3    H128325   3.584   6.095   3.817  0.3893  1.1713  0.9641
 2278TIP3    H228326   3.642   6.137   3.684 -0.9012 -0.6348 -0.1877
 2279TIP3   OH228327   6.132   2.482   4.135  0.1439 -0.1359 -0.3559
 2279TIP3    H128328   6.128   2.555   4.197 -0.1320 -0.3278 -0.1520
 2279TIP3    H228329   6.217   2.441   4.151  0.7213  0.7363 -1.1350
 2280TIP3   OH228330   2.812   3.662  16.854  0.0146  0.0963 -0.0235
 2280TIP3    H128331   2.880   3.711  16.808 -0.9143 -0.3046 -1.8583
 2280TIP3    H228332   2.758   3.730  16.895  1.6226  0.4058  1.6097
 2281TIP3   OH228333   2.474   2.042  10.731 -0.6887 -1.3200 -0.1319
 2281TIP3    H128334   2.486   2.009  10.642  0.2029  0.8569 -0.8507
 2281TIP3    H228335   2.385   2.077  10.733 -0.4380 -0.6639 -0.4096
 2282TIP3   OH228336   4.452   4.199  16.092 -0.6965  0.4945  0.9416
 2282TIP3    H128337   4.423   4.116  16.130  0.9676 -0.5245  0.0967
 2282TIP3    H228338   4.407   4.204  16.007  1.8347 -1.3380 -0.6009
 2283TIP3   OH228339   0.314   5.249   1.543  0.1072 -0.1364  0.4167
 2283TIP3    H128340   0.349   5.185   1.481  0.3619 -0.3573  0.7869
 2283TIP3    H228341   0.343   5.334   1.508 -0.4360 -0.2052 -0.2023
 2284TIP3   OH228342   1.421   5.903  15.332 -0.0572 -0.3411 -0.2021
 2284TIP3    H128343   1.360   5.836  15.300  0.6869 -0.6611 -0.9811
 2284TIP3    H228344   1.369   5.983  15.337 -0.4389 -0.5095 -1.2961
 2285TIP3   OH228345   6.487   0.928   5.207  0.1237 -0.1947 -0.2040
 2285TIP3    H128346   6.410   0.977   5.233  0.9529  1.7420 -1.2810
 2285TIP3    H228347   6.461   0.883   5.127 -0.6055 -1.4644  0.7294
 2286TIP3   OH228348   0.045   2.455   4.217 -0.1832 -0.4421 -0.5456
 2286TIP3    H128349  -0.041   2.435   4.179 -0.0349  0.2982 -1.2827
 2286TIP3    H228350   0.107   2.432   4.149  0.0965  0.7080 -0.6980
 2287TIP3   OH228351   5.840   5.241   2.534 -0.6294  0.9543  0.2873
 2287TIP3    H128352   5.844   5.321   2.482  0.7767  0.1415 -0.8951
 2287TIP3    H228353   5.927   5.202   2.525 -1.1036 -0.3930  1.3577
 2288TIP3   OH228354   6.499   6.809   0.861 -0.8290 -0.1079  0.0060
 2288TIP3    H128355   6.472   6.901   0.869 -1.5455 -0.1713 -1.5246
 2288TIP3    H228356   6.569   6.810   0.796  0.9043 -0.3344  1.8312
 2289TIP3   OH228357   5.358   6.111  16.583 -0.0450  0.0778  0.2510
 2289TIP3    H128358   5.387   6.030  16.541  1.4972 -0.0173  1.4515
 2289TIP3    H228359   5.412   6.180  16.543  1.1300  0.0422  1.7099
 2290TIP3   OH228360   0.786   6.027   1.862  0.0835 -0.3070 -0.6097
 2290TIP3    H128361   0.723   5.973   1.909  0.0872  0.5623  0.4253
 2290TIP3    H228362   0.817   6.090   1.928 -0.4527  1.4119 -1.9591
 2291TIP3   OH228363   3.566   4.157  12.207 -0.3099 -0.3451  0.3687
 2291TIP3    H128364   3.636   4.103  12.171 -0.6357 -0.9795  0.6712
 2291TIP3    H228365   3.592   4.173  12.298 -0.3591 -0.2358  0.3639
 2292TIP3   OH228366   2.435   2.972   6.012 -0.2416  0.5921  0.3148
 2292TIP3    H128367   2.468   2.909   5.948  0.5964  0.8570  0.4755
 2292TIP3    H228368   2.441   3.057   5.968 -1.3016  0.5737  0.1234
 2293TIP3   OH228369   3.704   6.446  14.909  0.6080 -0.2265 -0.1108
 2293TIP3    H128370   3.668   6.528  14.941 -0.5791 -1.0758  0.7562
 2293TIP3    H228371   3.798   6.463  14.900  0.1084  1.8516 -1.9025
 2294TIP3   OH228372   3.128   0.814   3.044 -0.0812  0.3144  0.2722
 2294TIP3    H128373   3.086   0.735   3.076 -0.1762  0.0323 -0.5312
 2294TIP3    H228374   3.147   0.865   3.123  0.8344 -0.9206  0.8663
 2295TIP3   OH228375   3.192   2.094   6.104 -0.0792 -0.7264  0.2888
 2295TIP3    H128376   3.212   2.002   6.121  0.2545 -0.4659  1.3207
 2295TIP3    H228377   3.198   2.136   6.190 -0.4921  0.2094 -0.1373
 2296TIP3   OH228378   4.764   5.191  12.877 -0.5113 -0.2976 -0.1071
 2296TIP3    H128379   4.797   5.189  12.787 -1.3292  2.8063 -0.5383
 2296TIP3    H228380   4.822   5.252  12.922 -1.5292 -0.0567  0.8807
 2297TIP3   OH228381   1.658   2.507   3.593 -0.2898  0.3979  0.0956
 2297TIP3    H128382   1.598   2.433   3.585 -0.2147  0.1982  1.3704
 2297TIP3    H228383   1.717   2.483   3.664  2.9772 -0.5504 -2.7731
 2298TIP3   OH228384   1.682   0.871  16.817  0.2619  0.2228 -0.0262
 2298TIP3    H128385   1.717   0.946  16.770  0.7983 -0.9348 -1.5301
 2298TIP3    H228386   1.756   0.836  16.866  0.1472  0.3413  0.2323
 2299TIP3   OH228387   6.219   1.910   2.507 -0.4509  0.3785  0.1622
 2299TIP3    H128388   6.125   1.901   2.494 -0.3165  0.6025 -1.0384
 2299TIP3    H228389   6.228   1.957   2.589 -1.3689 -0.4740  0.7527
 2300TIP3   OH228390   0.700   5.222  16.140 -0.3448  0.2486 -0.3128
 2300TIP3    H128391   0.633   5.288  16.157 -0.9311 -0.7110  1.1586
 2300TIP3    H228392   0.742   5.251  16.059 -1.4923  1.6947 -0.4041
 2301TIP3   OH228393   0.856   5.853   2.878  0.3052 -0.3506  0.3484
 2301TIP3    H128394   0.841   5.770   2.831  1.2624  0.0561 -0.7058
 2301TIP3    H228395   0.781   5.862   2.936  0.1013 -1.8803  0.3412
 2302TIP3   OH228396   0.595   0.050   5.430 -0.0669  0.0955  0.0334
 2302TIP3    H128397   0.506   0.017   5.417 -0.2909  0.6428  0.1651
 2302TIP3    H228398   0.612   0.036   5.523 -0.6752  1.5827  0.3912
 2303TIP3   OH228399   2.446   3.639  11.380  1.1957 -0.9369  0.2590
 2303TIP3    H128400   2.390   3.624  11.457 -0.5785  2.0684 -0.3513
 2303TIP3    H228401   2.396   3.604  11.307  1.7849 -1.5851  0.1652
 2304TIP3   OH228402   6.381   4.659  16.735 -0.4564  0.4783 -0.1635
 2304TIP3    H128403   6.372   4.620  16.823 -1.8963  0.2512 -0.4004
 2304TIP3    H228404   6.291   4.674  16.707  0.0249  1.0879 -1.3737
 2305TIP3   OH228405   4.542   2.390  15.735  0.0762  0.5486  0.1146
 2305TIP3    H128406   4.472   2.373  15.799 -0.2166  0.5936 -0.1937
 2305TIP3    H228407   4.526   2.479  15.706  0.1794  0.5082 -0.0637
 2306TIP3   OH228408   5.952   3.342  12.435 -0.0609 -0.2188  0.1726
 2306TIP3    H128409   5.893   3.362  12.508 -0.1277 -1.0512  0.3484
 2306TIP3    H228410   6.025   3.296  12.474  0.2254 -0.0796 -0.1944
 2307TIP3   OH228411   0.113   6.481  13.168  0.6350 -0.0420 -0.3952
 2307TIP3    H128412   0.022   6.461  13.191  1.4094 -0.2947  2.6392
 2307TIP3    H228413   0.151   6.397  13.144  0.2772 -0.0450 -0.9724
 2308TIP3   OH228414   1.155   4.022  13.973 -0.5544  0.5825 -0.6043
 2308TIP3    H128415   1.218   4.077  14.019  1.8596 -0.8885 -2.0103
 2308TIP3    H228416   1.176   4.035  13.880 -0.1987 -2.3163 -0.9839
 2309TIP3   OH228417   6.558   5.726  10.494 -0.4457  0.4925  0.3487
 2309TIP3    H128418   6.495   5.662  10.527 -0.7653  0.6628  0.0669
 2309TIP3    H228419   6.545   5.804  10.548 -0.6410  0.6092  0.1335
 2310TIP3   OH228420   3.392   0.168  14.058 -0.2145 -0.0507 -0.3143
 2310TIP3    H128421   3.470   0.206  14.099  0.4606 -0.1796 -1.4539
 2310TIP3    H228422   3.416   0.077  14.042 -0.7086 -0.1676 -0.3826
 2311TIP3   OH228423   2.242   2.997   0.087  0.2079  0.4916 -0.4634
 2311TIP3    H128424   2.170   2.974   0.145 -0.5088  0.4498 -1.3629
 2311TIP3    H228425   2.234   3.092   0.075 -1.3122  0.1002 -2.6900
 2312TIP3   OH228426   1.854   6.530   6.030  0.0297 -0.1432  0.5369
 2312TIP3    H128427   1.856   6.452   5.975 -1.5430  0.5975 -0.5992
 2312TIP3    H228428   1.811   6.501   6.111 -2.0962 -0.1010 -0.5275
 2313TIP3   OH228429   6.240   4.179   2.878  0.0755  0.5789  0.1163
 2313TIP3    H128430   6.269   4.199   2.967 -1.3961 -0.6955  0.9061
 2313TIP3    H228431   6.174   4.246   2.858 -1.5922 -0.7376  1.0577
 2314TIP3   OH228432   6.018   4.876  17.032  0.2492  0.4873  0.3868
 2314TIP3    H128433   5.989   4.789  17.007 -0.0274  1.1501 -1.7578
 2314TIP3    H228434   5.965   4.935  16.979  1.3188  1.9179  0.8619
 2315TIP3   OH228435   2.594   3.708  16.017  0.1927 -0.2500  0.1817
 2315TIP3    H128436   2.524   3.681  15.959 -0.2593 -0.2628  0.7273
 2315TIP3    H228437   2.616   3.797  15.989 -0.0651 -0.2341  0.0309
 2316TIP3   OH228438   4.619   0.403  14.326 -0.1835 -0.3243 -0.3714
 2316TIP3    H128439   4.613   0.307  14.333  1.7521 -0.4225  0.6052
 2316TIP3    H228440   4.593   0.434  14.413 -0.2788 -0.0004 -0.5177
 2317TIP3   OH228441   1.278   6.054   2.753 -0.5910 -0.7397 -0.2769
 2317TIP3    H128442   1.302   6.104   2.675  0.7766  0.1986  0.7451
 2317TIP3    H228443   1.185   6.074   2.767 -0.4693  0.2049 -0.8234
 2318TIP3   OH228444   4.906   4.807  14.768  0.5031  0.2582  0.1108
 2318TIP3    H128445   4.826   4.761  14.792 -0.5233  0.2568 -3.0065
 2318TIP3    H228446   4.904   4.888  14.819 -1.7537  0.4665 -0.2560
 2319TIP3   OH228447   1.414   3.803   6.966 -0.3877 -0.4529 -0.0299
 2319TIP3    H128448   1.425   3.709   6.974 -0.2774 -0.4149  0.2428
 2319TIP3    H228449   1.320   3.814   6.948  0.2764 -0.9102 -4.3868
 2320TIP3   OH228450   5.333   3.070   3.608  0.2134  0.2657 -0.3000
 2320TIP3    H128451   5.287   3.078   3.691  0.2028  0.0314 -0.2830
 2320TIP3    H228452   5.360   2.978   3.604 -1.9510 -0.3369 -1.6959
 2321TIP3   OH228453   5.629   1.177  13.432 -0.2089 -0.2258  0.2114
 2321TIP3    H128454   5.699   1.137  13.379 -0.3499 -1.4826  0.9474
 2321TIP3    H228455   5.619   1.265  13.396  0.3400 -0.7359 -1.2617
 2322TIP3   OH228456   5.295   2.915   0.022 -0.1647 -0.2319  0.3303
 2322TIP3    H128457   5.232   2.967   0.070  1.3289  0.4462  1.6027
 2322TIP3    H228458   5.322   2.972  -0.051  0.4972  0.2830  0.9718
 2323TIP3   OH228459   0.785   6.734  16.729  0.0763 -0.0731  0.1234
 2323TIP3    H128460   0.751   6.682  16.801 -0.0347  1.1246  0.9611
 2323TIP3    H228461   0.810   6.817  16.769 -1.6649  1.2934 -1.4780
 2324TIP3   OH228462   5.045   5.811  16.636  0.4300 -0.5904 -0.4131
 2324TIP3    H128463   5.045   5.715  16.634 -1.0087 -0.6179  0.1636
 2324TIP3    H228464   5.059   5.838  16.545 -0.3109 -1.3540 -0.7568
 2325TIP3   OH228465   5.920   1.967   4.450  0.3466 -0.5510 -0.2257
 2325TIP3    H128466   5.870   1.940   4.527  0.4455 -1.9691 -0.6326
 2325TIP3    H228467   6.009   1.979   4.482 -0.0840  1.1920  0.3421
 2326TIP3   OH228468   6.063   3.540  12.928  0.0931  0.2629  0.1531
 2326TIP3    H128469   6.112   3.551  13.010 -0.1717  2.9073 -0.0074
 2326TIP3    H228470   6.091   3.454  12.896  2.0458  0.2295  1.7851
 2327TIP3   OH228471   0.842   1.471  16.150  0.5462 -0.1077 -0.7368
 2327TIP3    H128472   0.783   1.401  16.121 -0.7301 -0.0269  1.5522
 2327TIP3    H228473   0.922   1.425  16.176  1.0885 -0.3302 -2.6676
 2328TIP3   OH228474   4.493   1.466  10.289  0.2663 -0.0040  0.0677
 2328TIP3    H128475   4.467   1.410  10.215 -0.0360  0.7897 -0.4275
 2328TIP3    H228476   4.411   1.502  10.322  0.2838 -1.2938  1.5553
 2329TIP3   OH228477   0.291   6.024  16.849  0.1303  0.2778 -0.4901
 2329TIP3    H128478   0.313   6.103  16.800 -2.3239  1.2316 -0.1108
 2329TIP3    H228479   0.293   6.052  16.941 -0.5328 -0.1399 -0.3413
 2330TIP3   OH228480   3.088   4.627   6.322  0.2550  0.5244  0.4948
 2330TIP3    H128481   3.171   4.590   6.292 -1.0811 -1.6682 -0.6951
 2330TIP3    H228482   3.079   4.595   6.412 -0.4445 -1.3364 -0.2139
 2331TIP3   OH228483   6.264   5.030   1.078  0.6181  0.1569 -0.1515
 2331TIP3    H128484   6.176   4.994   1.089  0.7934  0.1497  1.3266
 2331TIP3    H228485   6.279   5.029   0.983 -0.9877  0.2116 -0.4113
 2332TIP3   OH228486   2.766   6.693   5.388  0.1140 -0.5857 -0.4027
 2332TIP3    H128487   2.754   6.652   5.302  2.1511 -4.2737  0.9746
 2332TIP3    H228488   2.859   6.713   5.392 -0.2227  0.8568  0.4338
 2333TIP3   OH228489   2.178   1.695  13.540 -0.0896  0.5318  0.1196
 2333TIP3    H128490   2.208   1.754  13.470  0.0363  0.7719  0.3751
 2333TIP3    H228491   2.257   1.646  13.565 -0.2268  0.1498 -0.1945
 2334TIP3   OH228492   5.644   3.848  13.029  0.1152  0.2823  0.3098
 2334TIP3    H128493   5.684   3.838  13.115 -0.8343  1.1146  0.8617
 2334TIP3    H228494   5.707   3.809  12.968  0.9443 -0.0025  1.3435
 2335TIP3   OH228495   3.928   1.431   1.732  0.2507  0.0641  0.2051
 2335TIP3    H128496   3.943   1.364   1.665 -0.4248 -1.1079  1.1989
 2335TIP3    H228497   3.881   1.385   1.802  0.6062  1.3475  1.3206
 2336TIP3   OH228498   3.084   3.710   1.228  0.5363  0.4702  0.2156
 2336TIP3    H128499   3.054   3.623   1.254 -3.4407  1.3459 -1.1447
 2336TIP3    H228500   3.153   3.692   1.164 -0.8424 -1.7325 -0.7320
 2337TIP3   OH228501   5.296   4.294  14.657  0.3850 -0.3772  0.1446
 2337TIP3    H128502   5.319   4.253  14.740 -0.3821 -0.5364  0.2738
 2337TIP3    H228503   5.377   4.291  14.606  1.0149  0.2410  1.0958
 2338TIP3   OH228504   2.792   3.380   4.021 -0.0874  0.0169 -0.5739
 2338TIP3    H128505   2.754   3.419   4.100  0.3876 -2.5060  0.9514
 2338TIP3    H228506   2.864   3.438   3.997  0.6809  0.0087  1.6977
 2339TIP3   OH228507   6.235   3.904   5.537  0.1488 -0.1792 -0.5339
 2339TIP3    H128508   6.217   3.927   5.446  1.4062  0.5030 -0.6276
 2339TIP3    H228509   6.207   3.981   5.587 -1.0346 -0.7627 -0.2865
 2340TIP3   OH228510   4.065   5.481  14.048 -0.1434 -0.1232 -0.3143
 2340TIP3    H128511   4.079   5.565  14.092 -1.1493 -0.3736  0.5068
 2340TIP3    H228512   4.036   5.505  13.960  1.4963  0.3804 -0.7410
 2341TIP3   OH228513   1.305   6.581   4.565  0.4437 -0.0002  0.1842
 2341TIP3    H128514   1.334   6.552   4.652  1.0230  0.1432  0.0436
 2341TIP3    H228515   1.386   6.587   4.514  0.1559  0.3669 -0.2311
 2342TIP3   OH228516   2.337   0.687  13.812 -0.6740  0.0894 -0.2410
 2342TIP3    H128517   2.329   0.780  13.833  1.4798  0.5188 -1.2406
 2342TIP3    H228518   2.266   0.671  13.749 -1.3708  0.9300  0.3239
 2343TIP3   OH228519   3.864   3.557   1.206 -0.1065  0.1299 -0.0629
 2343TIP3    H128520   3.796   3.531   1.268  0.9373 -1.5816  0.3954
 2343TIP3    H228521   3.829   3.534   1.120  0.2316 -1.5082  0.2355
 2344TIP3   OH228522   6.819   2.299   5.062  0.1437  0.2811  0.6494
 2344TIP3    H128523   6.842   2.282   5.154 -1.6309 -0.0879  1.0577
 2344TIP3    H228524   6.744   2.358   5.067 -0.0168  0.1879 -0.5572
 2345TIP3   OH228525   2.178   5.569   3.746 -0.2453  0.1049 -0.1693
 2345TIP3    H128526   2.197   5.527   3.830  1.0993  0.7657 -0.1413
 2345TIP3    H228527   2.127   5.503   3.697 -1.1779 -0.2169  1.2089
 2346TIP3   OH228528   0.029   5.858   0.723 -0.1534  0.5090 -0.1284
 2346TIP3    H128529   0.066   5.781   0.679  1.5751  1.1654  0.1281
 2346TIP3    H228530   0.018   5.922   0.653  0.0360  0.6143 -0.0629
 2347TIP3   OH228531   6.603   1.746  17.256 -0.6222 -0.3859  0.2789
 2347TIP3    H128532   6.509   1.751  17.269 -0.4977  0.1637  0.9924
 2347TIP3    H228533   6.618   1.659  17.220 -1.2630 -0.9664  1.3919
 2348TIP3   OH228534   5.267   2.485  15.365  0.5602  0.0006  0.9634
 2348TIP3    H128535   5.173   2.499  15.363  0.3146 -1.3059  2.0363
 2348TIP3    H228536   5.297   2.536  15.440  0.7480  0.6306  0.4611
 2349TIP3   OH228537   4.584   5.906   5.997 -0.2284 -0.5095  0.4566
 2349TIP3    H128538   4.606   5.845   6.068 -0.7152 -1.4039 -0.1567
 2349TIP3    H228539   4.498   5.878   5.967 -0.3744  0.3670  0.0321
 2350TIP3   OH228540   4.115   2.506   4.386 -0.1006  0.5220  0.1419
 2350TIP3    H128541   4.190   2.566   4.384 -1.3335  2.0888 -0.3039
 2350TIP3    H228542   4.134   2.443   4.317  1.7207 -0.2650  1.3034
 2351TIP3   OH228543   4.947   6.431  16.986 -0.5348  0.7599  0.2592
 2351TIP3    H128544   5.026   6.481  16.966 -0.7742  0.9840 -0.1422
 2351TIP3    H228545   4.884   6.457  16.918 -0.3535 -0.7767 -0.5233
 2352TIP3   OH228546   4.623   0.419   2.784 -0.0791 -0.0163  0.2321
 2352TIP3    H128547   4.665   0.334   2.768 -0.0410  0.4041 -2.1120
 2352TIP3    H228548   4.668   0.479   2.724 -1.3985  1.2652  0.5135
 2353TIP3   OH228549   2.659   2.441  12.565  0.0783  0.3833  0.3864
 2353TIP3    H128550   2.705   2.370  12.609 -1.8037 -1.1373 -0.0521
 2353TIP3    H228551   2.724   2.511  12.557  2.1065 -1.4889  0.3028
 2354TIP3   OH228552   2.803   0.245   2.781 -0.3577 -0.1292  0.4799
 2354TIP3    H128553   2.789   0.340   2.790  0.5040  0.0778 -0.2896
 2354TIP3    H228554   2.877   0.226   2.839  1.8910  0.3358 -2.0907
 2355TIP3   OH228555   0.383   2.249  16.390 -0.0772 -0.0840  0.4551
 2355TIP3    H128556   0.300   2.215  16.424 -0.2792  1.1896  1.2928
 2355TIP3    H228557   0.357   2.304  16.316  0.2120 -1.3821 -0.6350
 2356TIP3   OH228558   6.651   2.046   0.545  0.5627  0.4683  0.4035
 2356TIP3    H128559   6.595   2.081   0.475  1.4854  0.7866 -0.1767
 2356TIP3    H228560   6.707   2.119   0.570  0.9963  0.0351  0.7097
 2357TIP3   OH228561   4.241   4.766  15.428 -0.7778 -0.1658  0.1905
 2357TIP3    H128562   4.336   4.762  15.417 -0.7317  0.7543  0.2769
 2357TIP3    H228563   4.219   4.859  15.422 -1.7778 -0.4400 -0.6363
 2358TIP3   OH228564   6.175   0.720   0.582 -0.5183 -0.4812 -0.3003
 2358TIP3    H128565   6.221   0.712   0.666  1.0442  0.7513 -1.0315
 2358TIP3    H228566   6.116   0.644   0.581 -0.9446 -0.2416  2.1400
 2359TIP3   OH228567   6.081   5.778   5.686 -0.4880  0.3296 -0.2402
 2359TIP3    H128568   6.074   5.843   5.755 -1.3326 -0.7080  0.6758
 2359TIP3    H228569   5.990   5.760   5.660 -0.5127 -2.9063  1.8561
 2360TIP3   OH228570   1.159   1.494   1.552 -0.5579 -0.3647 -0.6003
 2360TIP3    H128571   1.145   1.410   1.598 -1.8829 -1.2630 -2.5592
 2360TIP3    H228572   1.115   1.559   1.607 -2.1587 -1.4311 -0.5765
 2361TIP3   OH228573   3.310   0.643  12.125  0.2181 -0.1003 -0.1550
 2361TIP3    H128574   3.221   0.672  12.105  0.4817  0.3190 -0.7330
 2361TIP3    H228575   3.305   0.547  12.120 -0.1771 -0.0752 -0.2797
 2362TIP3   OH228576   0.062   0.399   3.662  0.2911 -0.1011 -0.1226
 2362TIP3    H128577   0.109   0.320   3.688  0.8593  0.2758  0.0186
 2362TIP3    H228578   0.065   0.398   3.566  1.3829  0.3782 -0.1048
 2363TIP3   OH228579   4.943   6.141  11.942  0.2395 -0.5133  0.2233
 2363TIP3    H128580   4.951   6.227  11.984 -0.7571 -0.8921  1.1832
 2363TIP3    H228581   4.994   6.082  11.997 -0.6231 -0.9018  0.6201
 2364TIP3   OH228582   6.142   5.888  13.857 -0.4917  0.4893 -0.0892
 2364TIP3    H128583   6.157   5.980  13.879 -1.2803  0.5326  0.2684
 2364TIP3    H228584   6.203   5.871  13.786 -1.7612  1.8640 -1.5472
 2365TIP3   OH228585   5.456   2.442   2.105 -0.0609 -0.5532  0.2328
 2365TIP3    H128586   5.408   2.517   2.141 -0.7112 -2.2139  2.9080
 2365TIP3    H228587   5.547   2.458   2.129  0.3867  1.1181 -2.3117
 2366TIP3   OH228588   2.595   3.672  13.394 -0.5262 -0.3564  0.1848
 2366TIP3    H128589   2.590   3.639  13.304 -0.1076 -1.8041  0.6838
 2366TIP3    H228590   2.505   3.667  13.427 -1.2974  3.0033 -1.0908
 2367TIP3   OH228591   4.244   4.259  10.763  0.2312 -0.0451 -0.0285
 2367TIP3    H128592   4.229   4.353  10.751  1.2999  0.3383  1.4098
 2367TIP3    H228593   4.305   4.254  10.837 -1.1868 -1.9401  1.0739
 2368TIP3   OH228594   2.139   0.440  13.145  0.1061  0.0556 -0.0127
 2368TIP3    H128595   2.159   0.502  13.074  0.8896 -0.8933 -0.6281
 2368TIP3    H228596   2.179   0.358  13.118  2.0123  0.1303  2.3799
 2369TIP3   OH228597   1.715   2.145  13.399 -0.0089  0.1038 -0.3449
 2369TIP3    H128598   1.676   2.134  13.312 -1.2142  2.0258 -0.0669
 2369TIP3    H228599   1.759   2.230  13.395  0.1553  0.0802  0.8242
 2370TIP3   OH228600   3.858   6.089   5.405  0.6023  0.3266 -0.3523
 2370TIP3    H128601   3.836   6.001   5.433  3.3023 -0.4529 -0.5366
 2370TIP3    H228602   3.923   6.119   5.469  0.5156  1.7658 -0.9130
 2371TIP3   OH228603   2.827   3.730   5.481 -0.0829 -0.3129  0.3368
 2371TIP3    H128604   2.841   3.788   5.557  1.3256  1.6557 -1.3682
 2371TIP3    H228605   2.893   3.661   5.493 -0.4232 -0.4827  1.3335
 2372TIP3   OH228606   1.181   5.965  13.768 -0.0131  0.1171 -0.2208
 2372TIP3    H128607   1.160   6.015  13.689  1.2249  0.8300 -0.1100
 2372TIP3    H228608   1.234   5.892  13.736  0.7440  0.5770 -0.0046
 2373TIP3   OH228609   6.046   5.030  11.778 -0.2033  0.1498 -0.0850
 2373TIP3    H128610   6.034   4.995  11.866 -1.3015 -0.6874 -0.5649
 2373TIP3    H228611   6.137   5.010  11.756  0.0116  0.1704  0.7648
 2374TIP3   OH228612   1.685   6.457   0.261 -0.3655  0.6041 -0.3399
 2374TIP3    H128613   1.693   6.446   0.166  1.8904  0.9846 -0.2170
 2374TIP3    H228614   1.658   6.548   0.272 -0.9691  0.4642 -0.6136
 2375TIP3   OH228615   0.070   4.991   4.953 -0.2174 -0.3659  0.9198
 2375TIP3    H128616   0.151   4.973   4.905  0.6765 -0.1249  2.2796
 2375TIP3    H228617   0.000   4.966   4.894  0.7982  1.4247 -1.1133
 2376TIP3   OH228618   1.322   0.132  13.800 -0.1115  0.1413  0.1316
 2376TIP3    H128619   1.249   0.169  13.850 -0.3459  0.2902 -0.3214
 2376TIP3    H228620   1.339   0.196  13.731 -1.0957 -1.0155 -1.1879
 2377TIP3   OH228621   2.924   4.122   1.961  0.3901  0.1484 -0.4853
 2377TIP3    H128622   2.917   4.180   2.037  1.0272 -0.2935 -0.0836
 2377TIP3    H228623   3.016   4.096   1.960  0.0615 -1.0104 -0.5596
 2378TIP3   OH228624   5.241   0.796   4.140 -0.0840 -0.1981 -0.3914
 2378TIP3    H128625   5.218   0.820   4.050  1.4311  0.3079 -0.6584
 2378TIP3    H228626   5.334   0.818   4.147 -0.5719  1.2911  1.8132
 2379TIP3   OH228627   5.141   4.936  13.430 -0.4359  0.2146 -0.8161
 2379TIP3    H128628   5.070   4.921  13.493  0.3586 -1.2974 -0.2513
 2379TIP3    H228629   5.133   5.028  13.407 -2.0168  0.2931 -0.0581
 2380TIP3   OH228630   3.359   2.658  15.381  0.4315  0.5792 -0.1409
 2380TIP3    H128631   3.327   2.568  15.372 -0.1175  0.5944  1.4626
 2380TIP3    H228632   3.367   2.690  15.291 -4.0974  0.5457 -0.7061
 2381TIP3   OH228633   5.744   1.325  14.852 -0.0396 -0.2895  0.4106
 2381TIP3    H128634   5.667   1.272  14.831 -0.4473 -0.2501  1.7206
 2381TIP3    H228635   5.767   1.368  14.770 -0.5848 -1.3715 -0.3246
 2382TIP3   OH228636   1.974   1.184   4.327  0.1047 -0.5103 -0.2935
 2382TIP3    H128637   1.986   1.269   4.369  1.0014  0.2564 -2.0523
 2382TIP3    H228638   1.996   1.120   4.395  2.8173  0.7153  0.0467
 2383TIP3   OH228639   1.208   0.894   1.169 -0.1206  0.1635  0.0271
 2383TIP3    H128640   1.121   0.929   1.189  0.0503  0.3587  0.4520
 2383TIP3    H228641   1.269   0.959   1.207  0.2048 -0.1148 -0.0153
 2384TIP3   OH228642   3.961   0.238  11.099 -0.3591 -0.3467 -0.1249
 2384TIP3    H128643   3.961   0.152  11.140  2.7117  0.2489  1.2702
 2384TIP3    H228644   4.033   0.234  11.035  0.1017  1.3136  0.2714
 2385TIP3   OH228645   6.490   6.358   2.829 -0.2626 -0.1307 -0.1634
 2385TIP3    H128646   6.417   6.393   2.777 -0.6542 -0.0975  0.4039
 2385TIP3    H228647   6.538   6.302   2.768 -2.4208 -2.4881  0.1786
 2386TIP3   OH228648   2.876   3.889  13.840  0.3944  0.0298  0.3161
 2386TIP3    H128649   2.832   3.948  13.778  0.2453  0.1854  0.5650
 2386TIP3    H228650   2.805   3.837  13.877  0.5182 -0.2597  0.1481
 2387TIP3   OH228651   5.707   0.109  11.194 -0.1263  0.3344 -0.7794
 2387TIP3    H128652   5.678   0.181  11.138  1.3764  1.1815 -0.4925
 2387TIP3    H228653   5.660   0.032  11.160 -2.9301  1.6828 -0.0994
 2388TIP3   OH228654   6.270   0.878  15.147 -0.1276 -0.0180  0.4745
 2388TIP3    H128655   6.284   0.893  15.240 -1.1882  1.0959  0.4645
 2388TIP3    H228656   6.320   0.798  15.127 -0.8149 -0.8945  2.2295
 2389TIP3   OH228657   1.562   3.433  16.050  0.3116 -0.0624  0.5202
 2389TIP3    H128658   1.570   3.338  16.062 -0.0038 -0.2339 -0.6437
 2389TIP3    H228659   1.469   3.447  16.033  0.4122  0.4236  0.3767
 2390TIP3   OH228660   1.992   2.958   6.240 -0.5884 -0.4283 -0.0790
 2390TIP3    H128661   1.964   2.914   6.321  0.9327  0.2722  0.8656
 2390TIP3    H228662   1.980   3.051   6.258  0.8202 -0.1990 -0.2140
 2391TIP3   OH228663   6.075   1.787   0.074  0.0608 -0.1118 -0.6441
 2391TIP3    H128664   6.110   1.770  -0.013  0.5997 -0.0840 -0.4346
 2391TIP3    H228665   6.053   1.880   0.074  2.8876  0.6212  0.2232
 2392TIP3   OH228666   2.519   1.950  12.257  0.2171 -0.1025  0.2166
 2392TIP3    H128667   2.432   1.987  12.264 -0.2823 -1.5045  1.8172
 2392TIP3    H228668   2.529   1.896  12.335  1.5172 -2.0329 -1.2152
 2393TIP3   OH228669   3.916   2.445   0.276  0.4651  0.1857  0.6349
 2393TIP3    H128670   3.972   2.446   0.354 -1.2182  0.6069  1.8747
 2393TIP3    H228671   3.904   2.538   0.255  0.6249  0.0792  0.0604
 2394TIP3   OH228672   4.682   4.751  14.926  0.1802  0.1525  0.3870
 2394TIP3    H128673   4.631   4.831  14.923 -1.3113 -0.7691  0.6455
 2394TIP3    H228674   4.736   4.760  15.004  0.7248  1.3139 -0.1127
 2395TIP3   OH228675   1.823   6.691   5.432  0.4971  0.1569  0.3568
 2395TIP3    H128676   1.762   6.617   5.438 -0.1860  0.7212  0.3944
 2395TIP3    H228677   1.910   6.651   5.439  0.0820 -0.4775  1.9283
 2396TIP3   OH228678   4.895   1.894  13.279 -0.4350  0.6002 -0.2574
 2396TIP3    H128679   4.802   1.899  13.261 -0.5468 -0.7579 -0.0928
 2396TIP3    H228680   4.907   1.947  13.358 -0.7783  2.1830 -1.2606
 2397TIP3   OH228681   2.977   6.523  15.500  0.5531 -0.1031 -0.8568
 2397TIP3    H128682   2.939   6.575  15.430 -3.7767  2.3874  3.0894
 2397TIP3    H228683   3.050   6.575  15.532 -0.4482  1.0453 -0.4142
 2398TIP3   OH228684   6.097   5.140   3.252 -0.0165  0.0477 -0.7998
 2398TIP3    H128685   6.065   5.102   3.334 -0.7404  0.9138 -0.6720
 2398TIP3    H228686   6.176   5.188   3.278 -0.4169  0.5809 -0.5374
 2399TIP3   OH228687   1.859   0.166   0.734 -0.0876 -0.4213  0.0822
 2399TIP3    H128688   1.803   0.243   0.725 -0.2257 -0.6481 -1.0399
 2399TIP3    H228689   1.838   0.112   0.658  1.5208 -0.6006 -0.2597
 2400TIP3   OH228690   1.036   1.859   4.485  0.2493 -0.2796  0.1653
 2400TIP3    H128691   1.066   1.911   4.559  0.7928 -0.1821 -0.1200
 2400TIP3    H228692   0.956   1.816   4.516 -0.0518  0.5086  0.4915
 2401TIP3   OH228693   3.732   6.369  11.831 -0.1293 -0.1589  0.3989
 2401TIP3    H128694   3.717   6.291  11.777 -1.5112  1.2967 -1.3802
 2401TIP3    H228695   3.701   6.344  11.918  0.3563 -1.9179  0.0892
 2402TIP3   OH228696   6.376   5.701   1.140 -0.5753 -0.2409  0.1366
 2402TIP3    H128697   6.323   5.780   1.149 -0.1566 -0.0421  0.9061
 2402TIP3    H228698   6.351   5.665   1.055 -2.1646 -0.3086  0.6170
 2403TIP3   OH228699   6.003   0.951   3.357 -0.5091  0.2466 -0.3227
 2403TIP3    H128700   5.956   1.034   3.348 -0.1261  0.4186 -0.7584
 2403TIP3    H228701   6.088   0.966   3.315  0.2314  0.1609  1.1283
 2404TIP3   OH228702   1.607   5.030  12.696  0.1215  0.2998 -0.6610
 2404TIP3    H128703   1.696   5.018  12.729 -0.5901 -1.0701  0.8220
 2404TIP3    H228704   1.593   5.125  12.699  1.3676  0.4854 -0.4505
 2405TIP3   OH228705   3.775   0.906   3.433 -0.1223  0.5212  0.0874
 2405TIP3    H128706   3.776   0.946   3.346  1.3912  0.7032  0.1762
 2405TIP3    H228707   3.709   0.956   3.482  2.0485  3.2617  0.3329
 2406TIP3   OH228708   6.748   5.411  11.898 -0.5435  0.3698  0.3494
 2406TIP3    H128709   6.719   5.407  11.807 -0.6967 -0.4922  0.4262
 2406TIP3    H228710   6.829   5.462  11.896 -1.3435  1.6127 -0.0580
 2407TIP3   OH228711   5.507   6.304   0.168  0.6285  0.1091 -0.4036
 2407TIP3    H128712   5.435   6.244   0.150  1.0319 -0.3130 -0.6198
 2407TIP3    H228713   5.558   6.307   0.086  0.2544  1.2408 -0.6104
 2408TIP3   OH228714   5.192   0.953  12.610 -0.0918 -0.3702 -0.3974
 2408TIP3    H128715   5.248   1.028  12.587 -0.1542 -0.4383 -0.7755
 2408TIP3    H228716   5.177   0.963  12.704  0.1607 -0.0813 -0.3841
 2409TIP3   OH228717   3.630   2.989   1.822  0.1424 -0.1468 -0.4730
 2409TIP3    H128718   3.556   2.934   1.849  1.2861 -0.2621  2.6257
 2409TIP3    H228719   3.662   2.948   1.742 -1.3204 -1.8341 -0.2389
 2410TIP3   OH228720   3.342   0.370  13.872  0.6817  0.4276  0.2179
 2410TIP3    H128721   3.351   0.289  13.923  2.7022  0.5780  0.1430
 2410TIP3    H228722   3.420   0.421  13.894 -0.4959  2.3006  0.1393
 2411TIP3   OH228723   2.383   6.465   0.875 -0.2565 -0.1653  0.0332
 2411TIP3    H128724   2.375   6.479   0.969  1.1346 -0.7731  0.2648
 2411TIP3    H228725   2.424   6.378   0.868  0.5010  0.2811 -1.1010
 2412TIP3   OH228726   0.967   2.944  16.844  0.3379 -0.1425  0.1906
 2412TIP3    H128727   0.980   2.858  16.806  0.3667 -0.6379  1.3005
 2412TIP3    H228728   1.030   3.000  16.800  0.9794 -0.8947  0.1545
 2413TIP3   OH228729   2.989   0.244  13.506  0.2555  0.1631  0.0132
 2413TIP3    H128730   2.997   0.153  13.479  4.4314  0.8435 -1.4364
 2413TIP3    H228731   2.965   0.290  13.425  1.8838  0.7997 -0.1201
 2414TIP3   OH228732   0.744   1.354   5.089 -0.2550 -0.2745  0.2536
 2414TIP3    H128733   0.751   1.312   5.175 -1.6945 -1.1776 -0.0323
 2414TIP3    H228734   0.814   1.315   5.037 -1.1714 -1.8719  0.1877
 2415TIP3   OH228735   1.070   2.838  14.688  0.6810  0.7607  0.0366
 2415TIP3    H128736   1.111   2.761  14.728 -0.8974  0.4614  1.1486
 2415TIP3    H228737   0.977   2.815  14.682  0.4093  2.0677 -0.8583
 2416TIP3   OH228738   5.676   5.756  10.481 -0.6559 -0.5866  0.2303
 2416TIP3    H128739   5.615   5.765  10.555  1.0580 -0.4289  1.6669
 2416TIP3    H228740   5.620   5.755  10.404 -2.4576 -0.1014  1.4916
 2417TIP3   OH228741   0.570   0.733   5.342  0.3588  0.2473 -0.1533
 2417TIP3    H128742   0.530   0.653   5.375 -1.0294  0.2481 -1.7798
 2417TIP3    H228743   0.565   0.795   5.416  0.7195 -0.8911  0.8424
 2418TIP3   OH228744   4.144   3.527  16.967 -0.5085 -0.0012  0.1162
 2418TIP3    H128745   4.233   3.537  16.934 -0.8989 -1.0932 -1.3409
 2418TIP3    H228746   4.103   3.612  16.954  0.3388  0.5325  0.8802
 2419TIP3   OH228747   4.528   4.632  11.832  0.2480 -0.1005  0.2346
 2419TIP3    H128748   4.560   4.543  11.845 -1.3552 -0.7226  0.1028
 2419TIP3    H228749   4.466   4.624  11.760  1.1967  1.4030 -0.7592
 2420TIP3   OH228750   0.246   3.628  16.294 -0.4075  0.1885 -0.4118
 2420TIP3    H128751   0.287   3.598  16.213 -2.3620 -1.5665 -0.7808
 2420TIP3    H228752   0.201   3.709  16.270  1.5192  1.2984 -0.3584
 2421TIP3   OH228753   6.429   3.702   2.211 -0.4568 -0.0499 -0.2139
 2421TIP3    H128754   6.337   3.689   2.192 -1.0321 -0.0762  2.3751
 2421TIP3    H228755   6.471   3.708   2.125 -2.6351 -1.5244 -1.4284
 2422TIP3   OH228756   4.498   1.099   4.197  0.3087  0.3557  0.1759
 2422TIP3    H128757   4.491   1.149   4.279  0.5072 -1.3375  1.2527
 2422TIP3    H228758   4.452   1.152   4.132  0.2372  1.7779  1.3630
 2423TIP3   OH228759   5.979   3.790  14.867  0.2634  0.9889  1.1924
 2423TIP3    H128760   5.941   3.772  14.953 -0.3740  1.8446  1.1022
 2423TIP3    H228761   5.952   3.716  14.813  1.9363 -0.3174  2.1059
 2424TIP3   OH228762   4.027   4.251  15.134 -0.4102  0.3916 -0.5411
 2424TIP3    H128763   4.110   4.280  15.097 -0.5733 -0.0723 -1.2787
 2424TIP3    H228764   4.052   4.202  15.212  0.0233  0.1120 -0.8531
 2425TIP3   OH228765   4.348   0.936  13.582  0.6662  0.7672  0.0403
 2425TIP3    H128766   4.292   1.013  13.588 -0.7820 -0.3003  0.3799
 2425TIP3    H228767   4.338   0.892  13.667 -1.0584 -1.5153 -1.2908
 2426TIP3   OH228768   3.572   2.784   3.514  0.4546  0.3894 -0.5418
 2426TIP3    H128769   3.601   2.782   3.605 -2.3621  0.2468  0.4148
 2426TIP3    H228770   3.580   2.876   3.487 -1.9532  1.1135  1.0230
 2427TIP3   OH228771   6.676   6.407   5.128 -0.5026 -0.0351  0.2019
 2427TIP3    H128772   6.751   6.351   5.149 -0.4139 -0.0530 -0.1622
 2427TIP3    H228773   6.636   6.426   5.213  0.2106  0.3887  0.4478
 2428TIP3   OH228774   4.905   5.165  16.776  0.6513 -0.2899  0.0641
 2428TIP3    H128775   4.849   5.089  16.794 -1.1753  0.8578 -0.5640
 2428TIP3    H228776   4.917   5.164  16.681 -3.2186  2.7036 -0.5885
 2429TIP3   OH228777   5.224   0.175   1.253  0.3406  0.0812  0.7689
 2429TIP3    H128778   5.224   0.207   1.344  0.8505  0.8338  0.5110
 2429TIP3    H228779   5.132   0.160   1.233  0.0626  1.6986  0.8015
 2430TIP3   OH228780   5.132   1.762   4.693 -0.1483  0.4265  0.2623
 2430TIP3    H128781   5.122   1.785   4.785 -0.5877 -2.5683  1.0313
 2430TIP3    H228782   5.046   1.727   4.668  0.0333  1.0422 -1.2197
 2431TIP3   OH228783   2.739   2.349   1.955  0.0803  0.0089 -0.1072
 2431TIP3    H128784   2.724   2.287   1.884  1.5137 -0.1214 -0.3145
 2431TIP3    H228785   2.653   2.364   1.993 -0.4134 -1.3858 -0.6556
 2432TIP3   OH228786   2.529   6.691   1.189 -0.1977 -0.1601  0.0047
 2432TIP3    H128787   2.487   6.613   1.225 -0.0845  0.0499  0.6049
 2432TIP3    H228788   2.574   6.730   1.264 -0.2799  0.4977 -0.2873
 2433TIP3   OH228789   1.089   2.141  12.354  0.5044 -0.1375  0.0065
 2433TIP3    H128790   1.008   2.183  12.383  0.8913  1.1928 -0.8053
 2433TIP3    H228791   1.073   2.119  12.263  0.3978 -1.5390  0.3572
 2434TIP3   OH228792   0.495   3.601  14.941 -0.0538 -0.1825 -0.1885
 2434TIP3    H128793   0.545   3.680  14.960 -0.7608  0.1309  0.4291
 2434TIP3    H228794   0.538   3.533  14.993  0.3243 -0.1183 -0.4196
 2435TIP3   OH228795   0.515   2.902  14.854 -0.3708  0.0777  0.0038
 2435TIP3    H128796   0.521   2.866  14.942 -1.8414 -1.0440 -0.3523
 2435TIP3    H228797   0.605   2.928  14.833 -0.2788  1.9338  2.4683
 2436TIP3   OH228798   2.667   2.392   4.746 -0.0744  0.0742  0.0922
 2436TIP3    H128799   2.641   2.315   4.696 -0.3666 -0.0076  0.3677
 2436TIP3    H228800   2.703   2.452   4.681 -0.5854  0.0271 -0.2385
 2437TIP3   OH228801   3.444   4.213   3.672 -0.4195 -0.1577 -0.1321
 2437TIP3    H128802   3.452   4.132   3.622  2.8133 -0.2849  0.4696
 2437TIP3    H228803   3.480   4.281   3.615 -0.0369  0.2869  0.6136
 2438TIP3   OH228804   0.647   2.528  15.067  0.5241  0.4195  0.3826
 2438TIP3    H128805   0.598   2.446  15.068  1.2459 -0.0125  1.1658
 2438TIP3    H228806   0.738   2.502  15.056  0.5135  1.2686 -1.9553
 2439TIP3   OH228807   4.949   4.420   5.869  0.1082  0.2611 -0.1111
 2439TIP3    H128808   4.879   4.428   5.805  0.0555 -1.1644 -0.2537
 2439TIP3    H228809   4.905   4.397   5.951  0.3709 -0.2633 -0.1141
 2440TIP3   OH228810   4.420   5.010  10.909 -0.3076 -0.0081 -0.1234
 2440TIP3    H128811   4.475   5.016  10.987  0.5381  0.5503 -0.7680
 2440TIP3    H228812   4.432   4.920  10.878 -0.5503 -0.1945  0.3054
 2441TIP3   OH228813   5.821   1.111  11.414 -0.4025 -0.0290  0.3793
 2441TIP3    H128814   5.849   1.082  11.327 -0.6825  1.3116 -0.1831
 2441TIP3    H228815   5.883   1.070  11.474 -0.1390 -0.8894 -0.4660
 2442TIP3   OH228816   4.777   4.875  14.100 -0.3404  0.2225 -0.3352
 2442TIP3    H128817   4.726   4.925  14.164 -3.2800  0.2463 -2.5704
 2442TIP3    H228818   4.817   4.941  14.043 -1.3842  0.1404 -1.1834
 2443TIP3   OH228819   6.561   3.988   0.205 -0.7290  0.2144 -0.2955
 2443TIP3    H128820   6.509   4.055   0.249 -0.1080  0.0765  0.6498
 2443TIP3    H228821   6.649   3.997   0.242 -0.5011 -0.7260 -0.5931
 2444TIP3   OH228822   5.050   1.031  14.182 -0.2904  0.2091 -0.2469
 2444TIP3    H128823   5.001   1.007  14.261  1.9253 -0.9337  0.8118
 2444TIP3    H228824   5.122   0.968  14.178  0.5697  1.2648 -2.3138
 2445TIP3   OH228825   2.475   1.215  14.357 -0.1844  0.0745  0.1711
 2445TIP3    H128826   2.484   1.239  14.265  1.1841 -0.8463  0.0359
 2445TIP3    H228827   2.426   1.133  14.356  1.1105 -0.7087  0.1513
 2446TIP3   OH228828   0.346   1.386   6.037 -0.3453 -0.2941  0.0052
 2446TIP3    H128829   0.438   1.410   6.023 -0.3334 -0.0306  0.4955
 2446TIP3    H228830   0.347   1.342   6.122 -0.5020 -1.2727 -0.5039
 2447TIP3   OH228831   3.982   5.196  15.482  0.1668  0.3237 -0.4442
 2447TIP3    H128832   3.916   5.170  15.547  0.9975 -1.5476 -0.3068
 2447TIP3    H228833   3.996   5.289  15.498 -2.9578  0.9294 -0.9670
 2448TIP3   OH228834   0.359   1.288  13.409  0.3064  0.6234  0.1718
 2448TIP3    H128835   0.423   1.351  13.374 -0.0626  0.7560 -0.2584
 2448TIP3    H228836   0.309   1.338  13.473  0.4434  0.5946  0.3022
 2449TIP3   OH228837   5.332   1.051  11.894 -0.2942 -0.0152  0.0260
 2449TIP3    H128838   5.424   1.027  11.906 -0.6304 -2.8270 -2.5234
 2449TIP3    H228839   5.333   1.117  11.825 -0.2114 -0.0111  0.0311
 2450TIP3   OH228840   2.648   6.250  16.309  0.0657  0.2454  0.0382
 2450TIP3    H128841   2.743   6.241  16.294 -0.0404  0.0490 -0.5430
 2450TIP3    H228842   2.619   6.310  16.240 -0.2469  0.2374  0.1648
 2451TIP3   OH228843   3.309   0.196   3.370 -0.1754  0.2601 -0.7465
 2451TIP3    H128844   3.234   0.172   3.425  0.6115  0.3888  0.4049
 2451TIP3    H228845   3.274   0.200   3.281 -1.3270 -0.6083 -0.3399
 2452TIP3   OH228846   5.503   2.063   4.261 -0.5733 -0.2516 -0.2899
 2452TIP3    H128847   5.544   2.130   4.207 -0.9110 -0.3744 -0.7062
 2452TIP3    H228848   5.409   2.075   4.246 -0.6814 -0.1396  0.4486
 2453TIP3   OH228849   5.289   2.533   3.099 -0.3626  0.0116  0.0431
 2453TIP3    H128850   5.351   2.526   3.027 -2.0554  1.1427 -1.5488
 2453TIP3    H228851   5.247   2.618   3.087 -2.4803 -0.8961  0.8856
 2454TIP3   OH228852   1.208   0.157   4.613 -0.0986 -0.0732  0.8711
 2454TIP3    H128853   1.157   0.131   4.536  1.1331 -0.9974  0.3657
 2454TIP3    H228854   1.182   0.248   4.628 -0.8519 -0.0900 -0.2230
 2455TIP3   OH228855   5.586   4.702  10.620 -0.4770  0.0925 -0.6045
 2455TIP3    H128856   5.615   4.636  10.682 -1.2756  2.2652  2.2296
 2455TIP3    H228857   5.656   4.767  10.620 -0.9492  0.6061 -1.1695
 2456TIP3   OH228858   0.314   2.430   2.769 -0.8901 -0.3189  0.0967
 2456TIP3    H128859   0.365   2.510   2.761 -0.9181 -0.2685  0.4237
 2456TIP3    H228860   0.320   2.407   2.862 -0.6253 -0.8626 -0.0547
 2457TIP3   OH228861   6.022   1.398   1.917 -0.3839  0.4634  0.0869
 2457TIP3    H128862   6.033   1.449   1.997 -1.2063  0.9165 -0.0827
 2457TIP3    H228863   6.018   1.307   1.947  0.6370  0.5205  0.4310
 2458TIP3   OH228864   1.625   2.266  15.287 -0.2208 -0.1901 -0.8712
 2458TIP3    H128865   1.719   2.283  15.274 -0.5188 -0.1469 -3.1555
 2458TIP3    H228866   1.621   2.173  15.309  0.4931  0.1900  0.9162
 2459TIP3   OH228867   0.542   0.657  11.481 -0.1093 -0.4526  0.3186
 2459TIP3    H128868   0.509   0.633  11.568  0.5626 -1.5401  0.2796
 2459TIP3    H228869   0.521   0.750  11.473 -1.9048 -0.7984  0.8548
 2460TIP3   OH228870   1.378   6.469   4.826 -0.3694  0.8707 -0.1431
 2460TIP3    H128871   1.293   6.429   4.845  1.3432 -2.0485  1.7875
 2460TIP3    H228872   1.433   6.445   4.901  2.6809  1.1288 -2.2122
 2461TIP3   OH228873   5.362   4.156  15.775  0.4780  0.4116  0.3161
 2461TIP3    H128874   5.410   4.234  15.747 -0.7867  0.6597 -1.1891
 2461TIP3    H228875   5.271   4.184  15.782  0.1052 -0.7731  0.3720
 2462TIP3   OH228876   1.195   5.387  13.777 -0.0139 -0.1062 -0.3978
 2462TIP3    H128877   1.226   5.425  13.695  0.1382 -0.7811 -0.6517
 2462TIP3    H228878   1.146   5.458  13.819 -1.4558 -0.2232 -1.8081
 2463TIP3   OH228879   3.283   5.119  10.858 -0.0350 -0.1234  0.4137
 2463TIP3    H128880   3.193   5.122  10.826 -0.6190  0.8748  2.0561
 2463TIP3    H228881   3.320   5.205  10.835 -0.2185  0.3075  1.6488
 2464TIP3   OH228882   6.781   0.836  11.564  0.1633 -0.1480  0.0882
 2464TIP3    H128883   6.818   0.855  11.650  0.7827 -1.4265  0.1222
 2464TIP3    H228884   6.840   0.771  11.526 -0.8669 -0.6283 -0.7303
 2465TIP3   OH228885   1.980   1.629   6.250 -0.2099 -0.6182  0.3340
 2465TIP3    H128886   1.987   1.545   6.203 -0.2947 -0.7911  0.6299
 2465TIP3    H228887   2.032   1.616   6.329 -0.5488 -0.5257  0.5707
 2466TIP3   OH228888   1.738   6.299  12.014 -0.0197  0.3764 -0.0040
 2466TIP3    H128889   1.706   6.219  12.057  1.4923 -0.0496  0.3395
 2466TIP3    H228890   1.709   6.370  12.072  1.1227 -0.1287  1.1897
 2467TIP3   OH228891   3.644   0.661  15.190  0.0677  0.3808  0.2626
 2467TIP3    H128892   3.694   0.743  15.184  0.9290 -0.0037  1.7634
 2467TIP3    H228893   3.558   0.687  15.222 -0.2379  0.8908 -0.9527
 2468TIP3   OH228894   6.413   2.573   2.812  0.0814  0.0938  0.4212
 2468TIP3    H128895   6.462   2.655   2.803  1.2880 -0.7239 -0.6742
 2468TIP3    H228896   6.335   2.597   2.861 -0.7064  2.3899 -1.8426
 2469TIP3   OH228897   6.060   1.624   1.712  0.1875  0.2346 -0.1364
 2469TIP3    H128898   6.014   1.547   1.743 -1.0884  0.2981 -1.7821
 2469TIP3    H228899   6.110   1.594   1.636  0.8110  0.7324  0.0671
 2470TIP3   OH228900   4.415   3.889  16.303  0.0240  0.1179 -0.2324
 2470TIP3    H128901   4.347   3.911  16.366  0.5879  0.9406  0.0849
 2470TIP3    H228902   4.494   3.928  16.338  0.4861 -0.0564 -1.0721
 2471TIP3   OH228903   0.212   0.133  13.247 -0.1330 -0.0261 -0.5546
 2471TIP3    H128904   0.274   0.183  13.300  1.3554 -1.8424 -0.5411
 2471TIP3    H228905   0.240   0.147  13.157  1.3392 -2.1610 -0.4562
 2472TIP3   OH228906   5.561   4.074   0.719  0.1242 -0.7613  0.4499
 2472TIP3    H128907   5.578   4.104   0.630 -0.9217 -1.4892  0.0015
 2472TIP3    H228908   5.510   4.145   0.759  0.3225 -0.5765  0.3786
 2473TIP3   OH228909   4.468   5.294   1.647  0.5446 -0.1557 -0.0176
 2473TIP3    H128910   4.559   5.265   1.658  1.1616  1.2343 -1.1802
 2473TIP3    H228911   4.476   5.388   1.626 -1.1119 -0.1996 -0.8810
 2474TIP3   OH228912   0.831   6.267  14.679  0.2429 -0.1172  0.5238
 2474TIP3    H128913   0.830   6.361  14.661  0.2031 -0.4756 -1.4485
 2474TIP3    H228914   0.778   6.228  14.608 -0.4987 -1.5424  1.8108
 2475TIP3   OH228915   5.127   2.767  14.211 -0.0341  0.1662 -0.0453
 2475TIP3    H128916   5.058   2.771  14.277  1.0125 -0.7440  1.1300
 2475TIP3    H228917   5.090   2.716  14.140 -0.5235 -0.4318  0.6400
 2476TIP3   OH228918   0.416   3.632  16.514  0.3796  0.0926  0.3495
 2476TIP3    H128919   0.350   3.612  16.447 -0.4841  1.0952  0.8886
 2476TIP3    H228920   0.494   3.657  16.464 -0.8849  2.8469 -0.3087
 2477TIP3   OH228921   6.139   5.830  10.765 -0.3610  0.0084  0.2332
 2477TIP3    H128922   6.118   5.890  10.693  2.5295  0.7005 -0.0932
 2477TIP3    H228923   6.199   5.879  10.821  0.2580 -1.7690  1.1733
 2478TIP3   OH228924   3.659   5.364  15.602 -0.0077 -0.0510 -0.4518
 2478TIP3    H128925   3.575   5.341  15.641  0.5047  0.2320  0.8505
 2478TIP3    H228926   3.717   5.377  15.677  0.9352  0.7452 -1.3082
 2479TIP3   OH228927   5.337   4.778  14.309  1.0313  0.9469  0.3781
 2479TIP3    H128928   5.311   4.742  14.224 -0.5481 -0.1274  1.2903
 2479TIP3    H228929   5.384   4.707  14.353  0.3572  0.9101  1.0626
 2480TIP3   OH228930   4.851   1.684  13.078 -0.5690 -0.1859  0.8077
 2480TIP3    H128931   4.891   1.739  13.146  1.3993  0.8465 -1.1245
 2480TIP3    H228932   4.815   1.747  13.016 -0.0550 -1.0948 -0.4106
 2481TIP3   OH228933   0.840   0.962   3.050  0.5055  0.3334 -0.1111
 2481TIP3    H128934   0.881   0.906   3.116  0.2714 -3.7775 -3.2203
 2481TIP3    H228935   0.913   1.014   3.015  1.1570  0.3832  1.2721
 2482TIP3   OH228936   1.530   3.218  15.193 -0.0094  0.3267  0.3976
 2482TIP3    H128937   1.478   3.175  15.261  0.3457  0.1241  0.5371
 2482TIP3    H228938   1.585   3.149  15.157 -0.5549  0.3157 -0.4485
 2483TIP3   OH228939   0.238   0.529   3.988  0.2256 -0.3872 -0.0612
 2483TIP3    H128940   0.243   0.452   3.931 -0.6908  1.1640 -2.3027
 2483TIP3    H228941   0.148   0.531   4.018  0.3422 -0.3887  0.2918
 2484TIP3   OH228942   3.111   0.528   5.354  0.5633  0.6157  0.3001
 2484TIP3    H128943   3.064   0.526   5.437 -1.6801  0.7529 -0.9384
 2484TIP3    H228944   3.106   0.619   5.326  0.3301  0.3457 -0.5426
 2485TIP3   OH228945   1.937   4.366   1.744 -0.4141  0.0185 -0.3805
 2485TIP3    H128946   2.012   4.392   1.690 -0.6284  0.6037 -0.3989
 2485TIP3    H228947   1.930   4.435   1.809 -1.2756  0.2410 -0.7106
 2486TIP3   OH228948   4.805   4.722  12.400  0.1496 -0.4982  0.0733
 2486TIP3    H128949   4.716   4.757  12.397  0.1163 -0.5725  0.1997
 2486TIP3    H228950   4.825   4.700  12.309 -0.2445 -1.1994  0.1574
 2487TIP3   OH228951   5.714   3.138   3.372  0.1880  0.2637 -0.3646
 2487TIP3    H128952   5.695   3.068   3.435  3.3345 -1.1215 -0.8244
 2487TIP3    H228953   5.764   3.202   3.422  0.9029  0.1488 -0.9116
 2488TIP3   OH228954   2.171   1.313   3.492  0.6927 -0.1082  0.1270
 2488TIP3    H128955   2.111   1.381   3.523 -0.1212 -1.1366  0.8790
 2488TIP3    H228956   2.152   1.303   3.399 -0.7981 -0.8966  0.5050
 2489TIP3   OH228957   0.957   4.643   3.991 -0.0085  0.4408  0.5513
 2489TIP3    H128958   0.876   4.622   3.944  0.5950 -3.4026  1.1126
 2489TIP3    H228959   0.935   4.633   4.083  1.0567 -0.3631  0.7141
 2490TIP3   OH228960   5.760   5.423  10.453  0.0076  0.2776  0.1452
 2490TIP3    H128961   5.715   5.400  10.535  2.3057 -1.2236  1.0438
 2490TIP3    H228962   5.744   5.516  10.443 -2.6600 -0.0403  0.8087
 2491TIP3   OH228963   0.041   2.660   1.595 -0.2649  0.1555  0.4335
 2491TIP3    H128964  -0.041   2.707   1.582 -0.5774 -0.0096  1.7708
 2491TIP3    H228965   0.061   2.672   1.688 -0.4062 -2.4746  0.8320
 2492TIP3   OH228966   3.514   0.411  12.929  0.3579 -0.1031  0.0832
 2492TIP3    H128967   3.526   0.344  12.863  0.2402  0.1696 -0.2163
 2492TIP3    H228968   3.554   0.374  13.008  1.5617  0.0496 -0.4409
 2493TIP3   OH228969   4.960   1.684   3.560 -0.8897 -0.1088  0.0532
 2493TIP3    H128970   5.017   1.754   3.593 -1.1050  0.0772  0.0297
 2493TIP3    H228971   4.978   1.681   3.466  0.1887 -1.0643  0.2702
 2494TIP3   OH228972   6.174   0.150  12.715 -0.6368  0.4182 -0.1459
 2494TIP3    H128973   6.166   0.240  12.684 -0.1697 -0.1941 -2.1033
 2494TIP3    H228974   6.259   0.120  12.682 -0.9329 -0.8461  0.2022
 2495TIP3   OH228975   0.454   3.167   4.453  0.1281  0.3030  0.0349
 2495TIP3    H128976   0.365   3.155   4.483  0.4489  0.8649  1.2254
 2495TIP3    H228977   0.472   3.090   4.398 -0.3438 -0.8930  1.5483
 2496TIP3   OH228978   2.436   4.185   3.403 -0.0560  0.5116  0.0951
 2496TIP3    H128979   2.385   4.157   3.479 -0.0752  0.7876  0.1871
 2496TIP3    H228980   2.384   4.157   3.327  0.3189 -0.3973  0.1822
 2497TIP3   OH228981   4.703   3.278  10.525  0.1711  0.0835 -0.1436
 2497TIP3    H128982   4.649   3.336  10.579 -1.3797 -2.3355  1.0175
 2497TIP3    H228983   4.650   3.261  10.447  0.1720 -0.5670 -0.0075
 2498TIP3   OH228984   0.920   4.631  16.732 -0.1097 -0.3357  0.3940
 2498TIP3    H128985   0.926   4.558  16.794 -0.0781  1.0546  2.0699
 2498TIP3    H228986   0.840   4.677  16.757 -0.2289  0.0900 -0.7745
 2499TIP3   OH228987   3.397   2.635  14.773  0.4900  0.1812  0.0751
 2499TIP3    H128988   3.381   2.684  14.853 -0.7668  1.1069 -0.7176
 2499TIP3    H228989   3.456   2.564  14.799  1.3857  1.4162  1.4796
 2500TIP3   OH228990   3.749   3.664  17.057  0.2453 -0.2212 -0.0091
 2500TIP3    H128991   3.760   3.601  17.129  0.4120 -0.1907 -0.0072
 2500TIP3    H228992   3.655   3.678  17.051  0.1833 -0.7200 -0.2195
 2501TIP3   OH228993   5.651   1.139   5.602 -0.6570  0.0924 -0.6153
 2501TIP3    H128994   5.735   1.181   5.623 -0.0271 -1.4971  0.1265
 2501TIP3    H228995   5.610   1.124   5.687 -0.3188 -1.8672 -0.7681
 2502TIP3   OH228996   1.972   0.861  13.408 -0.6607  0.1361 -0.0253
 2502TIP3    H128997   1.945   0.931  13.348 -1.3008 -0.2700 -0.2229
 2502TIP3    H228998   1.998   0.906  13.488 -0.2598  0.6540 -0.4427
 2503TIP3   OH228999   4.537   0.703   2.222  0.3161  0.2559 -0.3757
 2503TIP3    H129000   4.613   0.646   2.233  0.4259  0.4932  0.1211
 2503TIP3    H229001   4.465   0.644   2.200  0.3607 -0.1094  0.4309
 2504TIP3   OH229002   4.041   5.323  16.693 -0.3460  0.4095 -0.3124
 2504TIP3    H129003   4.060   5.295  16.604  2.2759  0.3525  0.2224
 2504TIP3    H229004   4.027   5.418  16.686 -0.9594  0.2846 -0.8773
 2505TIP3   OH229005   6.278   4.955   4.151  0.3203  0.1772  1.0568
 2505TIP3    H129006   6.191   4.967   4.114 -0.0000  2.5591  2.4578
 2505TIP3    H229007   6.264   4.900   4.228  0.1439  0.0903  0.9640
 2506TIP3   OH229008   1.352   3.793  12.067  0.0496 -0.1406 -0.3753
 2506TIP3    H129009   1.407   3.734  12.015 -0.8804 -2.3645  1.1002
 2506TIP3    H229010   1.265   3.787  12.027 -0.0531  0.2191 -0.2119
 2507TIP3   OH229011   4.917   5.247   1.808 -0.5509 -0.5158  0.3973
 2507TIP3    H129012   4.841   5.303   1.798 -0.8116 -1.4409 -3.5163
 2507TIP3    H229013   4.883   5.167   1.848 -1.5893 -0.8257 -1.0988
 2508TIP3   OH229014   5.657   3.737   2.976 -0.2182 -0.3439 -0.2475
 2508TIP3    H129015   5.579   3.716   2.925 -0.9535  1.0468  0.2822
 2508TIP3    H229016   5.626   3.794   3.046  1.4488  1.1560 -0.6820
 2509TIP3   OH229017   0.498   4.210  14.198  0.2227  0.3561 -0.2531
 2509TIP3    H129018   0.541   4.222  14.113 -0.8945 -0.5239 -0.9617
 2509TIP3    H229019   0.434   4.281  14.203 -1.8064 -1.3242 -1.5149
 2510TIP3   OH229020   6.695   6.654  12.845  0.4513 -0.1438 -0.5397
 2510TIP3    H129021   6.788   6.651  12.867  0.3812  1.3652 -0.0349
 2510TIP3    H229022   6.658   6.576  12.887  1.0352  0.5739  1.3403
 2511TIP3   OH229023   2.501   2.689   4.608  0.6996  0.1870 -0.6179
 2511TIP3    H129024   2.477   2.772   4.647  0.6804 -0.0975 -0.0263
 2511TIP3    H229025   2.596   2.695   4.596  1.2790 -1.1442  2.8640
 2512TIP3   OH229026   2.038   4.333   3.350  2.0140  0.1079 -0.1983
 2512TIP3    H129027   2.104   4.326   3.281  2.3235  1.8896 -0.1174
 2512TIP3    H229028   2.087   4.365   3.426  1.7367 -2.1229  0.9649
 2513TIP3   OH229029   2.242   6.180   4.792 -0.3951 -0.0290 -0.4725
 2513TIP3    H129030   2.168   6.223   4.836 -1.7833 -1.0255 -1.7887
 2513TIP3    H229031   2.205   6.148   4.710  1.1775 -1.7628 -0.5185
 2514TIP3   OH229032   0.359   3.187  14.773 -0.4565 -0.2773 -0.0287
 2514TIP3    H129033   0.445   3.203  14.734 -0.3962  2.5984  1.1333
 2514TIP3    H229034   0.300   3.245  14.724 -0.6382  2.2665  3.0172
 2515TIP3   OH229035   0.309   4.720   0.627 -0.2773  0.0481  0.0654
 2515TIP3    H129036   0.220   4.709   0.593  0.0971  0.7299 -1.1722
 2515TIP3    H229037   0.355   4.642   0.598 -0.8602 -1.0472  2.0312
 2516TIP3   OH229038   0.404   2.864   1.066  0.0266 -0.0215  0.0641
 2516TIP3    H129039   0.397   2.793   1.129 -0.9582 -0.4577 -0.5148
 2516TIP3    H229040   0.353   2.834   0.990 -0.4913  1.3332 -0.1476
 2517TIP3   OH229041   6.335   5.775   6.509  0.1128  0.0992 -0.6324
 2517TIP3    H129042   6.356   5.866   6.489  0.3340  0.6283  1.7728
 2517TIP3    H229043   6.253   5.780   6.559  0.4477 -0.9519  0.0591
 2518TIP3   OH229044   2.698   0.038  13.862 -0.1797  0.1260 -0.2876
 2518TIP3    H129045   2.691  -0.045  13.816  1.6521 -0.0947 -0.2150
 2518TIP3    H229046   2.630   0.035  13.929 -0.2030 -1.2631 -0.3705
 2519TIP3   OH229047   5.107   0.908  11.833 -0.0135 -0.2123 -0.2629
 2519TIP3    H129048   5.183   0.954  11.869  1.0347 -2.0946  0.0114
 2519TIP3    H229049   5.128   0.896  11.740  0.1363 -0.9342 -0.1382
 2520TIP3   OH229050   2.505   2.334   1.163  0.0275 -0.0189 -0.3391
 2520TIP3    H129051   2.414   2.317   1.141 -0.3187 -0.8149  1.6061
 2520TIP3    H229052   2.543   2.248   1.180  1.3919  0.2305 -2.0417
 2521TIP3   OH229053   1.522   1.242  14.982 -0.0944  0.0685 -0.4457
 2521TIP3    H129054   1.607   1.274  15.009  0.1170 -0.6779 -0.2018
 2521TIP3    H229055   1.541   1.178  14.913 -0.3535 -1.1584  0.6000
 2522TIP3   OH229056   4.450   2.346  11.828 -0.3498 -0.3374  0.0765
 2522TIP3    H129057   4.529   2.291  11.833 -0.6752 -1.1658 -3.0050
 2522TIP3    H229058   4.442   2.369  11.736 -3.8101 -0.3906  0.2915
 2523TIP3   OH229059   4.026   2.202   2.680  0.6777 -0.1092  0.3800
 2523TIP3    H129060   3.980   2.175   2.600  1.0682 -1.0774  0.4700
 2523TIP3    H229061   4.102   2.252   2.649 -0.0592  0.9227  0.2103
 2524TIP3   OH229062   4.734   3.026  12.274  0.5331 -0.1275  0.4652
 2524TIP3    H129063   4.809   3.084  12.266 -0.4901  1.2636  0.8651
 2524TIP3    H229064   4.668   3.063  12.215 -0.4248 -0.3992  1.3488
 2525TIP3   OH229065   5.059   3.139   2.030  0.0315 -0.5414  0.2638
 2525TIP3    H129066   5.151   3.163   2.041  0.2458 -0.1720 -1.9885
 2525TIP3    H229067   5.054   3.101   1.942 -1.8028 -1.4078  0.7116
 2526TIP3   OH229068   5.894   0.243   4.591  0.7722 -0.2313  0.2958
 2526TIP3    H129069   5.871   0.196   4.671  1.6668  0.2754  0.8588
 2526TIP3    H229070   5.952   0.184   4.544 -0.2638 -0.7946 -0.2968
 2527TIP3   OH229071   5.871   0.603  15.957  0.2757 -0.1897 -0.4778
 2527TIP3    H129072   5.910   0.629  16.041 -1.1141 -1.4512  0.6022
 2527TIP3    H229073   5.824   0.680  15.927  1.7744  0.6489 -0.6924
 2528TIP3   OH229074   4.120   2.785   5.872 -0.0475  0.4864  0.2169
 2528TIP3    H129075   4.097   2.776   5.964 -0.5119 -0.8342 -0.0062
 2528TIP3    H229076   4.184   2.715   5.857 -1.9712 -1.0602 -1.0773
 2529TIP3   OH229077   2.082   4.286  13.986 -0.4208  0.3548  0.0075
 2529TIP3    H129078   2.030   4.353  14.030 -0.3022  0.4132  0.0594
 2529TIP3    H229079   2.018   4.234  13.936 -0.4037  1.1031 -0.8087
 2530TIP3   OH229080   2.522   6.191   0.128 -0.0924 -0.8099 -0.0923
 2530TIP3    H129081   2.431   6.180   0.155 -0.1206  1.8662  1.1329
 2530TIP3    H229082   2.567   6.113   0.159 -1.4214 -0.8025  1.9508
 2531TIP3   OH229083   6.115   0.224   0.795 -0.0118  0.3927 -0.1386
 2531TIP3    H129084   6.146   0.268   0.874  1.6486  0.4604 -0.8215
 2531TIP3    H229085   6.022   0.247   0.790  0.0584  1.0422  1.3441
 2532TIP3   OH229086   0.448   0.983   6.155 -0.1877 -0.0130  0.1621
 2532TIP3    H129087   0.420   1.049   6.092  1.9009  1.3934  0.6355
 2532TIP3    H229088   0.543   0.977   6.142 -0.1726 -2.0185  1.0003
 2533TIP3   OH229089   2.055   4.233   0.921  0.1982  0.3681  0.0390
 2533TIP3    H129090   2.081   4.264   0.834 -1.3376  1.0358 -0.2200
 2533TIP3    H229091   1.968   4.195   0.908  0.7834 -1.3290  0.9356
 2534TIP3   OH229092   2.494   6.309  11.219  0.3822 -0.0437 -0.4134
 2534TIP3    H129093   2.576   6.264  11.241  0.1409 -0.4994 -0.4408
 2534TIP3    H229094   2.426   6.253  11.255  0.0982  0.5823  0.0398
 2535TIP3   OH229095   1.880   6.709   3.099  0.9019  0.3521  0.4250
 2535TIP3    H129096   1.944   6.689   3.168  0.9479 -1.0709 -0.0124
 2535TIP3    H229097   1.837   6.625   3.082 -0.7083  1.1931  0.3268
 2536TIP3   OH229098   1.566   0.909  15.436 -0.1483  0.0886 -0.3911
 2536TIP3    H129099   1.507   0.956  15.495  2.5319  1.0339  1.6705
 2536TIP3    H229100   1.558   0.817  15.461  1.0629  0.4993  1.5980
 2537TIP3   OH229101   2.811   4.584  13.849  0.7392  0.1421  0.3398
 2537TIP3    H129102   2.725   4.600  13.888  0.0521  0.8205 -1.4088
 2537TIP3    H229103   2.862   4.542  13.919 -0.2452  1.8841  2.1638
 2538TIP3   OH229104   6.186   3.453  14.277  0.3384 -0.5894  0.4658
 2538TIP3    H129105   6.273   3.448  14.317 -0.3645 -0.4411  2.0642
 2538TIP3    H229106   6.131   3.396  14.331 -0.7420 -0.0657 -0.0427
 2539TIP3   OH229107   2.952   5.571   4.588  0.3166 -0.1277 -0.1822
 2539TIP3    H129108   3.020   5.629   4.624 -0.7113  0.4312  0.9026
 2539TIP3    H229109   2.888   5.563   4.659  0.5819 -2.8364 -0.1886
 2540TIP3   OH229110   3.127   0.293   0.214 -0.2872  0.1662  0.3493
 2540TIP3    H129111   3.160   0.203   0.214 -0.6998  0.0081  1.1315
 2540TIP3    H229112   3.096   0.308   0.125  0.8661 -0.0596 -0.1015
 2541TIP3   OH229113   3.267   4.464  13.436  0.2907 -0.1505  0.5674
 2541TIP3    H129114   3.326   4.434  13.504  1.8836  0.4679 -0.5073
 2541TIP3    H229115   3.187   4.488  13.482  0.6244 -1.6573  1.9641
 2542TIP3   OH229116   4.827   1.997  14.892 -0.1298  0.0561  0.0528
 2542TIP3    H129117   4.902   2.048  14.925 -2.0553  2.6786  0.5361
 2542TIP3    H229118   4.824   2.017  14.799 -0.3100  0.0197  0.0520
 2543TIP3   OH229119   3.811   6.126  16.488 -0.2866  0.7894  0.3271
 2543TIP3    H129120   3.832   6.139  16.580 -1.4760  0.4319  0.6422
 2543TIP3    H229121   3.818   6.214  16.450 -0.5346  1.0552  0.8968
 2544TIP3   OH229122   0.077   1.279  10.760 -0.4267  0.2801  0.0722
 2544TIP3    H129123   0.044   1.339  10.693  0.0601 -0.5771 -0.9448
 2544TIP3    H229124   0.172   1.290  10.757 -0.4591  0.9358  1.2885
 2545TIP3   OH229125   6.253   3.582   5.795 -0.1337 -0.0854  0.4696
 2545TIP3    H129126   6.288   3.587   5.706  2.0398 -2.0337  1.1784
 2545TIP3    H229127   6.330   3.584   5.852 -1.3367 -1.3677  2.2076
 2546TIP3   OH229128   6.492   3.211  14.947  0.6139 -0.0422 -0.4773
 2546TIP3    H129129   6.537   3.190  15.028 -1.5211  0.7389  0.9467
 2546TIP3    H229130   6.401   3.229  14.973  0.0814  1.0521 -2.9011
 2547TIP3   OH229131   4.958   4.339   5.338 -0.4529 -0.0339  0.0528
 2547TIP3    H129132   5.028   4.326   5.401 -0.9975  0.5626  0.7940
 2547TIP3    H229133   5.002   4.358   5.255  0.2563  0.0625  0.4547
 2548TIP3   OH229134   3.369   6.532   3.181 -0.2702 -0.0602 -0.0598
 2548TIP3    H129135   3.418   6.612   3.202 -0.0102 -0.3938  0.6242
 2548TIP3    H229136   3.356   6.489   3.265  0.3783 -1.1856 -0.5148
 2549TIP3   OH229137   3.832   2.176   4.688 -0.1437  0.2865  0.5150
 2549TIP3    H129138   3.764   2.121   4.648  2.4837 -3.6676  1.1052
 2549TIP3    H229139   3.900   2.183   4.622  0.8854  0.2211  1.5394
 2550TIP3   OH229140   5.030   6.013   5.321 -0.0450 -0.1513  0.6238
 2550TIP3    H129141   5.041   6.095   5.273  0.6490 -0.1005  0.8720
 2550TIP3    H229142   4.960   5.967   5.274 -0.9485  0.8983  0.9120
 2551TIP3   OH229143   0.020   4.404   5.836 -0.8560  0.2167  0.6483
 2551TIP3    H129144   0.075   4.467   5.790  0.2442  0.6924  2.5330
 2551TIP3    H229145  -0.053   4.455   5.870 -0.1665  0.4143  1.8488
 2552TIP3   OH229146   5.031   4.784   5.269 -0.5353  0.5483 -0.2102
 2552TIP3    H129147   4.986   4.826   5.343  1.7052  0.4612  1.2425
 2552TIP3    H229148   5.011   4.839   5.194 -3.0728  0.5008  0.3828
 2553TIP3   OH229149   6.478   1.338  14.841 -0.5534  0.1191 -0.2168
 2553TIP3    H129150   6.420   1.271  14.803  0.5183 -0.5560 -0.6788
 2553TIP3    H229151   6.521   1.294  14.914 -0.0057  0.3580 -0.3907
 2554TIP3   OH229152   2.639   2.809  15.720 -0.0980  0.1040  0.1886
 2554TIP3    H129153   2.685   2.727  15.701 -1.5681 -0.5882 -0.4991
 2554TIP3    H229154   2.675   2.838  15.803  0.6924 -1.0706  0.2715
 2555TIP3   OH229155   1.354   1.957  13.145 -0.3899 -0.1342 -0.7272
 2555TIP3    H129156   1.344   1.869  13.108 -1.2881 -0.0701 -0.6488
 2555TIP3    H229157   1.268   1.997  13.137 -0.1404  0.5285 -0.2159
 2556TIP3   OH229158   4.522   1.243   0.863 -0.4330 -0.2486  0.1753
 2556TIP3    H129159   4.552   1.169   0.809  1.2395  1.4828 -1.3943
 2556TIP3    H229160   4.602   1.273   0.907 -1.0520  0.7166  0.6431
 2557TIP3   OH229161   1.778   6.462   3.033 -0.4527 -0.0131  0.8426
 2557TIP3    H129162   1.853   6.444   2.975 -0.1136  2.5617  0.3724
 2557TIP3    H229163   1.747   6.376   3.060  2.6882 -1.1765  1.0450
 2558TIP3   OH229164   2.954   5.943  11.720 -0.1733  0.0607  0.0287
 2558TIP3    H129165   2.896   5.940  11.796  0.4747 -1.3650  0.4909
 2558TIP3    H229166   2.964   5.851  11.694  0.8265  0.4036 -0.8346
 2559TIP3   OH229167   4.341   3.692  17.265  0.1801  0.2392 -0.4083
 2559TIP3    H129168   4.387   3.638  17.329 -0.1908  0.5074  0.0926
 2559TIP3    H229169   4.251   3.698  17.299  0.2416  1.2468 -0.3893
 2560TIP3   OH229170   2.239   0.164  13.088  0.1574  0.2363 -0.0003
 2560TIP3    H129171   2.171   0.108  13.051  0.2692 -1.1200  1.7701
 2560TIP3    H229172   2.280   0.109  13.155 -0.6147  2.9108  2.7358
 2561TIP3   OH229173   0.344   0.291  13.040 -0.5097 -0.4083 -0.6067
 2561TIP3    H129174   0.428   0.250  13.061 -0.4286 -0.3015 -0.7183
 2561TIP3    H229175   0.343   0.372  13.091 -0.6552 -0.5302 -0.4132
 2562TIP3   OH229176   0.525   0.127  13.162 -0.1846  0.5129  0.1118
 2562TIP3    H129177   0.607   0.168  13.189  0.1665  1.4710 -2.2692
 2562TIP3    H229178   0.549   0.071  13.088 -1.7712  1.3009 -1.0381
 2563TIP3   OH229179   4.099   0.411  14.876 -0.0191  0.4973  0.2913
 2563TIP3    H129180   4.086   0.356  14.798  0.0518 -0.6208  1.0606
 2563TIP3    H229181   4.088   0.500  14.844  0.9855  0.1111 -1.2138
 2564TIP3   OH229182   5.199   2.395   1.108 -0.0267  0.7341  0.2448
 2564TIP3    H129183   5.278   2.441   1.137  1.6247 -0.4984 -2.1159
 2564TIP3    H229184   5.177   2.337   1.182  2.5197 -0.4100  0.1756
 2565TIP3   OH229185   4.205   0.314   1.617  0.5033 -0.6449  0.2283
 2565TIP3    H129186   4.296   0.338   1.600  0.4769 -0.1752  0.7349
 2565TIP3    H229187   4.170   0.289   1.532  1.0758 -0.7238  0.0157
 2566TIP3   OH229188   5.958   0.742  11.366  0.3210 -0.1473 -0.0496
 2566TIP3    H129189   5.930   0.748  11.275  1.2230  0.2631 -0.2960
 2566TIP3    H229190   5.997   0.827  11.385  1.5562 -0.7839  0.2588
 2567TIP3   OH229191   1.512   6.340  15.530 -0.3291 -0.2872  0.0064
 2567TIP3    H129192   1.503   6.247  15.552  0.8540 -0.3086  0.4303
 2567TIP3    H229193   1.471   6.386  15.603  0.7736 -0.4424  0.7463
 2568TIP3   OH229194   2.887   5.056   1.348  0.6278 -0.4088  0.4051
 2568TIP3    H129195   2.891   4.963   1.367 -0.1013 -0.5523 -0.1079
 2568TIP3    H229196   2.978   5.085   1.345  0.8565 -1.1443  0.3856
 2569TIP3   OH229197   0.345   0.321   2.836 -0.2750  0.2220  0.7820
 2569TIP3    H129198   0.274   0.348   2.896  0.1511 -0.3685  1.5652
 2569TIP3    H229199   0.309   0.336   2.749 -0.8736  1.2057  1.1782
 2570TIP3   OH229200   4.757   4.813  13.624 -0.1773 -0.2717 -0.3463
 2570TIP3    H129201   4.823   4.840  13.688  0.6892  0.8233 -1.6690
 2570TIP3    H229202   4.699   4.889  13.615 -2.7050 -1.8185  2.0924
 2571TIP3   OH229203   1.187   1.178  12.808 -0.0190 -0.6342 -0.2002
 2571TIP3    H129204   1.144   1.096  12.782  0.5597 -0.6627 -1.0982
 2571TIP3    H229205   1.280   1.157  12.809  0.0671 -0.2199  0.4390
 2572TIP3   OH229206   0.183   6.628  13.982  0.0811 -0.2042 -0.3834
 2572TIP3    H129207   0.146   6.600  13.898  0.6623 -0.9190 -0.4014
 2572TIP3    H229208   0.275   6.647  13.962  0.6823 -2.0973  0.4572
 2573TIP3   OH229209   1.667   5.847   5.942  0.0080  0.5950  0.0002
 2573TIP3    H129210   1.738   5.858   5.879  0.3134 -0.9098  0.0510
 2573TIP3    H229211   1.588   5.844   5.888  0.3711 -1.9206 -0.4782
 2574TIP3   OH229212   1.987   4.814  14.144  0.5457  0.4506 -0.2134
 2574TIP3    H129213   2.073   4.838  14.109  1.5482 -1.5947  0.8058
 2574TIP3    H229214   1.987   4.848  14.233 -0.5693  2.3304 -0.8815
 2575TIP3   OH229215   3.350   5.568  15.294  0.7275  0.0787 -0.6335
 2575TIP3    H129216   3.312   5.569  15.381  0.4958  0.1622 -0.7342
 2575TIP3    H229217   3.439   5.536  15.306  1.4218  2.1780 -0.0940
 2576TIP3   OH229218   3.170   1.238  12.154 -0.2240 -0.1888 -0.0672
 2576TIP3    H129219   3.262   1.256  12.136  0.0112 -0.7859  0.5173
 2576TIP3    H229220   3.170   1.156  12.203 -1.0246  0.0817  0.4134
 2577TIP3   OH229221   2.048   0.679   1.068 -0.5554 -0.7103  0.0994
 2577TIP3    H129222   2.132   0.721   1.082 -0.6350 -0.7738  0.7613
 2577TIP3    H229223   2.055   0.595   1.114 -2.1077  0.6306  2.8448
 2578TIP3   OH229224   1.686   4.634   2.610 -0.5927  0.1647  0.1594
 2578TIP3    H129225   1.719   4.550   2.644  1.0861  0.9919  0.6022
 2578TIP3    H229226   1.678   4.619   2.516 -1.4276 -0.8595  0.3747
 2579TIP3   OH229227   2.655   2.689  16.652  0.4684 -0.8083 -0.3299
 2579TIP3    H129228   2.657   2.779  16.684  0.9897 -0.3530 -1.6264
 2579TIP3    H229229   2.571   2.655  16.683 -0.0565  0.3537 -0.4474
 2580TIP3   OH229230   4.731   6.186  16.831 -0.2537 -0.0045 -0.0794
 2580TIP3    H129231   4.769   6.239  16.900  0.8198 -0.0093 -0.6600
 2580TIP3    H229232   4.797   6.119  16.812  0.9864  2.0650 -3.4942
 2581TIP3   OH229233   4.629   6.597  16.107 -0.2562  0.7125  0.1656
 2581TIP3    H129234   4.609   6.680  16.064  0.0423  0.7191  0.0365
 2581TIP3    H229235   4.682   6.549  16.042 -0.6063  0.3374  0.1527
 2582TIP3   OH229236   3.233   5.780  13.670  0.1714  0.1290  0.0958
 2582TIP3    H129237   3.182   5.797  13.749 -1.3455  3.3205 -1.4631
 2582TIP3    H229238   3.171   5.735  13.612  1.2890 -2.2349  0.7064
 2583TIP3   OH229239   1.554   2.319  12.734 -0.1243 -0.0907  0.0784
 2583TIP3    H129240   1.471   2.291  12.773  0.0079 -0.8384 -0.1605
 2583TIP3    H229241   1.577   2.400  12.780 -2.1032  1.3401 -1.3396
 2584TIP3   OH229242   1.584   4.383   0.807  0.4968  0.0740 -0.0974
 2584TIP3    H129243   1.544   4.396   0.893 -2.6289  1.8403 -1.7239
 2584TIP3    H229244   1.537   4.308   0.770  0.9309  0.1211 -0.7595
 2585TIP3   OH229245   3.625   1.046   4.347 -0.4751  0.5959  0.5790
 2585TIP3    H129246   3.684   0.971   4.355  2.3676  2.8095  1.2372
 2585TIP3    H229247   3.627   1.068   4.253 -0.8921  0.1694  0.4705
 2586TIP3   OH229248   4.061   5.039   2.751 -0.3704 -0.2207  0.2961
 2586TIP3    H129249   3.985   4.981   2.745  0.2211 -0.9516 -0.1198
 2586TIP3    H229250   4.115   5.001   2.821  0.0699 -0.2383 -0.0513
 2587TIP3   OH229251   2.401   6.528  11.874  0.0765  0.9839 -0.2426
 2587TIP3    H129252   2.393   6.574  11.790 -1.0681  0.8141 -0.2257
 2587TIP3    H229253   2.470   6.464  11.859  0.8392  1.8813 -0.6364
 2588TIP3   OH229254   2.749   6.021  15.787  0.1603 -0.1149 -0.1916
 2588TIP3    H129255   2.784   5.981  15.708  0.8142 -0.9010  0.4876
 2588TIP3    H229256   2.821   6.015  15.851 -1.5243 -2.6309  1.5190
 2589TIP3   OH229257   2.003   2.085   3.096  0.3537  0.3301  0.5972
 2589TIP3    H129258   2.020   2.040   3.013 -1.8717 -0.3248  0.4828
 2589TIP3    H229259   2.090   2.111   3.127  1.2259  0.3805 -1.8182
 2590TIP3   OH229260   3.224   6.241   0.526 -0.2129  0.0944 -0.1058
 2590TIP3    H129261   3.241   6.331   0.553 -2.7222  0.6508 -0.2654
 2590TIP3    H229262   3.201   6.248   0.433  2.1107 -1.0453 -0.8019
 2591TIP3   OH229263   5.882   0.839  11.827  0.4060  0.1336  0.2844
 2591TIP3    H129264   5.896   0.861  11.919 -1.6921 -2.2387  1.2419
 2591TIP3    H229265   5.789   0.817  11.821  0.4219  0.6104 -2.5040
 2592TIP3   OH229266   5.148   3.439  11.180 -0.3016 -0.5998  0.3160
 2592TIP3    H129267   5.217   3.384  11.145 -0.8815 -0.5603 -0.9300
 2592TIP3    H229268   5.120   3.395  11.260  0.2998 -1.2819  0.1551
 2593TIP3   OH229269   4.846   5.162   4.535  0.6579  0.1597 -0.7845
 2593TIP3    H129270   4.851   5.080   4.487  0.9585 -0.6165  0.5541
 2593TIP3    H229271   4.754   5.169   4.561  0.4884  0.5957 -1.4948
 2594TIP3   OH229272   4.779   1.834  17.143  0.3327  0.4663 -0.2609
 2594TIP3    H129273   4.846   1.832  17.075 -1.4769  1.9943 -2.1883
 2594TIP3    H229274   4.756   1.927  17.151 -1.2693  0.0120  0.6397
 2595TIP3   OH229275   3.266   2.367  13.132 -0.4393  0.4851  0.3013
 2595TIP3    H129276   3.290   2.447  13.177 -1.3549  0.8496  0.1371
 2595TIP3    H229277   3.241   2.395  13.044  1.3999 -0.2161 -0.4966
 2596TIP3   OH229278   6.074   5.254  12.752 -0.3322 -0.3043  0.8386
 2596TIP3    H129279   6.138   5.183  12.764 -0.3225 -0.5395 -0.4807
 2596TIP3    H229280   6.127   5.332  12.737 -0.3191 -0.6327 -1.0024
 2597TIP3   OH229281   3.917   5.277  14.852 -0.0124  0.2427  0.4436
 2597TIP3    H129282   3.832   5.318  14.866  0.5255  1.6700 -0.3141
 2597TIP3    H229283   3.929   5.276  14.757  0.7845 -0.0036  0.5398
 2598TIP3   OH229284   3.251   3.233  11.727 -0.1484 -0.3023 -0.2132
 2598TIP3    H129285   3.313   3.302  11.753 -0.5863 -0.2617  0.7360
 2598TIP3    H229286   3.165   3.273  11.738 -0.3436 -0.3081 -1.6942
 2599TIP3   OH229287   1.489   3.453   1.811  0.0172  0.2983  0.6023
 2599TIP3    H129288   1.508   3.546   1.816  0.5008  0.1555  1.8084
 2599TIP3    H229289   1.439   3.435   1.890 -0.7768 -0.3081 -0.0391
 2600TIP3   OH229290   3.436   2.470   1.719 -0.1693 -0.2435  0.5335
 2600TIP3    H129291   3.392   2.525   1.784 -0.3608  0.7190 -0.3856
 2600TIP3    H229292   3.476   2.532   1.658 -0.2150 -1.1140 -0.4077
 2601TIP3   OH229293   3.937   6.015  11.537 -0.0386 -0.2737  0.2150
 2601TIP3    H129294   3.935   6.105  11.506 -0.7186 -0.0225  0.9473
 2601TIP3    H229295   4.029   5.989  11.532  0.0808  0.2845 -0.4829
 2602TIP3   OH229296   3.408   6.537  11.925 -0.5358  0.2858  0.0890
 2602TIP3    H129297   3.335   6.571  11.873  0.2544  0.4429 -0.9312
 2602TIP3    H229298   3.468   6.611  11.933 -0.5859  0.2191  1.1031
 2603TIP3   OH229299   1.791   5.181  14.658  0.3639  0.3360  0.0698
 2603TIP3    H129300   1.736   5.193  14.736  0.4797 -1.1023  0.4012
 2603TIP3    H229301   1.800   5.268  14.621  0.0434  0.9951  1.4996
 2604TIP3   OH229302   6.345   2.557  11.615 -0.1423 -0.7389  0.3401
 2604TIP3    H129303   6.282   2.486  11.630 -1.2412  0.2010  0.2789
 2604TIP3    H229304   6.290   2.633  11.595  1.0890 -0.8352 -3.9734
 2605TIP3   OH229305   3.892   6.216   0.746  0.6317 -0.6652  0.1319
 2605TIP3    H129306   3.904   6.147   0.680  2.4768 -0.4357  0.1835
 2605TIP3    H229307   3.798   6.218   0.762  0.4493 -2.5911 -0.4978
 2606TIP3   OH229308   2.803   1.643   4.878 -0.1386  0.1455 -0.3338
 2606TIP3    H129309   2.806   1.734   4.907 -0.5261  0.4034 -1.0842
 2606TIP3    H229310   2.710   1.623   4.870 -0.0368  0.0347 -1.2515
 2607TIP3   OH229311   6.489   3.713  16.666 -0.0288  0.1628 -0.4277
 2607TIP3    H129312   6.398   3.709  16.636 -0.3518  0.2052  0.5037
 2607TIP3    H229313   6.527   3.788  16.620 -1.0139  1.3216  0.6003
 2608TIP3   OH229314   6.380   2.563  13.028  0.4256  0.3096 -0.3262
 2608TIP3    H129315   6.436   2.610  12.966 -0.5300  0.2426 -1.2613
 2608TIP3    H229316   6.294   2.563  12.987 -0.5733  1.5630  1.7074
 2609TIP3   OH229317   2.338   2.020  15.634  0.5066  0.1626 -1.0072
 2609TIP3    H129318   2.305   2.069  15.710  1.2966  0.4360 -0.8339
 2609TIP3    H229319   2.392   1.951  15.673  0.3527 -0.1271 -1.3028
 2610TIP3   OH229320   1.516   2.411  16.533  0.6795  0.0438 -0.5661
 2610TIP3    H129321   1.577   2.336  16.532 -0.2826 -0.8340  1.6978
 2610TIP3    H229322   1.507   2.432  16.626 -0.4001  1.9038 -1.0752
 2611TIP3   OH229323   5.930   5.402   0.797 -0.5493  0.2382  0.0284
 2611TIP3    H129324   5.944   5.495   0.778  0.4048  0.2287  0.6456
 2611TIP3    H229325   5.855   5.402   0.858  0.3245  0.7190  1.1362
 2612TIP3   OH229326   1.289   2.670  10.728  0.4470  0.1851  0.3180
 2612TIP3    H129327   1.265   2.638  10.641  1.0588  0.7247 -0.0536
 2612TIP3    H229328   1.220   2.636  10.786  0.2176 -0.4495 -0.3205
 2613TIP3   OH229329   5.718   1.956  15.197 -0.0960 -0.2738  0.4146
 2613TIP3    H129330   5.749   2.043  15.221  1.1952 -0.6537  0.1710
 2613TIP3    H229331   5.627   1.954  15.227 -0.1047  1.1128  0.5165
 2614TIP3   OH229332   4.125   0.208  16.889 -0.5938 -0.5862 -0.6880
 2614TIP3    H129333   4.168   0.269  16.948 -1.6779 -2.0469  1.6947
 2614TIP3    H229334   4.066   0.262  16.837 -0.4446  0.5904  0.3501
 2615TIP3   OH229335   3.909   4.874   4.211  0.2666  0.6455  0.3248
 2615TIP3    H129336   3.989   4.855   4.163  0.8085  1.3912  0.9251
 2615TIP3    H229337   3.839   4.841   4.155  1.0473 -0.9807  0.2777
 2616TIP3   OH229338   6.348   0.767  13.432  0.1076 -0.7043  0.2089
 2616TIP3    H129339   6.425   0.724  13.469  0.3899 -0.6066 -0.2613
 2616TIP3    H229340   6.278   0.703  13.442  0.3033 -0.8893  0.4139
 2617TIP3   OH229341   0.324   3.961   5.530  0.5904  0.1031 -0.8148
 2617TIP3    H129342   0.389   3.903   5.489  1.0248  0.4464 -0.6124
 2617TIP3    H229343   0.298   3.915   5.609  1.4052  0.4675 -0.3227
 2618TIP3   OH229344   4.269   5.173  13.074  0.0045 -0.5494  0.5508
 2618TIP3    H129345   4.362   5.191  13.055 -0.6234  1.6865 -0.6695
 2618TIP3    H229346   4.243   5.108  13.008  0.2762  0.1117 -0.2184
 2619TIP3   OH229347   0.228   4.497   2.588  0.3769 -0.1900  0.2788
 2619TIP3    H129348   0.301   4.557   2.575  1.0356 -0.5788  2.0783
 2619TIP3    H229349   0.173   4.538   2.654 -0.5925 -0.3166 -0.4257
 2620TIP3   OH229350   0.489   3.257   2.079 -0.1200 -0.2214  0.3783
 2620TIP3    H129351   0.570   3.248   2.029 -1.0137  0.1981 -1.1823
 2620TIP3    H229352   0.426   3.202   2.033 -1.4876  1.7271 -0.1582
 2621TIP3   OH229353   5.703   3.504  15.027 -0.5246 -0.3787 -0.7413
 2621TIP3    H129354   5.673   3.470  14.943  0.6893 -0.1674 -1.2795
 2621TIP3    H229355   5.623   3.520  15.078 -1.2627 -0.3915 -1.8989
 2622TIP3   OH229356   1.857   2.696   4.389 -0.1760 -0.8602  0.3506
 2622TIP3    H129357   1.936   2.654   4.354 -0.3773 -1.7862  0.9660
 2622TIP3    H229358   1.798   2.702   4.314  0.5889  0.1130 -0.1815
 2623TIP3   OH229359   1.882   1.819   3.092  0.0057 -0.4358 -0.2780
 2623TIP3    H129360   1.945   1.886   3.067 -2.3013  2.0184  0.1958
 2623TIP3    H229361   1.801   1.867   3.107 -1.5247 -3.2517  0.9125
 2624TIP3   OH229362   0.058   3.718   0.057 -0.6121  0.0852 -0.0252
 2624TIP3    H129363  -0.018   3.760   0.016  1.1367  1.8304 -1.5642
 2624TIP3    H229364   0.053   3.745   0.149 -0.5136  2.1711 -0.6244
 2625TIP3   OH229365   0.929   5.026  15.843 -0.1292  0.4594 -0.2302
 2625TIP3    H129366   0.939   4.946  15.792 -0.1085  1.4281 -1.7559
 2625TIP3    H229367   0.836   5.029  15.865 -0.0260 -0.2839  0.3827
 2626TIP3   OH229368   3.411   1.398   2.722  0.0793  0.1188  0.0569
 2626TIP3    H129369   3.432   1.468   2.783 -3.9467  0.1623  1.5158
 2626TIP3    H229370   3.413   1.318   2.775 -2.7950  0.0739  0.1472
 2627TIP3   OH229371   6.252   2.083   2.718 -0.1307 -0.3888  0.3732
 2627TIP3    H129372   6.160   2.059   2.732 -0.0565 -0.3587  0.9210
 2627TIP3    H229373   6.276   2.131   2.797  0.5470 -0.9566  0.5114
 2628TIP3   OH229374   0.272   6.660  14.437  0.3468  0.0878 -0.5036
 2628TIP3    H129375   0.328   6.640  14.362 -0.2292 -1.0864 -0.6267
 2628TIP3    H229376   0.237   6.747  14.418  0.3841 -0.1067 -1.4936
 2629TIP3   OH229377   3.557   0.842  14.670 -0.0797  0.1506  0.2248
 2629TIP3    H129378   3.608   0.826  14.590  0.6296  0.9536  0.5141
 2629TIP3    H229379   3.622   0.869  14.735 -0.9708  1.9891  0.3664
 2630TIP3   OH229380   5.089   0.279  12.643 -0.1554  0.1514 -0.2198
 2630TIP3    H129381   4.996   0.275  12.669 -0.0620  0.0545  0.1043
 2630TIP3    H229382   5.087   0.310  12.553 -0.4933  0.4424 -0.1161
 2631TIP3   OH229383   0.317   3.455   5.641 -0.1848  0.2485  0.1371
 2631TIP3    H129384   0.380   3.383   5.650  0.8201  1.1449  0.4301
 2631TIP3    H229385   0.234   3.418   5.670 -0.0133 -1.2719 -1.2586
 2632TIP3   OH229386   0.701   2.780   1.235  0.2687 -0.1026  0.5577
 2632TIP3    H129387   0.701   2.875   1.229  0.3601 -0.0306  1.6279
 2632TIP3    H229388   0.741   2.761   1.320  0.9132 -1.1168  0.0383
 2633TIP3   OH229389   5.409   6.754   1.474 -0.0707 -0.2345 -0.1467
 2633TIP3    H129390   5.352   6.681   1.453 -1.3089 -0.3970  3.3652
 2633TIP3    H229391   5.497   6.724   1.452 -0.6823 -2.3634  0.2666
 2634TIP3   OH229392   4.831   4.587   3.849 -0.1426  0.4254 -0.2947
 2634TIP3    H129393   4.883   4.523   3.800  1.9179  0.5321  1.6148
 2634TIP3    H229394   4.812   4.656   3.786  1.6213  0.1220 -1.1962
 2635TIP3   OH229395   6.152   4.063   1.795 -0.2256  0.3322  0.7704
 2635TIP3    H129396   6.171   3.969   1.791 -1.3383  0.1655 -3.6743
 2635TIP3    H229397   6.233   4.105   1.765 -0.2289  0.7239  1.3090
 2636TIP3   OH229398   2.027   1.810  16.746  0.1485  0.8335  0.6091
 2636TIP3    H129399   2.106   1.758  16.731  0.2965  0.9598  0.9768
 2636TIP3    H229400   2.018   1.862  16.666 -0.1270  0.0775  0.1381
 2637TIP3   OH229401   5.055   4.041   5.936  0.1481  0.2619 -0.3386
 2637TIP3    H129402   4.975   4.038   5.884 -0.7864  0.5013  1.0667
 2637TIP3    H229403   5.026   4.069   6.023  1.4905 -1.3459  0.6562
 2638TIP3   OH229404   6.668   3.433  11.703 -0.2393  0.2936 -0.0519
 2638TIP3    H129405   6.718   3.390  11.633  0.0711 -0.5857  0.6959
 2638TIP3    H229406   6.637   3.361  11.758 -1.6735  0.8862 -0.0583
 2639TIP3   OH229407   0.532   5.850   3.808  0.3282 -0.0117 -0.1741
 2639TIP3    H129408   0.576   5.910   3.868  0.9250 -0.2928 -0.3315
 2639TIP3    H229409   0.594   5.837   3.737 -0.1324 -0.1649 -0.5561
 2640TIP3   OH229410   3.241   4.529  11.501  0.3224  0.0315  0.1216
 2640TIP3    H129411   3.285   4.460  11.451 -2.1847  0.0039 -2.1041
 2640TIP3    H229412   3.296   4.607  11.487  0.3030 -0.2606 -1.6904
 2641TIP3   OH229413   1.354   5.396   4.562  0.3884  0.1145 -0.8935
 2641TIP3    H129414   1.302   5.367   4.638  1.6101 -0.9065 -0.4296
 2641TIP3    H229415   1.290   5.436   4.504 -0.6060  0.7738  0.6099
 2642TIP3   OH229416   4.717   1.314  10.100  0.3537  0.3767  0.1034
 2642TIP3    H129417   4.801   1.281  10.069  1.0794  2.0048  0.3210
 2642TIP3    H229418   4.739   1.374  10.171 -1.0369  0.1930  0.7015
 2643TIP3   OH229419   0.666   4.144   6.071 -0.1952  0.1137  0.4928
 2643TIP3    H129420   0.695   4.229   6.040 -0.6362 -0.3944 -1.3333
 2643TIP3    H229421   0.588   4.124   6.019 -1.3922 -0.4313  2.4086
 2644TIP3   OH229422   2.366   1.772   2.579  0.4250 -0.2687 -0.1274
 2644TIP3    H129423   2.286   1.813   2.545 -0.3142 -1.0671  0.6315
 2644TIP3    H229424   2.341   1.682   2.600  1.5599 -0.5707 -0.0117
 2645TIP3   OH229425   5.214   5.380  11.912  0.1978 -0.2136  0.0278
 2645TIP3    H129426   5.175   5.360  11.827 -1.7936  1.3756  0.5113
 2645TIP3    H229427   5.144   5.361  11.975  1.5955 -1.2271  1.3236
 2646TIP3   OH229428   4.323   5.448  14.137  0.6547  0.2875 -0.7188
 2646TIP3    H129429   4.353   5.539  14.144 -1.6664  1.0583 -0.3675
 2646TIP3    H229430   4.242   5.453  14.085 -0.2786 -1.3936  0.5181
 2647TIP3   OH229431   4.266   3.489   1.371 -0.4849 -0.0609 -0.3817
 2647TIP3    H129432   4.220   3.539   1.303 -0.4863  0.3950 -0.0456
 2647TIP3    H229433   4.359   3.505   1.354 -0.4494 -0.7881 -0.9120
 2648TIP3   OH229434   0.727   1.237  17.065 -0.0327 -0.2106 -0.0039
 2648TIP3    H129435   0.799   1.257  17.005  0.8971 -0.9256  0.8513
 2648TIP3    H229436   0.696   1.323  17.094  1.6832  0.1075  1.0159
 2649TIP3   OH229437   5.648   2.075   2.961  0.5280  0.6923  0.2710
 2649TIP3    H129438   5.591   2.092   3.036  0.7332  1.9366  0.1569
 2649TIP3    H229439   5.588   2.072   2.886  0.6934  3.2278 -0.0242
 2650TIP3   OH229440   0.971   3.085  14.789  0.1037  0.1052  0.0832
 2650TIP3    H129441   1.042   3.149  14.798 -1.2345  1.5101  0.6457
 2650TIP3    H229442   1.015   3.006  14.756  1.4439  1.9781 -2.8091
 2651TIP3   OH229443   0.781   1.448   1.999 -0.1075  0.7752 -0.3348
 2651TIP3    H129444   0.821   1.396   1.930  0.6489 -1.7923  1.9613
 2651TIP3    H229445   0.688   1.450   1.977 -0.1539 -1.6096 -0.4632
 2652TIP3   OH229446   4.405   1.244   4.432 -0.0205  0.0319 -0.0505
 2652TIP3    H129447   4.359   1.310   4.381 -0.5728  0.2860  0.7584
 2652TIP3    H229448   4.449   1.293   4.501  0.0416 -0.3857  0.2092
 2653TIP3   OH229449   0.583   0.944  13.020  0.3225  0.6798 -0.7054
 2653TIP3    H129450   0.570   0.973  13.110  1.3463  1.7621 -0.8971
 2653TIP3    H229451   0.516   0.990  12.970  1.1769  1.8103 -0.8256
 2654TIP3   OH229452   4.445   0.413  16.769  0.0465  0.0531  0.0130
 2654TIP3    H129453   4.389   0.365  16.830  0.7711  0.6257  1.1454
 2654TIP3    H229454   4.391   0.425  16.691 -0.7903 -0.9407  0.4239
 2655TIP3   OH229455   1.263   0.964  11.369  0.4752  0.0591 -0.5535
 2655TIP3    H129456   1.324   0.975  11.296  2.4168  0.3364  1.0596
 2655TIP3    H229457   1.200   1.035  11.358  0.7048  0.0560 -1.9879
 2656TIP3   OH229458   3.552   0.580  14.468 -0.2093  0.0398 -0.3547
 2656TIP3    H129459   3.486   0.523  14.429  0.7263 -0.4955 -1.1529
 2656TIP3    H229460   3.518   0.599  14.556 -0.8745 -1.1547 -0.3486
 2657TIP3   OH229461   1.990   0.948   3.907 -0.2403 -0.3589 -0.1059
 2657TIP3    H129462   2.013   1.017   3.844  2.0275 -0.8505  0.1573
 2657TIP3    H229463   2.022   0.981   3.991 -1.8156 -0.4324  0.5352
 2658TIP3   OH229464   3.465   4.955  14.019 -0.2174  0.5181 -0.7190
 2658TIP3    H129465   3.413   4.954  13.939 -1.1817  2.2784 -0.1320
 2658TIP3    H229466   3.412   4.908  14.083 -0.1389  0.4570 -0.6980
 2659TIP3   OH229467   1.351   2.583  16.972 -0.1120 -0.0959 -0.2880
 2659TIP3    H129468   1.312   2.657  17.018  0.3501 -0.2278  0.3218
 2659TIP3    H229469   1.280   2.550  16.916 -1.1952 -0.8745  1.4668
 2660TIP3   OH229470   5.735   3.054   2.239  0.2146  0.3119  0.0989
 2660TIP3    H129471   5.643   3.038   2.222  0.1095  0.7579  0.2305
 2660TIP3    H229472   5.737   3.142   2.278  0.6746  0.2366  0.2445
 2661TIP3   OH229473   0.130   2.497   4.883 -0.5169 -0.0797  0.2669
 2661TIP3    H129474   0.224   2.480   4.888 -0.7319 -1.5280 -0.3061
 2661TIP3    H229475   0.090   2.427   4.936 -1.4118 -1.2106 -1.8115
 2662TIP3   OH229476   3.802   1.626   1.559 -0.7196  0.0137 -0.3129
 2662TIP3    H129477   3.848   1.603   1.640 -0.7827  2.4046  0.4511
 2662TIP3    H229478   3.819   1.553   1.500  2.9151  0.1795  0.4163
 2663TIP3   OH229479   4.522   3.455   5.870  0.3507  0.0877  0.5174
 2663TIP3    H129480   4.561   3.535   5.905  0.6612  0.0966  0.1417
 2663TIP3    H229481   4.459   3.428   5.938  1.5184 -0.3280  1.4493
 2664TIP3   OH229482   1.294   4.166   7.049  0.0718 -0.0177 -0.4313
 2664TIP3    H129483   1.200   4.153   7.061 -0.1399 -0.0427 -2.0401
 2664TIP3    H229484   1.305   4.176   6.955  1.7205 -0.2540 -0.2737
 2665TIP3   OH229485   3.229   0.231   3.746  0.8890 -0.2738  0.4779
 2665TIP3    H129486   3.318   0.268   3.750 -0.0059  1.8852  1.2637
 2665TIP3    H229487   3.204   0.221   3.838 -0.2248  0.4486  0.2473
 2666TIP3   OH229488   6.746   4.608  11.828  0.1688  0.3412  0.3089
 2666TIP3    H129489   6.665   4.631  11.783 -0.6275  1.6367  2.3872
 2666TIP3    H229490   6.800   4.687  11.822 -0.4907  1.0018  2.8365
 2667TIP3   OH229491   6.670   0.302   5.423 -0.2099  0.2023  0.0197
 2667TIP3    H129492   6.588   0.304   5.374 -1.1713 -1.5223  1.5213
 2667TIP3    H229493   6.690   0.394   5.440 -0.5567  0.7548 -2.4309
 2668TIP3   OH229494   3.696   1.154  15.149  0.1808 -0.0185 -0.0073
 2668TIP3    H129495   3.678   1.247  15.159  2.3157  0.3877  0.2562
 2668TIP3    H229496   3.777   1.139  15.198  0.4855 -1.7718 -0.9877
 2669TIP3   OH229497   2.077   6.286  14.859 -0.1626 -0.2745  0.5303
 2669TIP3    H129498   2.060   6.231  14.936  1.0887  0.1305  1.1072
 2669TIP3    H229499   2.172   6.281  14.846 -0.5434 -1.6852 -2.0349
 2670TIP3   OH229500   4.603   1.876  11.518 -0.5844 -0.0252  0.1050
 2670TIP3    H129501   4.555   1.957  11.536  0.8409  0.7665  0.3702
 2670TIP3    H229502   4.621   1.839  11.604  0.4471  0.3708  0.0649
 2671TIP3   OH229503   1.313   3.689   1.801  0.4081 -0.6359  0.8254
 2671TIP3    H129504   1.255   3.747   1.752  0.5435  1.0177  2.5415
 2671TIP3    H229505   1.268   3.605   1.803 -1.1772  0.1958  0.7776
 2672TIP3   OH229506   1.956   3.472  13.332  0.3505 -0.4072 -0.1961
 2672TIP3    H129507   2.010   3.477  13.411  1.7666  1.5449 -1.2395
 2672TIP3    H229508   1.959   3.380  13.306 -0.3963 -1.1354  2.1758
 2673TIP3   OH229509   2.659   6.611  17.013  0.6783 -0.9635  0.2108
 2673TIP3    H129510   2.728   6.676  17.026 -0.5268  0.6653 -1.3445
 2673TIP3    H229511   2.578   6.656  17.038 -0.0082 -2.3654  0.5665
 2674TIP3   OH229512   6.771   5.941   3.479  0.5075  0.7741  0.1458
 2674TIP3    H129513   6.855   5.985   3.489  1.5209 -1.4124  1.9255
 2674TIP3    H229514   6.775   5.900   3.393  0.3310  2.5011 -0.7017
 2675TIP3   OH229515   0.704   1.308  14.236 -0.2574 -0.4155 -0.1551
 2675TIP3    H129516   0.755   1.289  14.157  0.7300  1.5172 -0.0179
 2675TIP3    H229517   0.675   1.399  14.225 -1.4706 -0.6447  0.9841
 2676TIP3   OH229518   4.537   5.679   2.948  0.7632  0.0154 -0.3632
 2676TIP3    H129519   4.459   5.626   2.929  1.3077 -0.1361 -2.2825
 2676TIP3    H229520   4.514   5.766   2.917  1.6218 -0.1969 -1.6101
 2677TIP3   OH229521   1.087   4.770   3.371  0.5850  0.5375  0.0297
 2677TIP3    H129522   1.044   4.815   3.298  0.7007  1.5158  0.5555
 2677TIP3    H229523   1.180   4.792   3.361  0.4840  1.4495  1.0010
 2678TIP3   OH229524   0.403   4.124   2.310 -0.1364  0.2896 -0.1146
 2678TIP3    H129525   0.396   4.061   2.381  1.4487  1.1366  0.8415
 2678TIP3    H229526   0.418   4.071   2.232  1.7336 -0.5224  0.7566
 2679TIP3   OH229527   5.799   0.996   6.044  0.3646 -0.3315  0.0213
 2679TIP3    H129528   5.890   0.970   6.031  0.6751  1.4146 -1.5489
 2679TIP3    H229529   5.799   1.047   6.124  0.5034 -1.5550  0.8078
 2680TIP3   OH229530   6.735   2.693   4.858  0.0608 -0.1441 -0.4513
 2680TIP3    H129531   6.691   2.675   4.775  0.1858 -1.8023 -0.1693
 2680TIP3    H229532   6.800   2.623   4.867  0.7324  0.5913  0.5676
 2681TIP3   OH229533   6.243   6.788  16.230 -0.0150  0.1239  0.0667
 2681TIP3    H129534   6.240   6.693  16.234 -1.2708  0.2169  1.9215
 2681TIP3    H229535   6.336   6.809  16.224  0.2541 -1.2189 -0.5186
 2682TIP3   OH229536   5.659   0.536  12.707  0.0175 -0.0270  0.8695
 2682TIP3    H129537   5.629   0.621  12.741  0.5075 -0.4592  2.4535
 2682TIP3    H229538   5.594   0.512  12.641 -1.0827  0.7680  1.6424
 2683TIP3   OH229539   5.676   3.421  12.928 -0.3129 -0.3922  0.0833
 2683TIP3    H129540   5.758   3.372  12.938  0.3518  0.9923  1.7459
 2683TIP3    H229541   5.686   3.496  12.986 -1.1953  1.8857 -2.6085
 2684TIP3   OH229542   1.051   1.772   5.681  0.0145 -0.1376 -0.1170
 2684TIP3    H129543   0.959   1.749   5.668  0.0524 -1.0107  1.0485
 2684TIP3    H229544   1.092   1.753   5.597 -0.6902 -0.7058 -0.3432
 2685TIP3   OH229545   2.298   1.368   6.583 -0.1413  0.2770  0.2263
 2685TIP3    H129546   2.323   1.289   6.632 -1.8815  0.3706  1.3101
 2685TIP3    H229547   2.319   1.440   6.643 -2.2979  0.3936  0.8728
 2686TIP3   OH229548   1.811   0.793   2.801  0.2579  0.2122 -0.0766
 2686TIP3    H129549   1.812   0.828   2.891  0.4128  1.0381 -0.3938
 2686TIP3    H229550   1.787   0.701   2.812 -0.8777  0.5919  0.7215
 2687TIP3   OH229551   2.786   2.526   5.528  0.0207  0.3994  0.0884
 2687TIP3    H129552   2.793   2.567   5.614  0.0275 -0.0695  0.3152
 2687TIP3    H229553   2.709   2.567   5.488 -0.4049  0.1065  0.6010
 2688TIP3   OH229554   4.883   6.468   0.560 -0.8956 -0.6998  0.1208
 2688TIP3    H129555   4.949   6.399   0.570 -2.1261 -1.9616 -0.4000
 2688TIP3    H229556   4.806   6.434   0.605 -1.6952  0.1145 -0.6254
 2689TIP3   OH229557   5.704   0.076   2.274  0.3090 -0.0904  0.3297
 2689TIP3    H129558   5.727   0.059   2.183  1.9856  0.4879  0.6360
 2689TIP3    H229559   5.696  -0.011   2.313 -0.5692 -0.3427 -0.3974
 2690TIP3   OH229560   6.740   3.918  15.890  0.7555  0.2839 -0.0995
 2690TIP3    H129561   6.658   3.966  15.895  0.2787 -0.6425  1.1504
 2690TIP3    H229562   6.790   3.964  15.823 -0.9699  0.5822 -1.2393
 2691TIP3   OH229563   6.689   5.592   3.805  0.0760  0.0584 -0.4390
 2691TIP3    H129564   6.599   5.561   3.801 -0.1151  0.7329 -1.5600
 2691TIP3    H229565   6.695   5.637   3.890  0.1730 -2.3914  0.8853
 2692TIP3   OH229566   3.210   6.614  16.659 -0.0059 -0.0259  0.4342
 2692TIP3    H129567   3.300   6.640  16.639  0.4026 -1.7832 -0.0867
 2692TIP3    H229568   3.190   6.659  16.741  1.0346  1.0738  0.1054
 2693TIP3   OH229569   0.088   1.934   5.392 -0.2579 -0.4044 -0.2792
 2693TIP3    H129570   0.154   2.003   5.403 -0.5137 -0.1418 -0.3726
 2693TIP3    H229571   0.119   1.885   5.316 -0.3105 -0.1160 -0.4904
 2694TIP3   OH229572   3.990   1.464  10.684  0.3342 -0.2607  0.4342
 2694TIP3    H129573   3.963   1.379  10.720 -1.5417 -0.0332 -0.3788
 2694TIP3    H229574   4.084   1.468  10.700 -0.1993 -0.7402  4.1546
 2695TIP3   OH229575   6.683   6.415   4.147  0.6972  0.0173 -0.1569
 2695TIP3    H129576   6.634   6.486   4.105  1.8167  0.9881  0.1456
 2695TIP3    H229577   6.671   6.430   4.241  0.0043 -0.8649 -0.1002
 2696TIP3   OH229578   0.887   2.351   1.381 -0.3432 -0.0941 -0.2956
 2696TIP3    H129579   0.927   2.432   1.412  0.7155 -0.7301  0.0247
 2696TIP3    H229580   0.950   2.315   1.319 -1.2216 -0.2170 -1.1457
 2697TIP3   OH229581   5.246   3.717  12.830  0.5781 -0.6775  0.0322
 2697TIP3    H129582   5.315   3.702  12.895  0.7225 -1.4168 -0.2850
 2697TIP3    H229583   5.233   3.632  12.789  0.2531 -0.2901 -0.6815
 2698TIP3   OH229584   4.338   6.010   1.952  0.0173 -0.5156 -0.2038
 2698TIP3    H129585   4.424   6.050   1.942 -0.8707  1.3018 -0.9436
 2698TIP3    H229586   4.338   5.937   1.890  0.8208 -0.1566 -0.6421
 2699TIP3   OH229587   5.484   0.031   0.932 -0.1661 -0.3854 -0.2903
 2699TIP3    H129588   5.452  -0.003   1.016 -2.4316  1.4095 -0.3921
 2699TIP3    H229589   5.578   0.012   0.933 -0.3888 -1.5827  2.0673
 2700TIP3   OH229590   0.354   5.746  13.544 -0.2051 -0.4143  0.7770
 2700TIP3    H129591   0.353   5.838  13.570  1.2229 -0.1272 -0.1324
 2700TIP3    H229592   0.417   5.705  13.604 -0.6193 -0.7381  0.9909
 2701TIP3   OH229593   6.661   4.653  12.581 -0.1332  0.3839  0.4452
 2701TIP3    H129594   6.712   4.733  12.594 -0.3597  0.2145  2.5418
 2701TIP3    H229595   6.726   4.583  12.579  0.0510  0.5775 -1.2291
 2702TIP3   OH229596   1.829   0.923   1.746  0.2835 -0.9371 -0.1932
 2702TIP3    H129597   1.814   0.908   1.652 -0.2568 -0.4634 -0.1883
 2702TIP3    H229598   1.804   1.014   1.759 -1.6944 -1.5919  0.8222
 2703TIP3   OH229599   6.222   0.605  13.904 -0.4352  0.1560  0.8759
 2703TIP3    H129600   6.270   0.525  13.885 -2.3471 -0.7761 -0.1097
 2703TIP3    H229601   6.197   0.639  13.818  0.8706  2.1626  1.2450
 2704TIP3   OH229602   6.387   3.546  16.389  0.2186 -0.0209 -0.2921
 2704TIP3    H129603   6.362   3.630  16.429  1.0463 -0.0843  0.3717
 2704TIP3    H229604   6.466   3.520  16.437 -0.4997 -1.5885  0.0425
 2705TIP3   OH229605   5.411   3.672   2.379  0.0074 -0.0318 -0.3834
 2705TIP3    H129606   5.506   3.679   2.377 -0.0358  0.2518 -2.5830
 2705TIP3    H229607   5.387   3.636   2.294 -1.8006 -1.0967  0.5278
 2706TIP3   OH229608   2.289   0.054   2.260 -0.0513 -0.3635 -0.0514
 2706TIP3    H129609   2.223   0.004   2.212  0.8898 -0.6774 -1.0238
 2706TIP3    H229610   2.323   0.117   2.197  2.1334 -1.6544 -0.2268
 2707TIP3   OH229611   4.430   1.208   5.320  0.6355  0.1191  0.1361
 2707TIP3    H129612   4.448   1.246   5.406  1.0840 -0.2543  0.2104
 2707TIP3    H229613   4.348   1.160   5.331 -1.2102  2.9947 -0.5615
 2708TIP3   OH229614   5.335   6.658   2.967 -0.2420 -0.3080 -0.4638
 2708TIP3    H129615   5.296   6.744   2.951  0.2970  0.2858  1.2921
 2708TIP3    H229616   5.272   6.613   3.023 -0.0922 -0.7154 -0.6186
 2709TIP3   OH229617   1.170   3.411   0.660 -0.2425 -0.1809 -0.0108
 2709TIP3    H129618   1.243   3.416   0.721 -1.0104  1.0666  0.8148
 2709TIP3    H229619   1.154   3.317   0.649  1.6844 -0.4680 -0.4534
 2710TIP3   OH229620   3.224   2.684  15.794  0.5327 -0.2039  0.1757
 2710TIP3    H129621   3.292   2.743  15.760  1.1798 -0.8486  0.3419
 2710TIP3    H229622   3.205   2.717  15.882 -1.1067  1.4375 -0.7687
 2711TIP3   OH229623   3.422   2.532   0.768  0.3391  0.5679 -0.3265
 2711TIP3    H129624   3.445   2.609   0.716 -0.3311  0.5775 -0.6155
 2711TIP3    H229625   3.409   2.462   0.704 -1.1319  0.7379 -0.2478
 2712TIP3   OH229626   0.804   0.612  17.177  0.2242  0.3784 -0.3933
 2712TIP3    H129627   0.776   0.704  17.182 -3.3481 -0.4705 -3.1044
 2712TIP3    H229628   0.863   0.609  17.102  0.9642  0.5825  0.1774
 2713TIP3   OH229629   4.039   4.383  14.589 -0.6604 -0.3013  0.3531
 2713TIP3    H129630   3.952   4.355  14.560 -0.3240 -2.9608  1.7386
 2713TIP3    H229631   4.022   4.448  14.657 -1.5248  0.6965 -0.7966
 2714TIP3   OH229632   3.907   3.027   2.126 -0.1045  0.3756 -0.4834
 2714TIP3    H129633   3.855   3.004   2.203 -1.8563 -0.0435 -1.7576
 2714TIP3    H229634   3.986   3.069   2.162 -0.8547  0.1394  1.5206
 2715TIP3   OH229635   5.325   0.532  15.984 -0.1039 -0.2804 -0.2588
 2715TIP3    H129636   5.405   0.498  15.943 -1.5557 -0.9118 -2.6696
 2715TIP3    H229637   5.268   0.555  15.911 -2.0991  0.2743  1.4165
 2716TIP3   OH229638   6.646   1.650  16.310 -0.1543 -0.0968  0.0877
 2716TIP3    H129639   6.554   1.630  16.325  0.4145 -1.5741  1.7686
 2716TIP3    H229640   6.686   1.567  16.285  0.7107  0.5470 -0.7316
 2717TIP3   OH229641   6.170   1.177  12.585 -0.3349  0.3844  0.7046
 2717TIP3    H129642   6.111   1.105  12.608 -0.0015  0.3492  1.4675
 2717TIP3    H229643   6.225   1.188  12.662 -0.8263  1.9090  0.8473
 2718TIP3   OH229644   4.332   3.186  16.080 -0.1371 -0.3736 -0.2519
 2718TIP3    H129645   4.376   3.261  16.039 -2.1068  0.3332 -1.2133
 2718TIP3    H229646   4.308   3.217  16.167  2.2288 -1.1574  0.7056
 2719TIP3   OH229647   6.480   2.028   2.039  0.1396 -0.7732 -0.1127
 2719TIP3    H129648   6.573   2.048   2.025 -0.2466  0.0063 -1.6581
 2719TIP3    H229649   6.479   1.967   2.113  1.7713  0.4899  0.9791
 2720TIP3   OH229650   0.561   5.851   0.475 -0.0941  1.0220  0.0179
 2720TIP3    H129651   0.481   5.837   0.424 -0.3998 -0.6507  0.9296
 2720TIP3    H229652   0.574   5.946   0.471 -1.7719  1.2564 -0.6806
 2721TIP3   OH229653   0.512   3.445  15.613  0.1885 -0.1051 -0.7980
 2721TIP3    H129654   0.476   3.472  15.529 -1.3549 -2.4052 -0.9187
 2721TIP3    H229655   0.607   3.438  15.598  0.2682  2.1501 -1.5501
 2722TIP3   OH229656   2.713   5.787   5.019 -0.3319  0.3179 -0.1516
 2722TIP3    H129657   2.740   5.863   5.071 -1.6930  1.5170 -1.1455
 2722TIP3    H229658   2.628   5.761   5.057 -0.2521 -0.2060 -0.3265
 2723TIP3   OH229659   6.792   1.319   4.203  0.6128 -0.5370 -0.8466
 2723TIP3    H129660   6.853   1.343   4.134  1.1863 -0.4696 -0.3195
 2723TIP3    H229661   6.839   1.336   4.284  0.0669 -0.9303 -0.4386
 2724TIP3   OH229662   3.507   6.315   5.443  0.0204 -0.2649 -0.0650
 2724TIP3    H129663   3.535   6.274   5.525  1.3215  0.3080 -0.2084
 2724TIP3    H229664   3.560   6.395   5.437 -0.6136  0.0834 -1.0858
 2725TIP3   OH229665   4.688   2.823  16.389  0.2839 -0.1485  0.3997
 2725TIP3    H129666   4.604   2.794  16.355  0.6557  0.0959 -0.7710
 2725TIP3    H229667   4.734   2.743  16.414  0.1653 -0.3689 -0.0853
 2726TIP3   OH229668   5.036   0.465   4.441  0.5018  0.0794  0.3898
 2726TIP3    H129669   5.021   0.555   4.414 -0.6023 -0.6450 -1.4969
 2726TIP3    H229670   4.951   0.435   4.474  0.7380 -0.4217  0.5567
 2727TIP3   OH229671   3.066   4.294  14.001 -0.3419  0.8288 -0.9921
 2727TIP3    H129672   3.085   4.225  13.938  0.2043 -0.1097  0.1657
 2727TIP3    H229673   2.972   4.285  14.019 -0.4763  1.0366 -1.6046
 2728TIP3   OH229674   1.398   4.238  12.291 -0.1482  0.7140  0.3785
 2728TIP3    H129675   1.387   4.260  12.198 -1.4257  2.0607  0.8319
 2728TIP3    H229676   1.357   4.152  12.300 -0.5244  0.8323 -0.1821
 2729TIP3   OH229677   6.361   0.343   0.232  0.5756 -0.3583  0.6888
 2729TIP3    H129678   6.329   0.424   0.270  0.8098 -1.1556  2.6591
 2729TIP3    H229679   6.295   0.278   0.255  0.6753 -0.8553 -0.3848
 2730TIP3   OH229680   1.913   3.032  13.688  0.4096 -0.0416 -0.4645
 2730TIP3    H129681   1.942   3.017  13.778  0.6505  1.9172 -0.1903
 2730TIP3    H229682   1.991   3.015  13.635  1.3397  2.4550  0.0365
 2731TIP3   OH229683   2.436   2.450   0.585 -1.0196  0.2006  0.4477
 2731TIP3    H129684   2.462   2.359   0.601 -0.5692  0.1332 -0.6208
 2731TIP3    H229685   2.501   2.483   0.523 -0.0107  1.8626  2.3212
 2732TIP3   OH229686   2.966   5.952  14.925  0.3277 -0.0409  0.4623
 2732TIP3    H129687   3.016   5.896  14.984  3.9105  0.6202 -1.8064
 2732TIP3    H229688   2.924   5.890  14.865  1.7141 -0.4538 -0.0995
 2733TIP3   OH229689   3.316   2.352  16.793 -0.0800  0.0055  0.0222
 2733TIP3    H129690   3.225   2.325  16.780  0.7578 -1.7527 -2.5614
 2733TIP3    H229691   3.312   2.447  16.802 -2.1530 -0.0461 -0.1076
 2734TIP3   OH229692   4.900   4.957  10.871  0.4862 -0.2605  0.4050
 2734TIP3    H129693   4.924   5.013  10.945 -1.3359  0.4379  0.4827
 2734TIP3    H229694   4.955   4.879  10.882  0.2718 -0.1517  2.4848
 2735TIP3   OH229695   0.002   3.495   1.562  0.6167  0.3085  0.0633
 2735TIP3    H129696   0.002   3.590   1.573 -3.1323  0.4999 -1.1094
 2735TIP3    H229697   0.045   3.481   1.478 -0.2584  1.0974 -0.5259
 2736TIP3   OH229698   4.861   4.314  14.939  0.2922  0.0220  0.2571
 2736TIP3    H129699   4.905   4.398  14.928  1.9949 -0.9570 -0.8092
 2736TIP3    H229700   4.824   4.294  14.853 -1.6432  0.4833  0.9580
 2737TIP3   OH229701   0.890   5.421  12.865 -0.5582  0.8231  0.7176
 2737TIP3    H129702   0.884   5.462  12.951 -1.6671 -1.5256  1.8107
 2737TIP3    H229703   0.919   5.331  12.883 -0.1933  0.4839 -1.4195
 2738TIP3   OH229704   5.417   5.105  16.819  0.0640  0.4801 -0.3740
 2738TIP3    H129705   5.464   5.121  16.737  1.7953  0.7689  0.6345
 2738TIP3    H229706   5.486   5.101  16.886 -1.4175  1.5831  1.2691
 2739TIP3   OH229707   2.817   1.107  14.734 -0.3940  0.1938  0.3342
 2739TIP3    H129708   2.904   1.137  14.707 -0.4240  0.9283  1.0290
 2739TIP3    H229709   2.757   1.146  14.671 -0.5885  2.9153  2.1112
 2740TIP3   OH229710   2.727   2.742  13.806 -0.9230  0.0925 -0.0162
 2740TIP3    H129711   2.739   2.810  13.872  0.4388  0.2337 -0.3836
 2740TIP3    H229712   2.699   2.789  13.728  0.6779  0.3324 -0.4648
 2741TIP3   OH229713   1.250   4.699   1.266 -0.4710  0.2012  0.1915
 2741TIP3    H129714   1.314   4.710   1.195  0.9287 -0.8375  1.2594
 2741TIP3    H229715   1.253   4.782   1.314 -2.2697  1.3466 -1.6116
 2742TIP3   OH229716   0.987   1.031  11.998  0.0490 -0.2946  0.1864
 2742TIP3    H129717   0.948   1.115  12.022  1.1895  0.2820  0.0500
 2742TIP3    H229718   1.081   1.047  11.997  0.1973 -1.1098 -1.6135
 2743TIP3   OH229719   2.294   1.600  14.190  0.1350  0.0921  0.3166
 2743TIP3    H129720   2.266   1.612  14.282 -0.2910 -0.3834  0.2505
 2743TIP3    H229721   2.307   1.689  14.158 -1.3190  0.3462  0.3619
 2744TIP3   OH229722   2.497   6.552   2.125 -0.0893  1.2852  0.7462
 2744TIP3    H129723   2.476   6.459   2.115  0.0188  1.3416  0.0189
 2744TIP3    H229724   2.427   6.598   2.080  0.4313  1.5309  0.1856
 2745TIP3   OH229725   6.792   4.809  12.232  0.2816  0.2572  0.0288
 2745TIP3    H129726   6.825   4.724  12.262 -1.3636 -0.5636 -0.4259
 2745TIP3    H229727   6.868   4.867  12.234  1.8137 -1.6484 -1.2869
 2746TIP3   OH229728   1.949   4.207  12.077  0.5651 -0.3394 -0.1524
 2746TIP3    H129729   1.981   4.294  12.101 -0.6363 -0.1594  0.8450
 2746TIP3    H229730   1.902   4.221  11.995  0.4349 -0.0477 -0.0310
 2747TIP3   OH229731   5.789   0.184  16.812 -0.5818  0.5385 -0.2886
 2747TIP3    H129732   5.739   0.233  16.877 -1.3422 -0.9831  0.2902
 2747TIP3    H229733   5.870   0.160  16.856 -0.5323  0.6236 -0.3321
 2748TIP3   OH229734   1.687   1.581   0.022 -0.2945  0.1399 -0.0078
 2748TIP3    H129735   1.597   1.602   0.048 -0.0270 -0.3870  1.3494
 2748TIP3    H229736   1.692   1.486   0.026 -0.1552  0.0609 -1.7022
 2749TIP3   OH229737   2.508   5.041  15.679 -0.1489  0.4025 -0.3191
 2749TIP3    H129738   2.591   5.032  15.630  0.8357  0.8883  1.2212
 2749TIP3    H229739   2.498   4.956  15.723 -0.3351  0.4369 -0.2968
 2750TIP3   OH229740   3.393   6.442   3.432 -0.0958 -0.4067  0.2129
 2750TIP3    H129741   3.341   6.473   3.506 -0.7239 -1.8876  0.4153
 2750TIP3    H229742   3.477   6.417   3.470 -0.2402 -0.6884  0.3485
 2751TIP3   OH229743   1.183   6.492   4.296 -0.1632  0.5527  0.4356
 2751TIP3    H129744   1.251   6.515   4.359  1.3012 -1.4616 -0.3365
 2751TIP3    H229745   1.164   6.574   4.250  1.6031  1.1937  0.8032
 2752TIP3   OH229746   6.298   4.072   3.918  0.4594  0.2485  0.0358
 2752TIP3    H129747   6.338   4.010   3.978  0.5891 -0.1655 -0.4769
 2752TIP3    H229748   6.279   4.149   3.972  1.4230  0.2298  0.4043
 2753TIP3   OH229749   6.269   6.611   3.420  0.2021 -0.7662 -0.5812
 2753TIP3    H129750   6.190   6.590   3.469 -0.6325  0.2250 -1.4789
 2753TIP3    H229751   6.338   6.560   3.463 -0.8170 -1.2336  0.5378
 2754TIP3   OH229752   5.168   5.417   1.837 -0.4707  0.2171 -0.2455
 2754TIP3    H129753   5.187   5.455   1.923 -1.3665 -0.7994  0.4059
 2754TIP3    H229754   5.084   5.373   1.848 -2.0570  2.6207 -2.4781
 2755TIP3   OH229755   6.454   0.640  14.289 -0.0686 -0.0339  0.2438
 2755TIP3    H129756   6.466   0.718  14.343 -0.5599  0.5872 -0.5366
 2755TIP3    H229757   6.372   0.655  14.242 -0.0122 -0.8853 -0.1467
 2756TIP3   OH229758   3.428   1.132   2.834 -0.1169 -0.1596 -0.3755
 2756TIP3    H129759   3.337   1.105   2.843  0.8341 -3.0708  1.1620
 2756TIP3    H229760   3.449   1.119   2.742 -0.8570 -0.9068 -0.4439
 2757TIP3   OH229761   6.335   1.205  14.276 -0.4008  0.1444 -0.1487
 2757TIP3    H129762   6.258   1.259  14.258 -1.5617 -2.0056 -1.9173
 2757TIP3    H229763   6.310   1.152  14.351 -1.2597 -1.6069 -1.6249
 2758TIP3   OH229764   1.994   6.239  16.369 -0.2950  0.3181  1.2139
 2758TIP3    H129765   1.953   6.299  16.307 -0.4889 -1.9052 -0.9095
 2758TIP3    H229766   1.941   6.247  16.449 -2.0993  0.8248  0.0024
 2759TIP3   OH229767   6.587   1.342   2.783  0.0948 -0.2287 -0.0722
 2759TIP3    H129768   6.639   1.420   2.763 -1.3900  1.1656  1.4022
 2759TIP3    H229769   6.555   1.312   2.698 -0.6186  1.7040 -0.5138
 2760TIP3   OH229770   6.126   2.570  13.246  0.2874 -0.0978 -0.0835
 2760TIP3    H129771   6.214   2.568  13.282 -0.4106 -0.2261  1.7068
 2760TIP3    H229772   6.095   2.659  13.262 -0.4146 -0.4603  0.6108
 2761TIP3   OH229773   5.549   1.577   1.547  0.2196  0.9060  0.1497
 2761TIP3    H129774   5.591   1.622   1.620  2.6831 -0.7940 -0.1270
 2761TIP3    H229775   5.609   1.504   1.527 -1.2367  0.3684 -2.4691
 2762TIP3   OH229776   5.832   3.789   4.792  0.6638  0.3402 -0.0634
 2762TIP3    H129777   5.906   3.728   4.791 -0.0777 -0.5579 -0.5904
 2762TIP3    H229778   5.865   3.865   4.841  1.5550 -0.5194  0.7046
 2763TIP3   OH229779   4.012   1.367   2.703  0.2546  0.1088  0.0378
 2763TIP3    H129780   3.996   1.459   2.682  0.3513 -0.0686 -0.8129
 2763TIP3    H229781   3.986   1.359   2.795 -1.1346  0.6550 -0.2917
 2764TIP3   OH229782   1.844   5.337  13.072 -0.1018  0.1506 -0.2184
 2764TIP3    H129783   1.840   5.429  13.099  0.8693 -0.4009  1.8549
 2764TIP3    H229784   1.851   5.288  13.154 -0.6238 -1.7834 -1.3105
 2765TIP3   OH229785   0.105   3.858   4.698 -0.3517  0.1825  0.2838
 2765TIP3    H129786   0.034   3.833   4.640  0.7385 -0.8604 -0.6378
 2765TIP3    H229787   0.157   3.921   4.647 -0.4774  0.7627  0.8625
 2766TIP3   OH229788   2.367   1.038   3.069  0.7515 -0.0002 -0.1137
 2766TIP3    H129789   2.344   0.972   3.135 -0.8296 -0.0153 -0.6580
 2766TIP3    H229790   2.375   1.120   3.119  0.3573 -0.1624  0.2178
 2767TIP3   OH229791   1.780   0.418  14.399 -0.1591  0.4523  0.0859
 2767TIP3    H129792   1.770   0.382  14.311  0.7380  1.0022 -0.2417
 2767TIP3    H229793   1.836   0.356  14.444 -1.9671 -0.7025  0.7945
 2768TIP3   OH229794   0.203   3.296   2.922 -0.6708  0.2407  0.2871
 2768TIP3    H129795   0.175   3.244   2.998  0.5106  0.4305  0.8651
 2768TIP3    H229796   0.185   3.386   2.947 -0.2488  0.3061  0.3511
 2769TIP3   OH229797   4.049   5.840   6.575 -0.6841 -0.5973  0.0287
 2769TIP3    H129798   3.997   5.917   6.553 -0.0089 -0.2905 -0.5146
 2769TIP3    H229799   3.986   5.780   6.616 -1.2638  0.1336  0.2286
 2770TIP3   OH229800   5.605   6.691   4.761  0.0243 -0.0459  0.4374
 2770TIP3    H129801   5.605   6.751   4.687  0.2521 -2.7596 -1.8273
 2770TIP3    H229802   5.515   6.659   4.766  0.7048 -2.3062 -0.7792
 2771TIP3   OH229803   6.585   3.426  14.162 -0.2463 -0.3803  0.2507
 2771TIP3    H129804   6.605   3.520  14.158 -0.3218 -0.4182 -1.2174
 2771TIP3    H229805   6.667   3.383  14.138 -0.0267 -0.7168  1.5650
 2772TIP3   OH229806   0.251   0.960   1.037  0.0723  0.3046  0.1785
 2772TIP3    H129807   0.335   0.919   1.018 -0.0504  0.0018  0.2911
 2772TIP3    H229808   0.190   0.887   1.050 -0.3215  0.5220 -0.4120
 2773TIP3   OH229809   2.126   1.456  14.857 -0.0028  0.4519  0.1025
 2773TIP3    H129810   2.102   1.547  14.837 -0.0081  0.1726 -1.2312
 2773TIP3    H229811   2.205   1.463  14.911 -1.1188  1.2891  1.6740
 2774TIP3   OH229812   4.844   0.961  12.964  0.4699  0.2555  0.3080
 2774TIP3    H129813   4.918   1.008  13.003  0.0942  0.2433  1.0382
 2774TIP3    H229814   4.789   1.031  12.927  1.1197  0.2310 -0.7356
 2775TIP3   OH229815   1.338   6.007  12.770 -0.0780 -0.5272  0.4758
 2775TIP3    H129816   1.305   6.050  12.849 -0.2218  0.8299 -0.3144
 2775TIP3    H229817   1.431   6.030  12.769 -0.5688  1.5123 -1.0420
 2776TIP3   OH229818   1.404   0.161   1.860  0.1279  0.0389  0.1628
 2776TIP3    H129819   1.443   0.240   1.821  1.8584 -1.6078 -1.5695
 2776TIP3    H229820   1.479   0.108   1.886 -1.0255 -0.8175  1.8094
 2777TIP3   OH229821   6.447   2.703  17.154  0.1194  0.1921  0.6849
 2777TIP3    H129822   6.534   2.663  17.163 -0.1334 -0.1889  1.4803
 2777TIP3    H229823   6.462   2.781  17.101  0.7186 -0.6416 -0.3876
 2778TIP3   OH229824   5.880   2.719   3.099  0.8891 -0.1044  0.3711
 2778TIP3    H129825   5.918   2.635   3.076  0.8199  0.0124 -0.1843
 2778TIP3    H229826   5.787   2.709   3.080  0.5882 -0.4831  1.9939
 2779TIP3   OH229827   5.115   5.882  12.507  0.6364  0.4101  0.1955
 2779TIP3    H129828   5.136   5.966  12.547 -0.4595 -0.1752  2.0821
 2779TIP3    H229829   5.146   5.816  12.570  0.0400 -0.5600 -0.5053
 2780TIP3   OH229830   4.150   0.315   4.454  0.7262 -0.1657  0.4972
 2780TIP3    H129831   4.136   0.225   4.483  0.2892  0.5823  2.6730
 2780TIP3    H229832   4.246   0.323   4.447  0.7749 -0.7418  0.4309
 2781TIP3   OH229833   3.756   5.800   3.375 -0.3728 -0.4131  0.3146
 2781TIP3    H129834   3.816   5.829   3.306 -0.2459 -2.1825 -0.3422
 2781TIP3    H229835   3.801   5.824   3.456  0.0913  0.4737 -0.1846
 2782TIP3   OH229836   5.953   6.091   6.294 -0.0236 -0.0537  0.0890
 2782TIP3    H129837   5.990   6.104   6.206 -0.3262  0.6400  0.0606
 2782TIP3    H229838   6.023   6.119   6.353 -0.0595  0.1091  0.0555
 2783TIP3   OH229839   2.472   2.782   3.689  0.0422  0.6256  0.1738
 2783TIP3    H129840   2.466   2.689   3.713  0.9383  0.2797 -0.8951
 2783TIP3    H229841   2.382   2.814   3.695 -0.2456 -0.2651  0.7327
 2784TIP3   OH229842   2.227   5.891   4.194  0.3341  0.0223  0.5174
 2784TIP3    H129843   2.293   5.886   4.124  0.3812 -0.9082  0.6203
 2784TIP3    H229844   2.175   5.812   4.183 -0.6417  0.6511  0.5718
 2785TIP3   OH229845   1.888   3.153  12.092  0.3917  0.2946 -0.7567
 2785TIP3    H129846   1.860   3.231  12.043  0.3789  0.9002  0.1903
 2785TIP3    H229847   1.818   3.090  12.078  1.2249 -0.1995 -2.9854
 2786TIP3   OH229848   2.658   5.410  15.657 -0.0822 -0.4913 -0.2917
 2786TIP3    H129849   2.606   5.382  15.582 -1.4353  0.1003  0.3925
 2786TIP3    H229850   2.612   5.488  15.690 -1.3791 -2.5254  3.0246
 2787TIP3   OH229851   3.669   6.544  12.481 -0.6860 -0.5468  0.1872
 2787TIP3    H129852   3.659   6.525  12.388 -2.1735  1.0319  0.0069
 2787TIP3    H229853   3.697   6.635  12.485 -1.5326 -0.3201  1.3032
 2788TIP3   OH229854   3.601   0.551   4.495  0.1092  0.2358  0.5933
 2788TIP3    H129855   3.576   0.609   4.423  0.6932 -0.0286  0.1817
 2788TIP3    H229856   3.655   0.606   4.552  1.9702 -0.3496 -0.6028
 2789TIP3   OH229857   4.040   0.790   4.062 -0.4278 -0.1590  0.2190
 2789TIP3    H129858   3.995   0.856   4.009  0.7317 -2.0685 -3.3449
 2789TIP3    H229859   4.123   0.832   4.086  1.4108 -0.9662 -4.1003
 2790TIP3   OH229860   6.373   1.705  16.379 -0.0420 -0.8038 -0.1704
 2790TIP3    H129861   6.378   1.702  16.475  2.0708 -1.9196 -0.2776
 2790TIP3    H229862   6.279   1.711  16.360 -0.4247  0.9539  1.9851
 2791TIP3   OH229863   4.264   5.512  10.175  0.4490  0.2738 -0.2065
 2791TIP3    H129864   4.272   5.424  10.211 -0.3729  0.1774 -0.2478
 2791TIP3    H229865   4.208   5.559  10.238  1.3126  0.9238  0.0932
 2792TIP3   OH229866   0.028   5.236  15.950  0.2167  0.4284 -0.1324
 2792TIP3    H129867   0.066   5.290  15.881 -0.2137 -1.0035 -1.5205
 2792TIP3    H229868  -0.064   5.224  15.923 -0.1099  0.3380  0.9964
 2793TIP3   OH229869   0.044   3.141  15.665  0.8599 -0.7667  0.3348
 2793TIP3    H129870   0.111   3.080  15.634  0.2110 -1.5755  0.5040
 2793TIP3    H229871  -0.018   3.148  15.592  1.3603  0.3387  0.0017
 2794TIP3   OH229872   1.167   1.050  16.136  0.0026  0.4937 -0.0421
 2794TIP3    H129873   1.204   0.970  16.099 -0.1859  0.4488 -0.1306
 2794TIP3    H229874   1.111   1.085  16.067 -0.8596  0.0668  0.4375
 2795TIP3   OH229875   3.366   0.287   0.005 -0.2604  0.1998  0.1129
 2795TIP3    H129876   3.275   0.315   0.011  0.1166  1.2660  1.0474
 2795TIP3    H229877   3.398   0.323  -0.077 -1.0278 -1.2223 -0.8242
 2796TIP3   OH229878   3.534   0.394  16.078  0.1514 -0.1783  0.2401
 2796TIP3    H129879   3.605   0.423  16.021 -0.1326  2.4511  1.1532
 2796TIP3    H229880   3.515   0.470  16.134 -0.9479 -2.0136  2.4566
 2797TIP3   OH229881   1.963   3.888  16.488  0.0520  0.2512 -0.1789
 2797TIP3    H129882   2.044   3.882  16.539 -0.3626 -0.2128  0.4255
 2797TIP3    H229883   1.910   3.951  16.537 -0.2144  0.0605 -0.2270
 2798TIP3   OH229884   0.315   2.340   3.045  0.1164  0.4296 -0.0443
 2798TIP3    H129885   0.401   2.325   3.084 -0.4130  0.0429  0.9737
 2798TIP3    H229886   0.287   2.424   3.080 -0.1531  0.3030  0.0450
 2799TIP3   OH229887   0.195   1.513   2.611  0.3197 -0.2774  0.0737
 2799TIP3    H129888   0.105   1.483   2.624  0.6725 -1.0718  0.6830
 2799TIP3    H229889   0.198   1.598   2.656  0.6430 -1.5400  2.5085
 2800TIP3   OH229890   1.394   2.364  14.719 -0.2547  0.1378  0.4675
 2800TIP3    H129891   1.404   2.332  14.629  1.9344 -0.8988  1.0564
 2800TIP3    H229892   1.313   2.323  14.750 -1.3306  0.9519 -1.2058
 2801TIP3   OH229893   1.130   3.231   2.801 -0.1899  0.0429 -0.1686
 2801TIP3    H129894   1.048   3.279   2.786  0.6046  2.1286  1.8437
 2801TIP3    H229895   1.157   3.201   2.714 -2.5393  0.2063 -0.9953
 2802TIP3   OH229896   2.979   3.021   4.161  0.0979  0.1711 -0.2472
 2802TIP3    H129897   2.900   3.058   4.121 -1.2892 -0.9809  1.3014
 2802TIP3    H229898   3.012   2.959   4.096 -1.0896 -0.3621 -0.3509
 2803TIP3   OH229899   5.038   2.128   4.571 -0.0984  0.1834  0.4026
 2803TIP3    H129900   5.035   2.038   4.541  0.0104  0.4681 -0.4628
 2803TIP3    H229901   4.958   2.168   4.538 -0.3006  0.3204  1.0527
 2804TIP3   OH229902   5.454   5.072   0.021 -0.2265 -0.2945  0.9067
 2804TIP3    H129903   5.480   5.162   0.042  1.8588 -0.4022 -1.0483
 2804TIP3    H229904   5.440   5.073  -0.074 -1.4901 -1.7395  1.0531
 2805TIP3   OH229905   4.341   0.094  12.691 -0.2934  0.4132 -0.0088
 2805TIP3    H129906   4.381   0.170  12.650 -0.6750  1.0963  0.8762
 2805TIP3    H229907   4.363   0.021  12.632 -1.0416  1.4019 -1.5399
 2806TIP3   OH229908   6.499   3.519   2.917  0.4608  0.0486 -0.1459
 2806TIP3    H129909   6.520   3.425   2.920  0.5355  0.0898  0.9389
 2806TIP3    H229910   6.416   3.526   2.964  1.3365  0.7545  1.3379
 2807TIP3   OH229911   4.783   2.276  13.929 -0.0932  0.2000  0.3352
 2807TIP3    H129912   4.853   2.318  13.879  1.3883 -2.2455  0.2643
 2807TIP3    H229913   4.764   2.195  13.880 -2.8953  0.7445  0.4204
 2808TIP3   OH229914   6.577   2.412   0.036 -0.2249  0.3594 -0.3171
 2808TIP3    H129915   6.485   2.391   0.022  0.4357 -2.9067 -0.2004
 2808TIP3    H229916   6.585   2.420   0.131 -0.2241 -0.1377 -0.2763
 2809TIP3   OH229917   6.026   4.811   0.700 -0.1400  0.7992 -0.0501
 2809TIP3    H129918   6.047   4.721   0.725 -0.9682  0.5604 -0.1815
 2809TIP3    H229919   6.049   4.863   0.776  0.2672  0.4593  0.0597
 2810TIP3   OH229920   5.467   6.128  11.867 -0.5174  0.0614 -0.2691
 2810TIP3    H129921   5.525   6.172  11.930  1.3066 -0.3062 -1.6522
 2810TIP3    H229922   5.455   6.193  11.797  0.1714 -0.7378 -1.1310
 2811TIP3   OH229923   4.500   1.806  14.585  0.2544  0.0405  0.1996
 2811TIP3    H129924   4.497   1.763  14.670 -1.3833  1.7429  1.0358
 2811TIP3    H229925   4.582   1.777  14.546  1.2469 -0.4031  2.5476
 2812TIP3   OH229926   4.170   6.148   1.139 -0.2114 -0.5050 -0.1204
 2812TIP3    H129927   4.261   6.130   1.162 -0.0624  0.5647  0.1152
 2812TIP3    H229928   4.160   6.111   1.051  0.6238 -0.0657 -0.4061
 2813TIP3   OH229929   3.022   4.759   0.036  0.1185 -0.8378 -0.5244
 2813TIP3    H129930   3.078   4.771   0.113 -3.0378  1.2751  1.5511
 2813TIP3    H229931   2.982   4.673   0.049  0.6506 -1.0807 -0.4966
 2814TIP3   OH229932   3.252   4.423  17.167  0.0453  0.0581 -0.3645
 2814TIP3    H129933   3.333   4.409  17.215 -0.5912 -0.2921  0.6264
 2814TIP3    H229934   3.273   4.402  17.076  0.6670 -1.4982  0.1344
 2815TIP3   OH229935   0.827   6.326   6.439 -0.1287  0.4723 -0.4465
 2815TIP3    H129936   0.899   6.304   6.380  1.6250  2.1953  0.9952
 2815TIP3    H229937   0.807   6.244   6.484  2.4707  0.4659  0.7537
 2816TIP3   OH229938   2.374   0.619   3.928 -0.3079 -0.3711 -0.4546
 2816TIP3    H129939   2.423   0.701   3.937 -2.5696  1.0929 -0.9675
 2816TIP3    H229940   2.361   0.589   4.018 -0.8521  0.6905 -0.1683
 2817TIP3   OH229941   3.660   5.554  16.322  0.2162  0.5358  0.0136
 2817TIP3    H129942   3.678   5.648  16.328  0.4869  0.6237 -2.0447
 2817TIP3    H229943   3.716   5.523  16.251  1.0680 -1.4415  1.4742
 2818TIP3   OH229944   5.585   3.355   4.427  0.0044  1.1282 -0.4898
 2818TIP3    H129945   5.599   3.443   4.393 -3.1332  1.4240 -1.2105
 2818TIP3    H229946   5.527   3.368   4.502  0.8306 -0.1923  0.3962
 2819TIP3   OH229947   3.708   4.061   1.409 -0.2489  0.5999 -0.0483
 2819TIP3    H129948   3.637   4.023   1.461  0.1130  0.0624  0.0562
 2819TIP3    H229949   3.765   3.986   1.387 -1.1098  0.6016 -2.3697
 2820TIP3   OH229950   1.401   4.746  16.761 -0.0523  0.5527 -0.3210
 2820TIP3    H129951   1.377   4.817  16.702 -1.6103  0.4293  0.1224
 2820TIP3    H229952   1.343   4.758  16.836  1.3409  0.2251  0.8212
 2821TIP3   OH229953   2.796   5.005  13.960 -0.4361 -0.1870  0.2614
 2821TIP3    H129954   2.804   4.916  13.994 -1.3110  0.1905  1.5262
 2821TIP3    H229955   2.785   5.059  14.039  1.4771  1.2127 -0.4095
 2822TIP3   OH229956   3.150   0.630   2.178 -0.4546 -0.0973  0.0362
 2822TIP3    H129957   3.069   0.671   2.146 -1.0855 -2.2639 -1.2340
 2822TIP3    H229958   3.124   0.542   2.204  1.2574 -0.3733  0.8810
 2823TIP3   OH229959   0.009   1.347  11.463 -0.0417 -0.2642 -0.3003
 2823TIP3    H129960   0.057   1.415  11.510 -0.2897  0.0423 -0.4890
 2823TIP3    H229961   0.038   1.265  11.503 -0.1081 -0.0166  0.2576
 2824TIP3   OH229962   5.934   2.630  13.493 -0.6890  0.0509  0.3427
 2824TIP3    H129963   5.975   2.574  13.427 -0.3068  0.8635 -0.1170
 2824TIP3    H229964   6.008   2.669  13.540 -0.9400  1.3713 -0.3604
 2825TIP3   OH229965   2.556   3.455  14.589  0.1452  0.1280  0.2680
 2825TIP3    H129966   2.572   3.530  14.647  0.9699  0.1159  0.0594
 2825TIP3    H229967   2.641   3.437  14.550  0.2987 -1.8768  1.4625
 2826TIP3   OH229968   0.903   4.150   1.405 -0.5083  0.0520  0.1518
 2826TIP3    H129969   0.932   4.129   1.316 -0.9302 -0.0619  0.0380
 2826TIP3    H229970   0.978   4.193   1.445 -1.0827  2.2813 -1.0370
 2827TIP3   OH229971   4.548   0.660  11.596  0.1661 -0.2499  0.1827
 2827TIP3    H129972   4.553   0.742  11.547  0.4048  0.5001  1.4387
 2827TIP3    H229973   4.631   0.616  11.577  0.4665  0.2591  0.3168
 2828TIP3   OH229974   3.859   1.624   3.649 -0.3964 -0.1555  0.3497
 2828TIP3    H129975   3.780   1.677   3.659 -0.6833 -0.3480 -0.8842
 2828TIP3    H229976   3.843   1.570   3.572  0.8054 -0.4372  0.2837
 2829TIP3   OH229977   2.928   5.880  12.613 -0.8214 -0.5204 -0.0216
 2829TIP3    H129978   2.839   5.911  12.632 -0.1051  0.6142  1.5993
 2829TIP3    H229979   2.982   5.959  12.618  1.1659 -2.0123  5.0132
 2830TIP3   OH229980   3.706   2.318  13.700 -0.4031 -0.0773 -0.9259
 2830TIP3    H129981   3.693   2.275  13.616 -1.2555 -0.2470 -0.7140
 2830TIP3    H229982   3.798   2.301  13.722 -0.6326 -1.5228 -1.0101
 2831TIP3   OH229983   6.622   0.148  12.218  0.6531 -0.6614 -0.3413
 2831TIP3    H129984   6.712   0.170  12.195  0.4023  0.3197 -0.3901
 2831TIP3    H229985   6.629   0.102  12.302  1.2571 -1.1905 -0.6780
 2832TIP3   OH229986   6.577   5.669  12.157  0.5530  0.8735 -0.2392
 2832TIP3    H129987   6.563   5.576  12.177 -2.4997  0.7785 -2.4181
 2832TIP3    H229988   6.654   5.671  12.101  0.7288 -0.3297 -0.0562
 2833TIP3   OH229989   4.535   5.927   0.780 -0.7088 -0.0022  0.1384
 2833TIP3    H129990   4.439   5.928   0.784 -0.7849 -1.0920 -1.0897
 2833TIP3    H229991   4.558   6.005   0.729 -1.0271 -0.5211 -0.8182
 2834TIP3   OH229992   6.599   1.547  12.779  0.2168 -0.3859 -0.3489
 2834TIP3    H129993   6.582   1.641  12.779 -0.7401 -0.5418  0.9845
 2834TIP3    H229994   6.691   1.538  12.804  0.2313  0.1859 -0.2022
 2835TIP3   OH229995   4.426   2.076  14.464  0.1323 -0.0335 -0.1710
 2835TIP3    H129996   4.486   2.144  14.433  1.3739 -0.8657  0.3666
 2835TIP3    H229997   4.482   2.003  14.488 -0.9994 -0.4406  1.3741
 2836TIP3   OH229998   3.811   6.619   0.908  0.0068 -0.4568 -0.9677
 2836TIP3    H129999   3.789   6.542   0.961 -1.6589  0.4582 -0.2793
 2836TIP3    H230000   3.847   6.583   0.827  1.3083 -1.9064  0.2169
 2837TIP3   OH230001   4.806   5.091   2.655  0.0307  0.1825 -0.1429
 2837TIP3    H130002   4.732   5.055   2.606 -0.7783  1.1725  0.3407
 2837TIP3    H230003   4.790   5.186   2.656  2.0675  0.5725 -1.3126
 2838TIP3   OH230004   3.200   4.070   1.917  0.3318  0.0215  0.4157
 2838TIP3    H130005   3.216   4.121   1.838  0.3238 -0.8047 -0.1304
 2838TIP3    H230006   3.287   4.053   1.953  0.4106 -0.5741 -0.0468
 2839TIP3   OH230007   2.374   2.647   1.838 -0.2293  0.2013  0.1329
 2839TIP3    H130008   2.302   2.597   1.799 -1.6116  0.6792  1.9960
 2839TIP3    H230009   2.416   2.690   1.763 -0.2040 -2.1723 -1.2840
 2840TIP3   OH230010   3.282   5.502   3.787  0.0886 -0.5996  0.4700
 2840TIP3    H130011   3.289   5.464   3.699 -0.7253 -2.3616  1.1380
 2840TIP3    H230012   3.257   5.428   3.843 -0.9774  0.8121  1.9093
 2841TIP3   OH230013   4.186   3.220  13.888  0.0189  0.5566  0.1983
 2841TIP3    H130014   4.125   3.244  13.957  0.3030 -2.7439  1.7119
 2841TIP3    H230015   4.246   3.294  13.882 -1.6968  2.0874  1.5214
 2842TIP3   OH230016   3.259   6.592  14.051  0.0878 -0.2159 -0.5561
 2842TIP3    H130017   3.192   6.586  14.119  0.2267 -0.4880 -0.4448
 2842TIP3    H230018   3.284   6.684  14.051 -0.0971 -0.1647 -0.4169
 2843TIP3   OH230019   5.335   0.947   2.054  0.2229 -0.2837 -0.0537
 2843TIP3    H130020   5.368   0.868   2.097 -1.3824 -0.4016  1.0241
 2843TIP3    H230021   5.240   0.935   2.054 -0.1467  2.3429  1.5022
 2844TIP3   OH230022   6.548   4.998   0.938  0.4540  0.2744  0.7825
 2844TIP3    H130023   6.462   5.014   0.900 -0.2926 -1.5268  1.6713
 2844TIP3    H230024   6.597   4.952   0.870  0.4884  0.6895  0.5261
 2845TIP3   OH230025   5.640   1.925   2.209  0.8051  0.4663 -0.2084
 2845TIP3    H130026   5.560   1.948   2.162  0.1765 -1.9302 -0.3609
 2845TIP3    H230027   5.710   1.963   2.156 -0.1050  1.0973 -0.9998
 2846TIP3   OH230028   1.371   3.195   3.225 -0.2260 -0.6129  0.7469
 2846TIP3    H130029   1.437   3.139   3.265  1.4824 -0.0930 -1.2055
 2846TIP3    H230030   1.312   3.135   3.180  1.4305 -0.9479 -1.0955
 2847TIP3   OH230031   4.762   0.201  15.547 -0.6213  0.2046  0.3894
 2847TIP3    H130032   4.793   0.277  15.498 -0.9133  0.4954  0.6518
 2847TIP3    H230033   4.672   0.188  15.517 -1.4977  1.6108  2.2681
 2848TIP3   OH230034   5.513   3.670   5.200  0.1285  0.3364  0.4362
 2848TIP3    H130035   5.535   3.712   5.117  0.5055 -0.8481 -0.0618
 2848TIP3    H230036   5.462   3.736   5.247  0.8888  1.4373 -0.2551
 2849TIP3   OH230037   6.300   5.198   4.465  0.8105  0.0870 -0.1204
 2849TIP3    H130038   6.223   5.253   4.448  1.2655  0.2417 -1.7707
 2849TIP3    H230039   6.319   5.211   4.558 -2.2694 -1.3912  0.7785
 2850TIP3   OH230040   6.088   2.566   2.629 -0.3168  0.3469 -0.0888
 2850TIP3    H130041   6.115   2.546   2.718  0.2507  4.5464  0.7436
 2850TIP3    H230042   6.169   2.586   2.583 -0.6117 -1.6848 -1.6009
 2851TIP3   OH230043   2.857   5.968  14.024  0.0655 -0.3171 -0.0479
 2851TIP3    H130044   2.845   6.052  13.980  0.8567  0.1074  0.5346
 2851TIP3    H230045   2.877   5.991  14.115 -0.2452 -1.1508  0.2368
 2852TIP3   OH230046   1.016   0.903   0.101 -0.2426 -0.3815 -0.8499
 2852TIP3    H130047   1.018   0.998   0.116 -0.2684 -0.0395 -2.8720
 2852TIP3    H230048   0.970   0.893   0.017 -0.4698 -2.2018 -0.5185
 2853TIP3   OH230049   5.143   2.585  14.524 -0.5239  0.1238  0.4484
 2853TIP3    H130050   5.065   2.579  14.578 -0.8417  0.3826  0.0198
 2853TIP3    H230051   5.193   2.506  14.545 -1.6535 -0.8510 -0.4370
 2854TIP3   OH230052   2.566   1.381  12.584  0.5374 -0.0454 -0.2570
 2854TIP3    H130053   2.554   1.474  12.566 -1.2373 -0.3525 -0.7772
 2854TIP3    H230054   2.644   1.377  12.639 -0.4661  1.9470  1.4297
 2855TIP3   OH230055   1.532   4.408  11.740 -0.3248 -0.5380 -0.4793
 2855TIP3    H130056   1.505   4.498  11.721 -0.3713 -0.4161  0.1570
 2855TIP3    H230057   1.601   4.389  11.676  1.3318  0.7697  0.8731
 2856TIP3   OH230058   2.617   0.992  11.884  0.2674 -0.2439 -0.2504
 2856TIP3    H130059   2.663   1.074  11.862 -0.1103 -0.1499 -0.7166
 2856TIP3    H230060   2.557   0.979  11.811 -0.6240 -0.2320  0.4789
 2857TIP3   OH230061   4.613   0.918  13.478  0.1683 -0.2977  0.4917
 2857TIP3    H130062   4.586   0.891  13.390 -0.6241  0.3201  0.5457
 2857TIP3    H230063   4.531   0.925  13.527  0.5722 -0.1658  1.1492
 2858TIP3   OH230064   2.440   3.327   5.744 -0.3765 -0.7281  0.0672
 2858TIP3    H130065   2.495   3.402   5.767 -0.9280  0.1126 -1.2940
 2858TIP3    H230066   2.411   3.293   5.828  1.6220 -0.7368  0.7755
 2859TIP3   OH230067   2.837   4.251  14.414 -0.4399 -0.2727 -0.2700
 2859TIP3    H130068   2.765   4.191  14.435 -0.1906  0.0899  1.7169
 2859TIP3    H230069   2.802   4.306  14.344 -2.2514  0.1313  0.9186
 2860TIP3   OH230070   0.313   6.457  16.720 -0.1946 -0.2118  0.1688
 2860TIP3    H130071   0.394   6.494  16.685 -0.5166 -0.5890 -0.9928
 2860TIP3    H230072   0.322   6.466  16.815  0.3594  1.5258 -0.0273
 2861TIP3   OH230073   1.302   1.507   4.848 -0.4061 -0.3905 -0.4610
 2861TIP3    H130074   1.367   1.490   4.780 -1.9039  0.3031 -2.1172
 2861TIP3    H230075   1.276   1.421   4.879 -1.7005 -0.8766 -2.7486
 2862TIP3   OH230076   5.865   1.378  16.857 -0.3743  0.3309  0.2499
 2862TIP3    H130077   5.908   1.464  16.859  2.4543 -1.0446  3.3592
 2862TIP3    H230078   5.790   1.386  16.915 -0.0460  0.6523  0.6261
 2863TIP3   OH230079   4.396   5.427  16.350 -0.4575 -0.5908  0.1837
 2863TIP3    H130080   4.456   5.501  16.346  0.2737 -1.1420  0.8233
 2863TIP3    H230081   4.383   5.411  16.443 -1.8296 -0.2961  0.0453
 2864TIP3   OH230082   0.527   4.372   2.381 -0.6837  0.4756 -0.0993
 2864TIP3    H130083   0.473   4.293   2.393 -0.0704  0.2469  1.1649
 2864TIP3    H230084   0.617   4.341   2.389 -0.4357  1.3145  0.3847
 2865TIP3   OH230085   3.167   3.234  12.775 -0.2824 -0.2148  0.1214
 2865TIP3    H130086   3.074   3.241  12.752 -0.6411 -3.8456  0.2701
 2865TIP3    H230087   3.171   3.163  12.839  2.9918 -2.1404 -2.0918
 2866TIP3   OH230088   4.643   5.789   4.401  0.5059  0.3723 -0.0901
 2866TIP3    H130089   4.707   5.834   4.345  1.1229 -1.5069 -0.9478
 2866TIP3    H230090   4.558   5.815   4.366  0.8495  0.8957 -0.5452
 2867TIP3   OH230091   2.053   3.959   6.373  0.3974 -0.9630  0.4082
 2867TIP3    H130092   1.973   3.910   6.390 -0.2553 -1.3608 -3.4699
 2867TIP3    H230093   2.112   3.896   6.332  0.8027  0.6164 -1.5014
 2868TIP3   OH230094   1.176   2.444  12.075  0.3124  0.5653  0.6756
 2868TIP3    H130095   1.239   2.441  12.147  0.8185  3.4502  0.4036
 2868TIP3    H230096   1.220   2.495  12.007 -0.3908 -1.6513 -1.4795
 2869TIP3   OH230097   1.044   1.740   0.728 -0.0290  0.4998 -0.2003
 2869TIP3    H130098   1.092   1.759   0.809 -0.4695 -1.4230  0.5387
 2869TIP3    H230099   1.051   1.820   0.677  1.1442  1.3901  1.3069
 2870TIP3   OH230100   4.090   0.292  14.612 -0.2164 -0.0570 -0.5126
 2870TIP3    H130101   4.093   0.297  14.516 -2.2599 -0.1630 -0.6068
 2870TIP3    H230102   4.057   0.204  14.631  0.9047 -0.3112  0.3154
 2871TIP3   OH230103   0.916   5.093   4.076 -1.0499  0.4185  0.6370
 2871TIP3    H130104   0.851   5.067   4.010  0.9758  1.1778 -1.7497
 2871TIP3    H230105   0.990   5.033   4.061  0.6935  2.6477  0.0409
 2872TIP3   OH230106   4.405   3.045  12.764 -0.3470  0.0610  0.1871
 2872TIP3    H130107   4.454   3.048  12.846 -1.1301  0.4283  0.6417
 2872TIP3    H230108   4.406   3.135  12.732 -2.0167  0.3672  0.9625
 2873TIP3   OH230109   0.101   4.141   5.099 -0.0189  0.2135 -0.1114
 2873TIP3    H130110   0.114   4.172   5.189 -0.8646 -0.3069  0.2053
 2873TIP3    H230111   0.055   4.212   5.055  0.4033  0.4723 -0.1275
 2874TIP3   OH230112   5.579   5.380  17.106  0.1322  0.3792  0.0930
 2874TIP3    H130113   5.655   5.399  17.161 -1.0848  0.2867  1.8862
 2874TIP3    H230114   5.508   5.365  17.169 -1.1890 -0.2916 -1.5190
 2875TIP3   OH230115   2.625   5.430   2.224 -0.5225  0.4275 -0.3819
 2875TIP3    H130116   2.627   5.469   2.312  0.0625  0.1161 -0.2536
 2875TIP3    H230117   2.685   5.485   2.173  2.4768 -1.8788  0.4807
 2876TIP3   OH230118   4.772   2.556  16.351 -0.6953  0.4688 -0.3304
 2876TIP3    H130119   4.710   2.514  16.411 -0.0505  0.2122  0.1651
 2876TIP3    H230120   4.730   2.549  16.265 -0.6301 -1.1572 -0.2555
 2877TIP3   OH230121   4.236   5.278  12.274  0.1333  0.5551 -0.4811
 2877TIP3    H130122   4.204   5.344  12.214 -1.1919  0.0519 -0.3483
 2877TIP3    H230123   4.177   5.283  12.350 -0.8066 -1.6456 -1.0290
 2878TIP3   OH230124   6.361   3.923   4.200  0.8912 -0.3285 -0.6352
 2878TIP3    H130125   6.340   3.965   4.284 -0.2560  1.8032 -1.9556
 2878TIP3    H230126   6.456   3.927   4.194  0.8403  1.4022 -0.3787
 2879TIP3   OH230127   2.213   5.981   2.780 -0.5574  0.0622 -0.4225
 2879TIP3    H130128   2.208   5.985   2.876 -1.6375 -2.5882 -0.3266
 2879TIP3    H230129   2.162   6.056   2.750 -1.5111  0.0276  1.0692
 2880TIP3   OH230130   5.493   4.926  14.463 -0.5114  0.8975  0.1987
 2880TIP3    H130131   5.431   4.913  14.391 -0.6813 -1.3011  0.7118
 2880TIP3    H230132   5.454   4.879  14.537  2.6115 -2.0913  0.0338
 2881TIP3   OH230133   0.571   3.594  10.890 -1.0217 -0.4361  1.0348
 2881TIP3    H130134   0.606   3.538  10.959  1.3338  0.2529  0.4339
 2881TIP3    H230135   0.539   3.532  10.823  2.5166 -1.1735 -0.1154
 2882TIP3   OH230136   3.450   1.670   1.784  0.3981  0.5277 -0.3515
 2882TIP3    H130137   3.505   1.652   1.860 -0.7287 -2.5619 -0.1903
 2882TIP3    H230138   3.492   1.624   1.712 -0.8060 -0.0631 -0.6867
 2883TIP3   OH230139   5.490   5.845   3.445 -0.1291 -1.0033 -0.0226
 2883TIP3    H130140   5.443   5.908   3.392  2.4036 -0.5263 -1.8110
 2883TIP3    H230141   5.462   5.863   3.535 -0.3815  1.8575 -0.6349
 2884TIP3   OH230142   5.669   3.236  10.884  0.1054 -0.2917  0.5213
 2884TIP3    H130143   5.746   3.186  10.857  0.4962  0.5990 -0.0251
 2884TIP3    H230144   5.595   3.182  10.858  0.5434 -1.5745  1.8394
 2885TIP3   OH230145   5.800   6.104  15.106 -0.3922 -0.7222 -0.8777
 2885TIP3    H130146   5.739   6.111  15.032 -1.1712  1.8512 -0.0303
 2885TIP3    H230147   5.747   6.126  15.182  1.4444  0.9673 -0.0585
 2886TIP3   OH230148   2.624   0.878   0.931 -0.1336  0.0606  0.5908
 2886TIP3    H130149   2.694   0.876   0.866 -1.7212 -0.0365 -1.1763
 2886TIP3    H230150   2.608   0.971   0.946  0.9385  0.0854  1.6552
 2887TIP3   OH230151   0.079   2.540   5.231  0.6147 -0.6933  0.1574
 2887TIP3    H130152   0.083   2.446   5.249 -0.6485 -0.5990  0.9128
 2887TIP3    H230153   0.121   2.549   5.145 -2.2913 -2.3887 -1.5217
 2888TIP3   OH230154   4.341   5.759  10.098  0.1224  0.1063  0.7245
 2888TIP3    H130155   4.312   5.679  10.143 -2.5390  0.2031 -0.6980
 2888TIP3    H230156   4.273   5.824  10.120  2.1791  1.9702  1.7576
 2889TIP3   OH230157   2.266   1.493  15.914  0.2670  0.2234  0.5850
 2889TIP3    H130158   2.248   1.465  16.004  3.3797  0.9094  1.4894
 2889TIP3    H230159   2.342   1.441  15.888  0.4387  1.2590 -1.0346
 2890TIP3   OH230160   0.288   3.272  15.542 -0.2614 -0.0294  0.2788
 2890TIP3    H130161   0.250   3.212  15.606 -0.7699  0.2519  0.2442
 2890TIP3    H230162   0.325   3.214  15.475 -1.3377 -0.2988 -0.0943
 2891TIP3   OH230163   3.130   1.933   2.935  0.1457 -0.7469 -0.3894
 2891TIP3    H130164   3.102   1.871   2.868  0.5189 -1.9569  0.5682
 2891TIP3    H230165   3.088   1.903   3.016  1.4422 -0.5887  0.3687
 2892TIP3   OH230166   6.787   4.267   0.581  0.5704  0.2426 -0.2215
 2892TIP3    H130167   6.822   4.286   0.668  0.6657 -1.5288  0.1398
 2892TIP3    H230168   6.727   4.339   0.563 -0.2425  0.0698  1.7633
 2893TIP3   OH230169   4.965   2.755  12.004  0.7299 -0.1008 -0.2754
 2893TIP3    H130170   4.973   2.835  12.056  0.6113 -0.0949 -0.2659
 2893TIP3    H230171   4.878   2.721  12.026 -0.2188  1.0539 -2.1219
 2894TIP3   OH230172   5.916   2.862  12.369 -0.2654  0.0133 -0.7848
 2894TIP3    H130173   5.934   2.931  12.305  0.8012  0.4432 -0.0389
 2894TIP3    H230174   5.975   2.791  12.345  0.1048  0.1580 -0.3117
 2895TIP3   OH230175   1.480   2.962  17.096  0.3379  0.3071 -0.1029
 2895TIP3    H130176   1.406   2.901  17.086  0.5734  0.1268 -0.7364
 2895TIP3    H230177   1.493   2.968  17.191  1.0468 -1.5204 -0.0586
 2896TIP3   OH230178   5.349   4.911  13.256 -0.4179  0.6443 -0.2247
 2896TIP3    H130179   5.270   4.888  13.305  1.6826  0.2342  3.1403
 2896TIP3    H230180   5.351   4.849  13.184 -1.2275 -1.8037  1.7838
 2897TIP3   OH230181   3.848   3.839   1.883  0.4497  0.2774  0.1738
 2897TIP3    H130182   3.887   3.864   1.967  1.1239  1.1239 -0.3736
 2897TIP3    H230183   3.830   3.745   1.892  1.4840  0.1322  0.8911
 2898TIP3   OH230184   0.613   5.488  14.523 -0.1576 -0.9165 -0.0077
 2898TIP3    H130185   0.550   5.518  14.588 -0.5482 -1.8029  0.0218
 2898TIP3    H230186   0.597   5.394  14.514  1.2650 -1.1816  0.1102
 2899TIP3   OH230187   3.514   0.047   4.266 -0.8155 -0.5928  0.0686
 2899TIP3    H130188   3.474   0.132   4.246 -3.7387 -1.7762  0.5513
 2899TIP3    H230189   3.513   0.001   4.182  0.5627 -0.2489 -0.1446
 2900TIP3   OH230190   0.240   0.646  15.894  0.3092  0.0807  0.2287
 2900TIP3    H130191   0.215   0.554  15.887 -0.0227  0.1855  0.0279
 2900TIP3    H230192   0.208   0.674  15.980  0.0664  0.1118  0.1294
 2901TIP3   OH230193   1.627   4.041   1.027  0.2937  0.2114  0.2457
 2901TIP3    H130194   1.626   4.054   1.122  0.2963  0.8244  0.1604
 2901TIP3    H230195   1.538   4.061   0.999  0.2807 -0.0142  0.1180
 2902TIP3   OH230196   1.981   0.196  13.251 -0.3767  0.3279 -0.2142
 2902TIP3    H130197   1.904   0.247  13.276 -0.4322  0.4317 -0.6051
 2902TIP3    H230198   2.052   0.259  13.246 -0.5958  0.4893 -1.4132
 2903TIP3   OH230199   3.550   4.813   2.635 -0.1719  0.3868 -0.3688
 2903TIP3    H130200   3.476   4.812   2.574 -0.6237 -0.2477  0.1859
 2903TIP3    H230201   3.607   4.744   2.603 -1.8497 -2.0167  1.6735
 2904TIP3   OH230202   0.884   6.134   1.426 -0.3792  0.2261  0.7051
 2904TIP3    H130203   0.827   6.163   1.353 -1.9004 -1.8197  1.0519
 2904TIP3    H230204   0.966   6.111   1.384  0.1205  2.8132  0.1369
 2905TIP3   OH230205   0.603   2.998  12.868  0.8246  0.0103 -0.4324
 2905TIP3    H130206   0.539   3.069  12.857 -1.4031 -1.8007  0.2852
 2905TIP3    H230207   0.591   2.944  12.790  1.7893 -0.1200 -0.4898
 2906TIP3   OH230208   1.904   2.504   4.722 -0.1342  0.2199  0.6057
 2906TIP3    H130209   1.824   2.484   4.770 -0.4533  0.8142  0.3144
 2906TIP3    H230210   1.971   2.516   4.790  0.2349 -2.5029  0.7936
 2907TIP3   OH230211   6.516   2.105   2.378 -1.0621 -0.4010 -0.9916
 2907TIP3    H130212   6.518   2.143   2.290  2.5307 -0.3060 -0.9516
 2907TIP3    H230213   6.482   2.174   2.434  1.9070  1.5758 -1.5006
 2908TIP3   OH230214   2.748   1.925   5.663  0.7030 -0.2817 -0.0905
 2908TIP3    H130215   2.805   1.884   5.728  0.6473  0.2011  0.2688
 2908TIP3    H230216   2.662   1.886   5.677  0.4648  0.5274  0.7858
 2909TIP3   OH230217   1.292   0.057   1.618  0.4859 -0.5665 -0.6712
 2909TIP3    H130218   1.333   0.097   1.695  0.5411  0.3145 -1.1523
 2909TIP3    H230219   1.359   0.062   1.550 -0.7527  1.8469 -1.7695
 2910TIP3   OH230220   5.890   2.459  13.129 -0.0626  0.2008 -0.1175
 2910TIP3    H130221   5.968   2.478  13.181 -0.0125  0.1767 -0.1823
 2910TIP3    H230222   5.849   2.385  13.174 -2.2202  2.7174  2.1857
 2911TIP3   OH230223   0.820   0.979   2.042  0.2353 -0.5577 -0.1799
 2911TIP3    H130224   0.784   0.924   1.973 -1.9363  0.9046 -0.2540
 2911TIP3    H230225   0.746   0.997   2.100  0.7313  2.7132 -0.4394
 2912TIP3   OH230226   5.477   3.177   0.309  0.1181 -0.1936 -0.3151
 2912TIP3    H130227   5.530   3.218   0.377  0.7894 -0.8726 -0.4290
 2912TIP3    H230228   5.527   3.187   0.228 -0.9052  1.0554 -0.8210
 2913TIP3   OH230229   6.113   3.113   0.699 -0.4185  0.2641  0.1426
 2913TIP3    H130230   6.202   3.079   0.693 -0.3121  0.0253  2.3598
 2913TIP3    H230231   6.060   3.053   0.646  0.6317  0.0081 -0.6271
 2914TIP3   OH230232   6.263   0.747   2.125  0.4906  0.0998  0.3276
 2914TIP3    H130233   6.350   0.710   2.138  1.3570  1.5256 -1.1793
 2914TIP3    H230234   6.205   0.671   2.119  1.8679 -0.9215 -0.2676
 2915TIP3   OH230235   3.726   2.596   5.964 -0.4074 -0.1298  0.2147
 2915TIP3    H130236   3.719   2.524   6.026 -0.8552  0.3908  0.7816
 2915TIP3    H230237   3.690   2.672   6.011 -1.8008  0.0350 -1.0471
 2916TIP3   OH230238   4.820   3.917  14.568 -0.4375 -1.0478  0.0907
 2916TIP3    H130239   4.776   3.972  14.504 -0.9223 -1.4988  0.0293
 2916TIP3    H230240   4.913   3.934  14.556 -0.3271 -3.2135 -2.6554
 2917TIP3   OH230241   2.360   2.565  11.995  0.2281  0.4906 -0.4989
 2917TIP3    H130242   2.445   2.599  12.022  0.3947 -0.1475 -0.2010
 2917TIP3    H230243   2.305   2.643  11.985  0.0702  0.7714  2.0088
 2918TIP3   OH230244   2.972   0.333   1.153 -0.2068  0.0420 -0.0534
 2918TIP3    H130245   2.993   0.295   1.068  0.1764 -0.7862  0.4067
 2918TIP3    H230246   3.054   0.328   1.203  0.2245  2.6706 -0.4100
 2919TIP3   OH230247   5.419   1.944   1.755 -0.0713 -0.0151 -0.0251
 2919TIP3    H130248   5.485   1.915   1.691 -1.5702  0.8222 -2.0177
 2919TIP3    H230249   5.385   2.026   1.719  0.3049  1.4338  2.7987
 2920TIP3   OH230250   0.430   3.904   3.321  0.1248 -0.1279 -0.2391
 2920TIP3    H130251   0.421   3.951   3.404  1.3126 -2.4340  1.2336
 2920TIP3    H230252   0.341   3.876   3.300 -0.0227 -0.4485  0.8030
 2921TIP3   OH230253   1.029   1.445   4.160  0.0755  0.5578  0.1194
 2921TIP3    H130254   1.111   1.440   4.210  0.2892  1.5632 -0.1248
 2921TIP3    H230255   1.051   1.405   4.075  0.6388  1.8635 -0.3598
 2922TIP3   OH230256   3.909   5.032   5.673 -0.4179 -0.1666  0.0291
 2922TIP3    H130257   3.856   5.092   5.621 -0.1190  0.5043  0.4939
 2922TIP3    H230258   3.945   4.970   5.609  0.9786  1.4120 -0.7431
 2923TIP3   OH230259   1.548   5.540  15.408 -0.5111  0.0875  0.3049
 2923TIP3    H130260   1.528   5.577  15.322  1.3635  2.2985  0.7832
 2923TIP3    H230261   1.462   5.532  15.451 -1.3788 -0.2812 -1.4596
 2924TIP3   OH230262   2.233   3.558   5.679  0.0735  0.1937  0.0474
 2924TIP3    H130263   2.222   3.465   5.661  0.0010  0.3050 -0.4790
 2924TIP3    H230264   2.284   3.592   5.606  0.7006  0.4321  0.5902
 2925TIP3   OH230265   6.464   3.725  17.120 -0.2022 -0.7618  0.7653
 2925TIP3    H130266   6.525   3.658  17.152  0.0116 -1.3859 -0.8928
 2925TIP3    H230267   6.377   3.692  17.143 -0.1362 -1.9403 -0.6324
 2926TIP3   OH230268   6.481   3.607  13.153 -0.2563 -0.5817  0.1671
 2926TIP3    H130269   6.487   3.701  13.168 -0.6424 -0.6008  0.4753
 2926TIP3    H230270   6.562   3.584  13.108 -0.1223 -0.1174  0.1691
 2927TIP3   OH230271   2.825   3.483   0.165  0.4456  0.3461 -0.1206
 2927TIP3    H130272   2.825   3.529   0.081 -0.1155 -0.9539 -0.8564
 2927TIP3    H230273   2.902   3.517   0.211  1.7778 -0.1790 -1.8712
 2928TIP3   OH230274   4.502   2.021   3.721 -0.0820 -0.6883  0.6389
 2928TIP3    H130275   4.567   1.958   3.691 -0.3366 -0.6950  0.0940
 2928TIP3    H230276   4.448   2.038   3.644  0.7419  1.1472  0.4428
 2929TIP3   OH230277   0.127   1.558   0.987  0.4482  0.4169 -0.2776
 2929TIP3    H130278   0.203   1.615   0.987  1.9304 -1.4661  1.6945
 2929TIP3    H230279   0.107   1.545   1.080 -0.4283 -1.4985 -0.6967
 2930TIP3   OH230280   3.517   1.819   4.874  0.1629 -0.2408 -0.6175
 2930TIP3    H130281   3.459   1.743   4.873 -1.2588  0.7810  0.9784
 2930TIP3    H230282   3.533   1.835   4.967 -0.8564  2.3660 -0.8523
 2931TIP3   OH230283   2.083   5.578  14.574  0.4434 -0.2211  0.1092
 2931TIP3    H130284   2.021   5.591  14.503  0.1661 -1.2010  0.1628
 2931TIP3    H230285   2.042   5.512  14.630  1.8711 -1.5142 -0.2943
 2932TIP3   OH230286   0.074   2.781  16.732  0.1395 -0.6085  0.5446
 2932TIP3    H130287   0.067   2.821  16.645 -0.8556 -0.0633  0.8712
 2932TIP3    H230288   0.130   2.840  16.782 -1.3333  0.4139  1.0275
 2933TIP3   OH230289   2.346   4.311   0.431  0.0439 -0.0241  0.7068
 2933TIP3    H130290   2.304   4.260   0.501  0.7598 -0.2172  1.0006
 2933TIP3    H230291   2.439   4.290   0.439  0.0713 -0.4249 -0.6152
 2934TIP3   OH230292   3.785   1.791   2.204  0.1681  0.0697 -0.1029
 2934TIP3    H130293   3.790   1.887   2.213 -0.8637  0.1352 -0.1973
 2934TIP3    H230294   3.698   1.769   2.235 -0.2316 -0.6539 -1.7148
 2935TIP3   OH230295   1.133   2.607  14.820 -0.8827 -0.1251 -0.0350
 2935TIP3    H130296   1.086   2.540  14.769  0.7865 -1.0628 -0.3803
 2935TIP3    H230297   1.121   2.581  14.911 -1.3895 -0.1171 -0.0970
 2936TIP3   OH230298   2.386   4.885  16.860 -0.2728  0.7351 -0.1914
 2936TIP3    H130299   2.480   4.874  16.872 -0.0485 -0.8013 -2.8753
 2936TIP3    H230300   2.349   4.800  16.883 -0.8111  0.7920 -0.8288
 2937TIP3   OH230301   5.162   6.763   4.264  0.4681 -0.2775 -0.0486
 2937TIP3    H130302   5.159   6.839   4.322 -0.2654 -0.1272 -0.2758
 2937TIP3    H230303   5.219   6.790   4.192  1.5382 -0.5342  0.6899
 2938TIP3   OH230304   5.422   3.666  11.535 -0.6695  0.0818 -0.4208
 2938TIP3    H130305   5.483   3.628  11.598  1.5691 -1.3197 -3.3573
 2938TIP3    H230306   5.452   3.757  11.525 -0.7225  0.1623  0.1295
 2939TIP3   OH230307   6.668   3.598  16.847  0.2478  0.2878  0.0244
 2939TIP3    H130308   6.609   3.640  16.784 -0.3102 -0.9159 -0.2868
 2939TIP3    H230309   6.742   3.657  16.854 -0.9973  1.8398  0.4299
 2940TIP3   OH230310   5.555   0.925   3.638  0.0395  0.3410  0.8469
 2940TIP3    H130311   5.584   0.966   3.556 -1.0160 -2.3741 -0.9498
 2940TIP3    H230312   5.479   0.977   3.665 -0.0937  0.7727 -0.3292
 2941TIP3   OH230313   3.872   0.740  13.205 -0.5399  0.9110 -0.1516
 2941TIP3    H130314   3.783   0.771  13.223  0.0177  0.6484  3.2991
 2941TIP3    H230315   3.867   0.705  13.116 -3.7781  1.3193 -0.2027
 2942TIP3   OH230316   4.036   4.429  13.511  0.4254 -0.0174 -0.1504
 2942TIP3    H130317   4.003   4.454  13.597 -1.7730 -1.3620 -0.5655
 2942TIP3    H230318   4.131   4.429  13.520  0.3339  3.4404  1.2261
 2943TIP3   OH230319   3.204   4.815   0.241 -0.5278  0.1654  0.0527
 2943TIP3    H130320   3.288   4.814   0.196  0.3947 -2.8824  1.6956
 2943TIP3    H230321   3.224   4.844   0.330 -1.3548  0.3273  0.1921
 2944TIP3   OH230322   0.437   4.278  10.498  0.5492 -0.0497  0.3315
 2944TIP3    H130323   0.434   4.195  10.451  0.0008  0.7549 -1.1004
 2944TIP3    H230324   0.346   4.307  10.501  1.0143  1.7012 -1.4135
 2945TIP3   OH230325   4.483   4.988  13.634 -0.1081 -0.1501 -0.1968
 2945TIP3    H130326   4.442   4.997  13.548  1.3175  0.4346 -0.8301
 2945TIP3    H230327   4.437   4.915  13.675 -0.3375 -0.8931 -1.7319
 2946TIP3   OH230328   2.249   4.206   0.033 -0.1038  0.1439 -0.3533
 2946TIP3    H130329   2.187   4.209   0.106  0.2523 -1.5321  0.0402
 2946TIP3    H230330   2.225   4.126  -0.015  1.7076 -0.5007 -0.2195
 2947TIP3   OH230331   0.077   5.879  17.058  0.1523  0.1471 -0.1398
 2947TIP3    H130332   0.059   5.973  17.050 -1.2938 -0.2614 -2.0848
 2947TIP3    H230333   0.006   5.846  17.114 -0.1629 -0.0045 -0.6203
 2948TIP3   OH230334   3.981   4.416   4.279 -0.0179 -0.4590  0.2118
 2948TIP3    H130335   3.929   4.352   4.328 -0.9589 -0.1122 -0.3210
 2948TIP3    H230336   4.070   4.404   4.312 -0.5612 -0.4901  1.7527
 2949TIP3   OH230337   0.738   0.708   6.753  0.0812 -0.6085  0.0213
 2949TIP3    H130338   0.828   0.679   6.766  0.4869 -0.0302 -1.4289
 2949TIP3    H230339   0.746   0.799   6.725 -0.9513 -0.5931 -0.2483
 2950TIP3   OH230340   4.332   5.627   5.444 -0.2562 -0.0645  0.4269
 2950TIP3    H130341   4.245   5.602   5.478 -0.6384  0.7551  0.0588
 2950TIP3    H230342   4.322   5.718   5.416  0.7836  0.0955  0.5636
 2951TIP3   OH230343   4.443   3.481   0.130 -0.1120 -0.2807  0.1996
 2951TIP3    H130344   4.408   3.410   0.184 -1.1258  1.1377  1.4736
 2951TIP3    H230345   4.529   3.499   0.168  0.2246 -0.9484 -0.2449
 2952TIP3   OH230346   5.901   1.156  13.344 -0.1495 -0.7729 -0.1913
 2952TIP3    H130347   5.926   1.092  13.411  0.3693 -0.9261 -0.5310
 2952TIP3    H230348   5.868   1.103  13.271 -2.3252 -0.5530  0.5869
 2953TIP3   OH230349   0.688   4.751   1.656 -0.2081 -0.3036  0.5013
 2953TIP3    H130350   0.630   4.681   1.685 -0.1370 -0.0145  1.3359
 2953TIP3    H230351   0.675   4.755   1.561 -0.0727 -1.5719  0.4272
 2954TIP3   OH230352   0.448   4.870   1.138 -0.4335 -0.2033  0.0471
 2954TIP3    H130353   0.373   4.819   1.107 -1.0593  0.5443  0.3196
 2954TIP3    H230354   0.421   4.961   1.127 -0.7314  0.0884  2.9393
 2955TIP3   OH230355   6.749   0.832   5.192  0.1131 -0.1036 -0.3247
 2955TIP3    H130356   6.653   0.829   5.195  0.1081 -1.4779 -1.4194
 2955TIP3    H230357   6.773   0.881   5.271 -1.5699  2.5539 -1.3548
 2956TIP3   OH230358   5.581   0.978   4.658  0.4071 -0.3021  0.2525
 2956TIP3    H130359   5.639   0.934   4.596 -0.0751 -1.3343  0.5283
 2956TIP3    H230360   5.507   1.007   4.604  1.0809  0.8550 -0.0673
 2957TIP3   OH230361   0.821   4.613  11.718 -0.1225 -0.2091  0.5526
 2957TIP3    H130362   0.917   4.606  11.722 -0.2314 -1.0105  2.0840
 2957TIP3    H230363   0.790   4.530  11.754 -1.4063  0.4135  0.8749
 2958TIP3   OH230364   2.564   5.176  14.181 -0.1828 -0.1241 -0.1857
 2958TIP3    H130365   2.511   5.097  14.191  0.2129 -0.3827 -0.1315
 2958TIP3    H230366   2.648   5.154  14.221 -1.2348  1.5351  3.1107
 2959TIP3   OH230367   2.010   6.773  12.459  0.1867 -0.4025  0.1484
 2959TIP3    H130368   2.030   6.855  12.415 -1.5023  0.4790  0.9345
 2959TIP3    H230369   2.094   6.738  12.486  0.8585  1.6769  0.8373
 2960TIP3   OH230370   2.233   3.677  16.329 -0.1137  0.3530  0.6554
 2960TIP3    H130371   2.147   3.720  16.326 -0.2389 -0.0006 -1.0716
 2960TIP3    H230372   2.219   3.601  16.385 -0.3663  1.4842  2.1677
 2961TIP3   OH230373   2.870   3.032  11.690  0.2468 -0.6961  0.3213
 2961TIP3    H130374   2.784   3.027  11.730  1.4403 -1.9752  2.8404
 2961TIP3    H230375   2.895   2.941  11.675  0.9506 -0.3184 -0.9229
 2962TIP3   OH230376   6.489   5.834   3.138  0.2986 -0.4350 -0.0433
 2962TIP3    H130377   6.535   5.844   3.221  0.0012 -2.0708  0.3396
 2962TIP3    H230378   6.554   5.797   3.078 -0.3434 -2.3901  0.3963
 2963TIP3   OH230379   3.719   2.601  14.539  0.1730 -0.0031 -0.7865
 2963TIP3    H130380   3.650   2.539  14.565  0.3864 -0.8044 -2.0996
 2963TIP3    H230381   3.718   2.667  14.608 -1.7668 -0.1185 -0.6579
 2964TIP3   OH230382   4.246   1.267  12.236 -0.0376 -0.0538  0.0340
 2964TIP3    H130383   4.270   1.357  12.260 -2.3575  1.0173 -1.5379
 2964TIP3    H230384   4.200   1.233  12.313  2.4723 -0.5912  1.3528
 2965TIP3   OH230385   1.675   0.860   6.618  0.1633 -0.0619 -0.0392
 2965TIP3    H130386   1.700   0.921   6.687  0.0935 -0.5195  0.3840
 2965TIP3    H230387   1.753   0.808   6.602  0.4019  0.5125 -0.8021
 2966TIP3   OH230388   2.856   3.570  17.124 -0.0278  0.6154 -0.5017
 2966TIP3    H130389   2.925   3.635  17.137 -0.0735  1.0658 -2.4225
 2966TIP3    H230390   2.829   3.580  17.033 -2.8121  0.6188  0.2608
 2967TIP3   OH230391   0.761   6.389  12.128  0.1445 -0.0960 -0.1239
 2967TIP3    H130392   0.801   6.336  12.198  0.3987  1.3056  0.8194
 2967TIP3    H230393   0.736   6.470  12.171 -1.1093  0.1853 -1.3549
 2968TIP3   OH230394   6.618   0.998   5.929 -0.1125  0.2329 -0.4397
 2968TIP3    H130395   6.658   0.911   5.923  1.1855  0.7958 -0.3315
 2968TIP3    H230396   6.663   1.049   5.861 -0.0532  1.1080  0.2471
 2969TIP3   OH230397   3.657   1.081   0.108 -0.1972  0.1585  0.1927
 2969TIP3    H130398   3.694   1.135   0.039 -0.6487  2.0509  1.4077
 2969TIP3    H230399   3.734   1.045   0.153  0.1063  0.1717 -0.3101
 2970TIP3   OH230400   5.901   6.732   4.215  0.2347  0.5157  0.6046
 2970TIP3    H130401   5.855   6.712   4.134  0.8679  0.7355  0.1837
 2970TIP3    H230402   5.840   6.787   4.265 -1.2368 -1.8594  1.4815
 2971TIP3   OH230403   5.108   1.085  13.570 -0.0969 -0.0218 -0.0991
 2971TIP3    H130404   5.069   1.066  13.655 -1.2319  0.5640 -0.4840
 2971TIP3    H230405   5.074   1.172  13.547 -0.0820 -0.3321 -1.3142
 2972TIP3   OH230406   2.500   4.258   2.301 -0.1873  0.1539 -0.4064
 2972TIP3    H130407   2.437   4.272   2.371  0.2706  0.8838 -0.1356
 2972TIP3    H230408   2.499   4.163   2.286 -0.1372 -0.0279  0.7179
 2973TIP3   OH230409   1.682   1.603  16.379  0.1581 -0.2772 -0.1923
 2973TIP3    H130410   1.749   1.609  16.447 -0.8679  0.1114  0.8027
 2973TIP3    H230411   1.679   1.691  16.340  0.8988 -0.5593 -0.8961
 2974TIP3   OH230412   0.900   0.054  12.796 -0.4134  0.2288 -0.2312
 2974TIP3    H130413   0.898   0.144  12.829  1.4533  0.9087 -1.8593
 2974TIP3    H230414   0.922   0.063  12.703  1.4919 -1.9867 -0.0507
 2975TIP3   OH230415   4.213   3.116  15.562  0.4038  0.1157 -0.2170
 2975TIP3    H130416   4.220   3.210  15.577  0.0185  0.7737 -3.6056
 2975TIP3    H230417   4.296   3.092  15.521 -0.0644 -0.7176 -0.6966
 2976TIP3   OH230418   1.339   6.147   3.792  0.1355  0.7986  0.1906
 2976TIP3    H130419   1.406   6.079   3.793  0.7510  1.3536 -1.3025
 2976TIP3    H230420   1.256   6.099   3.792  0.5512 -0.1206 -4.4450
 2977TIP3   OH230421   4.473   4.301  15.218  0.5986 -0.4575  0.6354
 2977TIP3    H130422   4.528   4.240  15.267  1.5077  1.1226  1.6470
 2977TIP3    H230423   4.445   4.252  15.141  2.9783 -1.5220  0.3869
 2978TIP3   OH230424   5.397   6.567  10.775  0.1473 -0.0260 -0.1312
 2978TIP3    H130425   5.348   6.644  10.743 -0.6765 -0.3009  0.4458
 2978TIP3    H230426   5.333   6.518  10.826  1.5359  0.6446  2.3634
 2979TIP3   OH230427   5.072   3.589   0.713 -0.0099  0.6697 -0.0099
 2979TIP3    H130428   5.083   3.564   0.805 -1.3993 -1.4199 -0.3497
 2979TIP3    H230429   4.984   3.627   0.709 -0.0284  0.5795 -0.4995
 2980TIP3   OH230430   0.895   5.424   4.382  0.0713  0.6865  0.1664
 2980TIP3    H130431   0.950   5.349   4.362 -0.1263  0.6093 -0.0910
 2980TIP3    H230432   0.863   5.408   4.471 -0.0595  0.4098  0.0708
 2981TIP3   OH230433   1.335   0.455  14.494 -0.3453  0.3488  0.4336
 2981TIP3    H130434   1.356   0.430  14.404 -0.0609  0.0394  0.5878
 2981TIP3    H230435   1.416   0.491  14.530 -0.2478 -0.2577  0.8209
 2982TIP3   OH230436   4.225   0.104   2.241  0.4072 -0.7220 -0.2485
 2982TIP3    H130437   4.180   0.179   2.280 -1.2894 -0.7936 -2.0303
 2982TIP3    H230438   4.317   0.130   2.239 -0.1495  1.2853 -0.7463
 2983TIP3   OH230439   2.496   4.569   5.976 -0.3303 -0.5803 -0.0069
 2983TIP3    H130440   2.515   4.589   6.068  0.7541  0.0153 -0.3485
 2983TIP3    H230441   2.579   4.586   5.930 -0.7721 -1.1810 -1.0454
 2984TIP3   OH230442   4.981   6.521   5.270 -0.3600  0.3030 -0.2077
 2984TIP3    H130443   5.055   6.580   5.285  1.7427 -2.5732  1.1659
 2984TIP3    H230444   4.946   6.503   5.357 -1.9205  0.6598 -0.7487
 2985TIP3   OH230445   6.514   1.805  11.342 -0.5067 -0.0512 -0.0545
 2985TIP3    H130446   6.534   1.875  11.280 -0.1611  1.6761  1.9092
 2985TIP3    H230447   6.599   1.771  11.368 -0.6303 -0.5027 -0.2392
 2986TIP3   OH230448   2.527   0.862   5.996  0.2022  0.1068  0.2244
 2986TIP3    H130449   2.477   0.784   5.972  0.6715  0.1977 -1.0991
 2986TIP3    H230450   2.512   0.873   6.090  1.1524 -2.3115  0.6836
 2987TIP3   OH230451   3.460   5.779  16.942 -0.5166 -0.7407 -0.1815
 2987TIP3    H130452   3.417   5.795  16.858  0.0566  0.1198 -0.3165
 2987TIP3    H230453   3.392   5.738  16.996 -0.8892 -1.2995 -1.0575
 2988TIP3   OH230454   3.563   0.564  10.669  0.3675 -0.0257  0.1152
 2988TIP3    H130455   3.592   0.517  10.591  0.9203  0.6643 -0.1064
 2988TIP3    H230456   3.547   0.496  10.734  3.6793 -0.3909  0.6440
 2989TIP3   OH230457   6.185   4.041   6.773 -0.3109 -0.3432 -0.4490
 2989TIP3    H130458   6.213   4.130   6.796 -2.4964  0.1229  0.5431
 2989TIP3    H230459   6.197   4.036   6.678 -0.2963  1.0592 -0.5350
 2990TIP3   OH230460   5.622   0.270   3.077 -0.4935 -0.2364 -0.3915
 2990TIP3    H130461   5.687   0.204   3.104 -1.5622 -1.3025 -0.3959
 2990TIP3    H230462   5.538   0.233   3.102 -0.9577  2.4006  2.2348
 2991TIP3   OH230463   4.895   5.961  16.810  0.4208  0.4893  0.1629
 2991TIP3    H130464   4.903   5.947  16.905 -1.6971 -0.0925  0.2802
 2991TIP3    H230465   4.959   5.900  16.771  0.9224  0.3460  1.1891
 2992TIP3   OH230466   4.643   2.791  14.548 -0.2819 -0.5357 -0.1489
 2992TIP3    H130467   4.645   2.838  14.631  0.7738  1.0820 -1.0464
 2992TIP3    H230468   4.630   2.700  14.572 -0.8313  0.0164  1.7386
 2993TIP3   OH230469   6.750   3.570   4.002 -0.2775 -0.3430 -0.6540
 2993TIP3    H130470   6.696   3.500   3.965 -0.0114 -0.6564 -0.4562
 2993TIP3    H230471   6.840   3.545   3.980 -0.2094  0.1493 -0.9404
 2994TIP3   OH230472   0.931   3.048  13.754 -0.4479  0.2016  0.5038
 2994TIP3    H130473   0.863   3.016  13.695 -0.3711 -0.4555  0.7700
 2994TIP3    H230474   0.941   3.141  13.730 -2.1012  0.5582  1.1282
 2995TIP3   OH230475   2.821   0.018  17.052  0.4557 -0.3277  0.6033
 2995TIP3    H130476   2.893  -0.008  16.994 -0.1006 -0.2169 -0.1347
 2995TIP3    H230477   2.827   0.113  17.057 -0.6845 -0.1654 -0.8326
 2996TIP3   OH230478   0.989   6.059  16.290 -0.1957  0.2877  0.4782
 2996TIP3    H130479   1.031   6.116  16.225  1.1868 -2.5629 -1.2070
 2996TIP3    H230480   0.997   6.107  16.373  0.4228  2.7786 -0.9797
 2997TIP3   OH230481   3.251   3.452   2.193  0.1358  0.2945 -0.1738
 2997TIP3    H130482   3.198   3.483   2.120 -1.0708 -1.0420  0.1239
 2997TIP3    H230483   3.312   3.389   2.153  1.8273  2.1275 -0.5857
 2998TIP3   OH230484   2.489   6.813   2.962  0.1637  0.0592 -0.2666
 2998TIP3    H130485   2.395   6.827   2.976  0.5540  1.0942  1.3936
 2998TIP3    H230486   2.494   6.776   2.874 -1.7829  0.2237 -0.4763
 2999TIP3   OH230487   0.586   6.294   1.585  0.4709  0.2715  0.3051
 2999TIP3    H130488   0.647   6.303   1.658 -0.8595  0.2903  1.4605
 2999TIP3    H230489   0.587   6.379   1.542  0.9573  0.3971  0.5592
 3000TIP3   OH230490   5.329   0.450  13.502  0.4342  0.1252  0.6423
 3000TIP3    H130491   5.408   0.427  13.453  0.7919  1.6425  0.4914
 3000TIP3    H230492   5.343   0.411  13.588  1.6063  0.8347  0.7927
 3001TIP3   OH230493   1.831   1.828  15.202  0.3437  0.3172 -0.0661
 3001TIP3    H130494   1.797   1.774  15.131 -1.3796 -0.0565  1.0228
 3001TIP3    H230495   1.923   1.803  15.209  0.4769  0.1920 -2.0001
 3002TIP3   OH230496   3.791   5.573  16.742 -0.2073 -0.0851  0.0282
 3002TIP3    H130497   3.758   5.659  16.714  1.1325  1.1136  1.9747
 3002TIP3    H230498   3.869   5.594  16.794  0.6039 -2.5444 -0.1510
 3003TIP3   OH230499   2.501   6.418  12.580  0.1052  0.5519  0.4574
 3003TIP3    H130500   2.482   6.361  12.654  0.5827  0.3356  0.4118
 3003TIP3    H230501   2.527   6.501  12.620  2.2318 -0.1380  0.5743
 3004TIP3   OH230502   5.606   4.907  11.531  0.5215 -0.3812  0.1777
 3004TIP3    H130503   5.576   4.878  11.445 -0.4163 -1.4791  0.8616
 3004TIP3    H230504   5.695   4.937  11.516  0.5825 -1.1315 -1.0744
 3005TIP3   OH230505   2.757   4.934  11.142  0.1109 -0.0994 -0.3153
 3005TIP3    H130506   2.773   4.942  11.048  2.1854  1.0570  0.1149
 3005TIP3    H230507   2.755   5.025  11.174 -1.5544 -0.4328  0.6221
 3006TIP3   OH230508   5.243   1.796   1.268  0.2278 -0.5987 -0.0074
 3006TIP3    H130509   5.232   1.731   1.338 -0.3064  0.1321  0.6079
 3006TIP3    H230510   5.244   1.745   1.187 -2.2322 -1.2226  0.3103
 3007TIP3   OH230511   4.333   4.534   4.601  0.8310  0.3292  0.1955
 3007TIP3    H130512   4.313   4.454   4.552  0.7224 -1.1245  2.5408
 3007TIP3    H230513   4.417   4.517   4.642  2.4310  2.7444 -1.9273
 3008TIP3   OH230514   3.095   1.303   4.740  0.8688  0.9035  0.1373
 3008TIP3    H130515   3.130   1.322   4.653  0.6913 -1.6138 -0.5334
 3008TIP3    H230516   3.114   1.210   4.754 -0.9142  0.7645  1.9372
 3009TIP3   OH230517   6.806   3.282  17.286 -0.4683 -0.4168  0.3659
 3009TIP3    H130518   6.832   3.283  17.194  1.3936  3.2014  0.8436
 3009TIP3    H230519   6.875   3.232  17.330  1.1027  1.7153  0.3930
 3010TIP3   OH230520   0.404   2.733  11.101 -0.5211  0.2027 -0.2071
 3010TIP3    H130521   0.425   2.822  11.073  4.2713 -0.4290  0.9547
 3010TIP3    H230522   0.397   2.683  11.020 -0.5730  1.1215 -0.7688
 3011TIP3   OH230523   5.207   1.751   0.239 -0.3156 -0.2541  0.2674
 3011TIP3    H130524   5.114   1.729   0.245 -0.3135 -0.3392  0.0050
 3011TIP3    H230525   5.226   1.797   0.321 -0.6212 -0.1210  0.2652
 3012TIP3   OH230526   6.300   4.989   0.813 -0.1589  0.0606 -0.3811
 3012TIP3    H130527   6.300   4.893   0.819 -0.2329  0.1302  0.8709
 3012TIP3    H230528   6.228   5.008   0.752 -1.2236 -0.6264  0.6220
 3013TIP3   OH230529   3.661   5.925   2.014  0.0802 -0.2222  0.4518
 3013TIP3    H130530   3.630   5.870   1.942 -1.0406  0.9979 -0.0147
 3013TIP3    H230531   3.582   5.960   2.054  0.7336 -0.0228  1.6030
 3014TIP3   OH230532   3.499   3.795  12.436 -0.2601 -0.2141  0.0868
 3014TIP3    H130533   3.507   3.869  12.496  1.5023  0.4573 -0.9443
 3014TIP3    H230534   3.548   3.724  12.478 -2.2957 -0.9657  1.2747
 3015TIP3   OH230535   0.295   1.825   3.903 -0.1693 -0.3249  0.8780
 3015TIP3    H130536   0.347   1.815   3.982 -0.8713 -5.5294  0.8447
 3015TIP3    H230537   0.359   1.836   3.833  0.5062  1.8574  1.7739
 3016TIP3   OH230538   0.800   0.383  11.823 -0.0128  0.0431 -0.2323
 3016TIP3    H130539   0.878   0.417  11.866 -0.1105 -0.0180 -0.0005
 3016TIP3    H230540   0.735   0.454  11.832  0.6685  0.9549 -2.3372
 3017TIP3   OH230541   5.998   3.224   2.975 -0.4408 -0.0186  0.0653
 3017TIP3    H130542   6.012   3.130   2.986 -0.3318 -0.2936 -2.1316
 3017TIP3    H230543   5.945   3.250   3.050 -0.4086 -1.8301  0.7260
 3018TIP3   OH230544   6.472   3.874   5.832 -0.9290 -0.6659  0.3566
 3018TIP3    H130545   6.389   3.920   5.849 -1.5679 -1.4466 -0.6168
 3018TIP3    H230546   6.505   3.914   5.752 -1.0153 -1.2633  0.0250
 3019TIP3   OH230547   1.852   5.394   0.050 -0.1099 -0.1175  0.2081
 3019TIP3    H130548   1.818   5.384  -0.039 -1.9995  1.0881  0.7611
 3019TIP3    H230549   1.894   5.480   0.050  0.2994 -0.3188  0.3433
 3020TIP3   OH230550   5.299   6.294   4.628  0.0847 -0.0402 -0.2602
 3020TIP3    H130551   5.303   6.368   4.688 -0.4608 -0.0172 -0.2522
 3020TIP3    H230552   5.358   6.318   4.556  1.6154 -0.5532  0.7942
 3021TIP3   OH230553   3.882   1.916  11.791 -0.0958  0.1646  0.2248
 3021TIP3    H130554   3.854   2.007  11.791 -1.8737 -0.3609  1.3787
 3021TIP3    H230555   3.805   1.867  11.761  1.2666 -0.8559 -1.7522
 3022TIP3   OH230556   3.778   2.446   6.375 -0.0892 -0.1826  0.3534
 3022TIP3    H130557   3.863   2.467   6.414  0.8868 -0.4405 -1.6057
 3022TIP3    H230558   3.735   2.531   6.366  0.1372 -0.0003  0.9160
 3023TIP3   OH230559   3.376   2.810   6.229  0.2556 -0.3655 -0.4288
 3023TIP3    H130560   3.462   2.852   6.216  0.3638 -0.6832 -0.7512
 3023TIP3    H230561   3.315   2.864   6.179  0.4022 -0.6182 -0.8788
 3024TIP3   OH230562   6.759   1.572  15.239 -0.0208  0.0176 -0.0581
 3024TIP3    H130563   6.669   1.587  15.211 -1.2905 -4.2026  1.3810
 3024TIP3    H230564   6.751   1.540  15.329  2.6587 -2.6146 -0.6576
 3025TIP3   OH230565   4.494   0.723  15.002  0.2153 -0.2333 -0.6844
 3025TIP3    H130566   4.489   0.708  15.096  0.5553  2.2375 -0.2212
 3025TIP3    H230567   4.514   0.638  14.964 -1.2483 -1.5127  1.3547
 3026TIP3   OH230568   3.001   3.946  16.465 -0.0152  0.3144  0.4838
 3026TIP3    H130569   3.025   3.922  16.376  0.8916  0.3579  0.7158
 3026TIP3    H230570   3.052   3.888  16.521  0.7234  1.4496  1.0107
 3027TIP3   OH230571   4.401   5.522   2.618  0.5067  0.1123  0.2363
 3027TIP3    H130572   4.354   5.605   2.610  1.3920  0.5728 -0.3743
 3027TIP3    H230573   4.405   5.506   2.713  0.7141  0.9971  0.3829
 3028TIP3   OH230574   5.675   3.709   3.393  0.0879  0.2550 -0.0409
 3028TIP3    H130575   5.628   3.785   3.358  0.9397 -0.0281 -1.8422
 3028TIP3    H230576   5.627   3.686   3.473  0.3117  3.1636  0.9871
 3029TIP3   OH230577   6.059   4.383   1.661 -0.3412 -0.6194  0.2634
 3029TIP3    H130578   6.154   4.390   1.670 -0.3924 -0.2518  0.5003
 3029TIP3    H230579   6.025   4.407   1.747 -0.7315  0.9306 -0.3164
 3030TIP3   OH230580   1.531   0.606   4.336  0.8145 -0.0062 -0.3941
 3030TIP3    H130581   1.494   0.522   4.308 -2.5617  1.2845  0.0530
 3030TIP3    H230582   1.557   0.649   4.254 -0.6266 -0.0661 -0.8908
 3031TIP3   OH230583   0.226   5.158  16.919 -0.0931  0.2586 -0.4766
 3031TIP3    H130584   0.268   5.108  16.849 -0.2026 -0.2397 -0.1876
 3031TIP3    H230585   0.275   5.240  16.922 -0.0985  0.2883 -1.1515
 3032TIP3   OH230586   2.040   5.122  14.775  0.7221 -0.1053  0.0288
 3032TIP3    H130587   2.102   5.157  14.711  0.6790 -1.8312 -0.9798
 3032TIP3    H230588   1.954   5.140  14.738  0.7054 -1.6659 -0.7289
 3033TIP3   OH230589   5.922   6.183   4.915 -0.2264 -0.2125  0.4105
 3033TIP3    H130590   6.008   6.202   4.951  0.6668 -2.9917 -0.0913
 3033TIP3    H230591   5.937   6.170   4.822 -1.1618 -0.7451  0.3232
 3034TIP3   OH230592   0.317   6.155   0.045 -0.0045 -0.1154  0.3746
 3034TIP3    H130593   0.253   6.129   0.110 -0.9956  0.5630 -0.3136
 3034TIP3    H230594   0.370   6.222   0.088  0.2621 -0.6923  0.9501
 3035TIP3   OH230595   1.863   6.546   4.546  0.7413 -0.3287 -0.7245
 3035TIP3    H130596   1.857   6.457   4.512 -3.4642  0.5458 -2.5812
 3035TIP3    H230597   1.813   6.545   4.628  0.1171  0.4661 -1.0872
 3036TIP3   OH230598   0.816   4.128  15.513  0.3708 -0.7882  0.9180
 3036TIP3    H130599   0.770   4.172  15.442 -2.2077 -0.3289  2.7860
 3036TIP3    H230600   0.893   4.182  15.529 -1.9782  2.3624  2.1691
 3037TIP3   OH230601   4.454   5.450   3.752 -0.1254  0.4439  0.1366
 3037TIP3    H130602   4.540   5.409   3.765  0.3078  1.5035  0.7045
 3037TIP3    H230603   4.392   5.377   3.757  0.7527 -0.3614 -0.4785
 3038TIP3   OH230604   6.031   0.343  15.078 -0.1311  0.2430  0.0044
 3038TIP3    H130605   6.077   0.345  15.161  0.2229  1.2547 -0.2134
 3038TIP3    H230606   6.045   0.430  15.040 -2.0320  0.5021 -0.1545
 3039TIP3   OH230607   4.998   3.035   4.174  0.0717  0.0177  0.2105
 3039TIP3    H130608   4.987   3.093   4.249  0.6947 -0.2755  0.5269
 3039TIP3    H230609   5.089   3.007   4.178  0.4524  0.9774 -1.3665
 3040TIP3   OH230610   4.404   4.262   4.079 -0.1009  0.3117 -0.3044
 3040TIP3    H130611   4.472   4.199   4.104 -1.7564 -0.4670  2.4824
 3040TIP3    H230612   4.432   4.345   4.119  0.0994  0.4084 -0.6468
 3041TIP3   OH230613   0.784   5.043  14.565  0.0717 -0.6367  0.1070
 3041TIP3    H130614   0.865   5.003  14.595  0.8386  0.2815 -0.7338
 3041TIP3    H230615   0.746   5.083  14.643  1.6418  1.0347  0.0301
 3042TIP3   OH230616   0.734   5.133  15.474  0.1522 -0.2701 -0.0057
 3042TIP3    H130617   0.640   5.118  15.464  0.3066 -1.8347  0.7250
 3042TIP3    H230618   0.740   5.205  15.537 -0.5436 -1.6042  1.6276
 3043TIP3   OH230619   2.366   5.932   1.340  0.2027 -0.1258 -0.2325
 3043TIP3    H130620   2.279   5.926   1.380  0.3246  0.3211  0.1088
 3043TIP3    H230621   2.420   5.871   1.391  0.0882 -0.4059 -0.4468
 3044TIP3   OH230622   6.673   3.236  13.579 -0.2115 -0.2711  0.2856
 3044TIP3    H130623   6.605   3.282  13.530 -0.4230  1.3364  2.0457
 3044TIP3    H230624   6.752   3.249  13.527 -0.6411  0.5289 -0.1785
 3045TIP3   OH230625   3.739   0.381   5.315  0.8470 -0.3499  0.0070
 3045TIP3    H130626   3.797   0.318   5.359 -2.0587 -1.8629  1.7887
 3045TIP3    H230627   3.749   0.461   5.367  1.6823 -0.4494  0.0204
 3046TIP3   OH230628   4.221   2.163  15.711 -0.3675 -0.0282  0.2760
 3046TIP3    H130629   4.216   2.068  15.703  0.4043 -0.0793  0.3761
 3046TIP3    H230630   4.172   2.196  15.636 -0.3051 -0.5038  0.0248
 3047TIP3   OH230631   3.657   6.337  17.183  0.4442 -0.0419 -0.2556
 3047TIP3    H130632   3.604   6.403  17.228  2.7971 -0.1801  2.8872
 3047TIP3    H230633   3.612   6.254  17.199  1.2608 -0.0920  1.9981
 3048TIP3   OH230634   3.394   1.066   4.502 -0.3585  0.0064  0.2573
 3048TIP3    H130635   3.395   1.135   4.567  1.9281  0.2288  0.0281
 3048TIP3    H230636   3.486   1.055   4.477 -1.0203 -1.1053 -1.8190
 3049TIP3   OH230637   0.531   2.275  13.917  0.4821 -0.0518  0.4494
 3049TIP3    H130638   0.612   2.287  13.967  0.0830  0.1093  1.0539
 3049TIP3    H230639   0.466   2.326  13.964 -0.8143 -2.9733  1.9452
 3050TIP3   OH230640   0.473   4.017  14.396  0.0284  0.4577  0.1265
 3050TIP3    H130641   0.386   3.977  14.404 -0.0364  0.3320 -1.1097
 3050TIP3    H230642   0.466   4.076  14.321  0.6422  1.4305  0.8294
 3051TIP3   OH230643   1.107   2.441   4.821 -0.1831 -0.1034  0.5416
 3051TIP3    H130644   1.059   2.516   4.788 -1.5613 -1.0398  0.3952
 3051TIP3    H230645   1.117   2.458   4.915 -0.0891  0.4705  0.4269
 3052TIP3   OH230646   5.940   4.879   4.962 -0.3444 -0.0311  0.8515
 3052TIP3    H130647   5.978   4.966   4.951 -0.3112  0.1712  2.4443
 3052TIP3    H230648   5.846   4.892   4.957 -0.3546  0.1705  1.5360
 3053TIP3   OH230649   5.731   6.173  13.085 -0.5644  0.1652  0.1933
 3053TIP3    H130650   5.667   6.154  13.017  0.4410 -2.6648 -0.0175
 3053TIP3    H230651   5.687   6.150  13.167  0.1608 -1.9195  0.0381
 3054TIP3   OH230652   1.046   6.676  11.888  0.3571 -0.2534 -0.2322
 3054TIP3    H130653   0.957   6.641  11.896  0.2981  0.4556  2.7819
 3054TIP3    H230654   1.041   6.763  11.928  2.2657  0.0478 -0.6160
 3055TIP3   OH230655   4.197   5.671  14.476 -0.2133 -0.5166  0.1022
 3055TIP3    H130656   4.124   5.716  14.518  0.5574  0.1697  0.7363
 3055TIP3    H230657   4.275   5.701  14.524  0.7127  0.4264 -1.9022
 3056TIP3   OH230658   3.077   3.401  13.786 -0.1846  0.5417 -0.4599
 3056TIP3    H130659   3.144   3.454  13.744  0.3950  1.0456  1.0747
 3056TIP3    H230660   3.021   3.372  13.714  0.9055  1.2114 -1.5949
 3057TIP3   OH230661   4.221   6.788   0.397  0.4275 -0.5377  0.4407
 3057TIP3    H130662   4.279   6.749   0.331  0.5430  0.7335 -0.2226
 3057TIP3    H230663   4.139   6.739   0.387  0.7223 -0.9463 -0.0345
 3058TIP3   OH230664   2.928   4.674   6.112  0.3374  0.2826 -0.4106
 3058TIP3    H130665   2.845   4.635   6.142 -0.1479  1.1173 -0.6566
 3058TIP3    H230666   2.987   4.663   6.187  0.8440 -2.7563 -1.1811
 3059TIP3   OH230667   4.927   2.563   1.902 -0.1485  0.2984  0.4155
 3059TIP3    H130668   4.933   2.562   1.997  0.1560 -2.0743  0.4003
 3059TIP3    H230669   4.935   2.471   1.876  0.3008  0.9588 -1.9281
 3060TIP3   OH230670   4.761   0.118   1.984  0.3981  1.0204 -0.3342
 3060TIP3    H130671   4.692   0.066   1.941  1.4250  1.5814 -2.7610
 3060TIP3    H230672   4.831   0.055   2.000 -0.8425  0.3250  2.6616
 3061TIP3   OH230673   1.706   0.889   0.635  0.4317  0.5458 -0.6733
 3061TIP3    H130674   1.640   0.866   0.701 -0.3298 -0.1565 -1.6749
 3061TIP3    H230675   1.784   0.840   0.662  0.8549  2.1325  1.0627
 3062TIP3   OH230676   2.946   5.890   2.713 -0.1680 -0.5689 -0.0760
 3062TIP3    H130677   2.941   5.942   2.633  1.6529  2.7680  1.8422
 3062TIP3    H230678   3.001   5.815   2.690 -0.0872  0.0801 -2.0666
 3063TIP3   OH230679   5.083   5.109   6.305  0.3144  0.3988  0.0268
 3063TIP3    H130680   4.993   5.134   6.280  0.1071 -0.2113  0.1467
 3063TIP3    H230681   5.074   5.073   6.393  0.3584 -1.4941 -0.7154
 3064TIP3   OH230682   4.165   2.843   1.987  0.3570  0.0422 -0.3750
 3064TIP3    H130683   4.169   2.804   1.900  0.3557  0.2203 -0.4567
 3064TIP3    H230684   4.072   2.863   1.999 -0.0971 -2.6059  0.8493
 3065TIP3   OH230685   3.332   2.033   0.217 -0.1076  0.3653 -0.2400
 3065TIP3    H130686   3.376   2.110   0.253  0.9900 -0.2501 -0.2576
 3065TIP3    H230687   3.266   2.010   0.283  0.0474  0.8888  0.1008
 3066TIP3   OH230688   3.230   5.355   2.471 -0.1247  0.3874  0.1029
 3066TIP3    H130689   3.207   5.291   2.403 -1.3030  1.2372 -0.3225
 3066TIP3    H230690   3.236   5.438   2.424 -0.0069  0.8241  0.8824
 3067TIP3   OH230691   3.104   5.835   1.290 -0.1024  0.2826  0.7053
 3067TIP3    H130692   3.141   5.882   1.364 -0.0182  1.0981  0.1521
 3067TIP3    H230693   3.120   5.892   1.215  2.0026 -1.6055 -0.3507
 3068TIP3   OH230694   2.407   0.989   2.562  0.1370  0.8045 -0.2983
 3068TIP3    H130695   2.433   1.076   2.534  0.5806  1.0189  0.7640
 3068TIP3    H230696   2.358   1.003   2.643  0.6140  0.0378  0.1354
 3069TIP3   OH230697   6.464   6.349  12.262 -0.1061 -0.0236 -0.3614
 3069TIP3    H130698   6.495   6.407  12.332 -1.0043 -1.3530  1.1712
 3069TIP3    H230699   6.381   6.389  12.235 -0.3382 -0.1467  0.1496
 3070TIP3   OH230700   3.812   3.239   1.214 -0.0950  0.5100 -0.0756
 3070TIP3    H130701   3.897   3.279   1.233  0.2119  0.4077 -1.1937
 3070TIP3    H230702   3.774   3.295   1.146 -2.5302  2.6946  2.9284
 3071TIP3   OH230703   1.032   1.969   0.323  0.1953  0.5644  0.2919
 3071TIP3    H130704   0.939   1.947   0.320  0.2713  0.2157  0.5771
 3071TIP3    H230705   1.049   2.012   0.239 -0.2381  0.6883  0.2675
 3072TIP3   OH230706   1.627   1.811   1.284 -0.8121 -0.6598 -0.2910
 3072TIP3    H130707   1.576   1.889   1.264  0.4096 -0.1163 -1.3793
 3072TIP3    H230708   1.564   1.749   1.321 -1.7458  0.9068  0.7759
 3073TIP3   OH230709   5.211   4.393   5.909  0.2977 -0.1397  0.1381
 3073TIP3    H130710   5.117   4.381   5.899  0.2665 -1.4187  1.7065
 3073TIP3    H230711   5.249   4.313   5.871  0.8812  1.1809 -2.1814
 3074TIP3   OH230712   1.694   3.466  12.218  0.3898 -0.4494 -0.1409
 3074TIP3    H130713   1.634   3.540  12.228  1.0304  0.1036 -0.3575
 3074TIP3    H230714   1.639   3.388  12.230  0.0207  0.0806  1.7677
 3075TIP3   OH230715   3.133   0.858   0.884  0.5561 -0.1654  0.1911
 3075TIP3    H130716   3.047   0.893   0.862  1.0304  0.3217 -0.9220
 3075TIP3    H230717   3.163   0.815   0.803  1.2162 -0.6146  0.6684
 3076TIP3   OH230718   0.380   0.271   6.018  0.6077 -0.5264 -0.0747
 3076TIP3    H130719   0.354   0.362   6.000  0.5407 -0.5293  0.0034
 3076TIP3    H230720   0.452   0.279   6.080  0.8667 -0.5152 -0.3757
 3077TIP3   OH230721   4.055   1.122  11.168  0.0921 -0.4024  0.1468
 3077TIP3    H130722   4.005   1.171  11.103  0.7214 -1.2564 -0.9967
 3077TIP3    H230723   4.068   1.183  11.240  1.0836  1.1837 -1.3516
 3078TIP3   OH230724   3.818   4.303   0.961 -0.2686  0.2334 -0.2912
 3078TIP3    H130725   3.822   4.208   0.972  2.1659  0.4305  0.8749
 3078TIP3    H230726   3.812   4.338   1.050 -0.3439  1.1958 -0.6631
 3079TIP3   OH230727   1.039   6.211   3.669  0.2119 -0.1304  0.6488
 3079TIP3    H130728   1.126   6.233   3.636  0.2149 -0.7325  0.2413
 3079TIP3    H230729   1.041   6.116   3.678 -0.3579 -0.1293  0.7763
 3080TIP3   OH230730   4.877   3.433  10.777  0.2548 -0.2780 -0.5636
 3080TIP3    H130731   4.863   3.422  10.871  0.5749  0.7230 -0.3994
 3080TIP3    H230732   4.944   3.368  10.756 -0.0621 -0.7394 -0.1657
 3081TIP3   OH230733   1.105   6.419  11.588  0.8410 -0.5207  0.8691
 3081TIP3    H130734   1.161   6.490  11.618  0.2316  0.2506  0.2288
 3081TIP3    H230735   1.113   6.351  11.655  1.8036 -0.0459  1.2439
 3082TIP3   OH230736   1.712   6.562  15.088  0.6747  0.2227  0.3063
 3082TIP3    H130737   1.652   6.632  15.063  0.0543 -0.8211 -1.2038
 3082TIP3    H230738   1.704   6.556  15.183 -1.2618  0.4307  0.1726
 3083TIP3   OH230739   2.488   0.103  15.079  0.6764  0.1276  0.0376
 3083TIP3    H130740   2.562   0.092  15.019 -0.8143 -3.1341 -1.3181
 3083TIP3    H230741   2.413   0.120  15.021  0.1116  2.0995  1.3176
 3084TIP3   OH230742   4.941   0.714  16.652  0.2313  0.0727 -0.6462
 3084TIP3    H130743   5.036   0.707  16.660  0.2260  0.9012  0.2983
 3084TIP3    H230744   4.922   0.804  16.678 -0.9667 -0.5983  0.8630
 3085TIP3   OH230745   1.863   1.232   4.637  0.0097  0.5139 -0.7291
 3085TIP3    H130746   1.923   1.292   4.592 -1.4235  1.3689 -1.5378
 3085TIP3    H230747   1.919   1.162   4.669  1.8590  2.7056  0.9808
 3086TIP3   OH230748   3.477   6.538  17.176 -0.2190 -0.0253  0.3033
 3086TIP3    H130749   3.404   6.515  17.233 -1.5108  1.4604 -0.6909
 3086TIP3    H230750   3.437   6.583  17.102  1.6360  0.1194 -0.6680
 3087TIP3   OH230751   3.582   3.354  13.309 -0.4912 -0.3991  0.6677
 3087TIP3    H130752   3.642   3.419  13.347 -0.1807  0.6987 -1.6039
 3087TIP3    H230753   3.496   3.394  13.318 -0.6036 -0.8367  1.6034
 3088TIP3   OH230754   5.207   1.224  11.650  0.7929 -0.1383  0.1169
 3088TIP3    H130755   5.122   1.236  11.693  0.4240 -2.1034 -0.0422
 3088TIP3    H230756   5.222   1.307  11.604 -0.7082  0.4805  0.7022
 3089TIP3   OH230757   4.917   2.650  11.012  0.2289 -0.3974 -0.0071
 3089TIP3    H130758   4.899   2.731  10.965  1.9981  0.4775  0.7921
 3089TIP3    H230759   4.973   2.676  11.085 -0.1514 -2.1670  0.9442
 3090TIP3   OH230760   5.007   2.098  11.927 -0.2204 -0.3836  0.4944
 3090TIP3    H130761   5.040   2.188  11.926 -0.7317 -0.1959  0.0332
 3090TIP3    H230762   5.047   2.059  12.004 -1.3769  0.7618  1.6939
 3091TIP3   OH230763   6.579   2.170   4.888  0.0248 -0.0955 -0.0645
 3091TIP3    H130764   6.572   2.101   4.953  1.2058  0.2163  0.4024
 3091TIP3    H230765   6.534   2.136   4.811 -0.4982 -0.8664  0.5832
 3092TIP3   OH230766   3.917   5.660   4.789 -0.4724 -0.2070  0.0148
 3092TIP3    H130767   3.998   5.613   4.810 -0.8167 -0.9588 -0.3528
 3092TIP3    H230768   3.938   5.709   4.710 -0.2418 -0.0487  0.1705
 3093TIP3   OH230769   4.129   3.731   4.308  0.2034  0.8179 -0.4215
 3093TIP3    H130770   4.154   3.688   4.390 -1.7470  0.4388 -0.0107
 3093TIP3    H230771   4.123   3.659   4.245 -2.4136  0.5132  0.1135
 3094TIP3   OH230772   5.655   0.077  12.976 -0.0561 -0.0466 -0.3072
 3094TIP3    H130773   5.738   0.037  12.951  0.1537 -0.3269  0.8377
 3094TIP3    H230774   5.645   0.151  12.915  2.0045  1.2077  0.8460
 3095TIP3   OH230775   3.733   5.571   1.726 -0.3280 -0.5670 -0.8371
 3095TIP3    H130776   3.754   5.485   1.762 -0.5604 -0.3082 -0.0828
 3095TIP3    H230777   3.764   5.633   1.792 -0.9421 -0.0977 -0.9883
 3096TIP3   OH230778   0.991   5.517  16.082 -0.2531  0.3635 -0.5423
 3096TIP3    H130779   1.017   5.437  16.128 -0.6486 -0.4006 -1.6453
 3096TIP3    H230780   0.994   5.585  16.150 -0.0035 -0.5953  0.4249
 3097TIP3   OH230781   5.154   3.723   1.350  0.2684 -0.1041  0.4539
 3097TIP3    H130782   5.095   3.792   1.323 -0.5034 -1.3775 -1.2221
 3097TIP3    H230783   5.098   3.646   1.361  1.6109 -1.3746 -1.3226
 3098TIP3   OH230784   0.114   6.642  15.035 -0.3267  0.5622 -0.0969
 3098TIP3    H130785   0.172   6.715  15.054  1.4961 -0.8780 -0.0340
 3098TIP3    H230786   0.049   6.678  14.974  1.4205  1.8565 -1.2298
 3099TIP3   OH230787   3.833   4.252   1.580  0.2916 -0.0846 -0.1152
 3099TIP3    H130788   3.802   4.217   1.496  1.0968 -0.7750 -0.1397
 3099TIP3    H230789   3.923   4.281   1.562  0.6371 -0.6857  0.6193
 3100TIP3   OH230790   6.204   0.388  11.157  0.0925 -0.2449 -0.2063
 3100TIP3    H130791   6.293   0.422  11.160 -0.5626  1.4009  1.5228
 3100TIP3    H230792   6.166   0.427  11.078  1.1725 -1.7313 -1.4962
 3101TIP3   OH230793   6.608   6.614   2.188 -0.0387  0.7287 -0.1354
 3101TIP3    H130794   6.679   6.672   2.215  0.0848  0.4594  0.1189
 3101TIP3    H230795   6.561   6.663   2.120  1.6456  0.0884 -1.7941
 3102TIP3   OH230796   3.071   0.742  14.276 -0.0129  0.8691 -0.1837
 3102TIP3    H130797   2.999   0.713  14.332 -0.5332  1.2761 -0.6357
 3102TIP3    H230798   3.032   0.751  14.189  1.4666 -2.6255 -1.2717
 3103TIP3   OH230799   3.294   6.175   3.001  0.4233 -0.0855  0.0578
 3103TIP3    H130800   3.333   6.153   3.085  0.5833 -0.5647 -0.1383
 3103TIP3    H230801   3.203   6.149   3.009  0.4442 -0.1531  0.0772
 3104TIP3   OH230802   6.281   4.954  14.232 -0.9097 -0.4514  0.2903
 3104TIP3    H130803   6.339   4.909  14.170 -0.2052  0.4607  0.2889
 3104TIP3    H230804   6.339   5.009  14.284 -1.8585  0.9711 -0.1445
 3105TIP3   OH230805   5.505   6.591  12.931  0.1675  0.3445  0.4464
 3105TIP3    H130806   5.444   6.665  12.937 -0.3656 -0.0895  0.3846
 3105TIP3    H230807   5.581   6.627  12.886 -0.2452  0.7603  0.0739
 3106TIP3   OH230808   1.172   5.715   0.280 -0.5211 -0.5771 -0.4374
 3106TIP3    H130809   1.177   5.620   0.289 -0.4606 -0.5538 -0.2145
 3106TIP3    H230810   1.105   5.729   0.213 -0.8615 -0.7643 -0.1432
 3107TIP3   OH230811   5.844   4.984  14.540  0.7071  0.5229 -0.1137
 3107TIP3    H130812   5.851   4.986  14.635 -0.2835 -1.2590  0.0290
 3107TIP3    H230813   5.932   4.960  14.510 -0.3154 -5.0468  0.7491
 3108TIP3   OH230814   0.904   6.355   4.053 -0.1100  0.5568  0.0274
 3108TIP3    H130815   0.828   6.304   4.028 -0.4609  1.5687 -1.0090
 3108TIP3    H230816   0.867   6.436   4.090  0.4502  0.6519  0.3895
 3109TIP3   OH230817   4.429   4.963   3.424 -0.4488  0.5633 -0.2966
 3109TIP3    H130818   4.475   5.046   3.439 -0.8098  0.6397  0.3926
 3109TIP3    H230819   4.340   4.978   3.456 -0.2702 -0.3801  0.6959
 3110TIP3   OH230820   4.439   5.328   5.016 -0.1249  0.1461 -0.7985
 3110TIP3    H130821   4.448   5.307   5.109  2.4415 -0.7623 -1.2184
 3110TIP3    H230822   4.473   5.417   5.007  0.1018  0.0426 -0.9651
 3111TIP3   OH230823   0.430   0.400   0.468 -0.7008 -0.3648 -0.0195
 3111TIP3    H130824   0.489   0.382   0.541 -0.6465  2.7412  0.8006
 3111TIP3    H230825   0.488   0.403   0.391  0.0601  1.2414  0.5748
 3112TIP3   OH230826   4.629   2.570  13.516  0.0960  0.2860  0.7528
 3112TIP3    H130827   4.546   2.529  13.541  0.5333 -0.7719  0.4905
 3112TIP3    H230828   4.620   2.587  13.423  0.3352 -0.2464  0.6269
 3113TIP3   OH230829   5.466   3.040  13.915 -0.0343  0.0084 -0.0036
 3113TIP3    H130830   5.430   3.074  13.833  1.1305 -0.5584 -0.7674
 3113TIP3    H230831   5.440   3.105  13.981 -1.6535  0.0732 -0.6670
 3114TIP3   OH230832   4.286   5.085   1.650  0.0416  0.1962 -0.0252
 3114TIP3    H130833   4.221   5.091   1.720  1.3133 -0.9934  1.2974
 3114TIP3    H230834   4.332   5.169   1.652 -0.6092  0.5623 -0.1422
 3115TIP3   OH230835   0.404   2.262   5.937 -0.1238 -0.4207  0.0984
 3115TIP3    H130836   0.454   2.246   6.017  1.5648  1.2947 -0.5971
 3115TIP3    H230837   0.358   2.179   5.921  3.0077 -2.2961  0.3772
 3116TIP3   OH230838   2.100   4.413   1.424 -0.1756 -0.4512 -0.2225
 3116TIP3    H130839   2.144   4.411   1.339  0.1710 -2.5299 -0.0010
 3116TIP3    H230840   2.018   4.366   1.409 -0.2292 -0.6008  0.5436
 3117TIP3   OH230841   0.224   0.215  17.002  0.3813 -0.6144  0.1118
 3117TIP3    H130842   0.131   0.190  16.999  0.4138 -0.6301 -0.7816
 3117TIP3    H230843   0.231   0.271  17.079 -0.4711 -0.2260 -0.0892
 3118TIP3   OH230844   0.659   6.796  12.975  0.3669  0.1470  0.3277
 3118TIP3    H130845   0.657   6.708  13.012 -0.0336  0.2777  0.6272
 3118TIP3    H230846   0.742   6.801  12.928 -1.7538 -2.1117 -3.9186
 3119TIP3   OH230847   0.793   0.337  14.043  0.6672  0.1380 -0.1829
 3119TIP3    H130848   0.775   0.309  13.953  1.3980 -1.5402  0.1735
 3119TIP3    H230849   0.770   0.430  14.044 -2.3426 -0.5467 -1.2498
 3120TIP3   OH230850   0.269   5.749   3.146  0.5123  0.0822 -0.3571
 3120TIP3    H130851   0.230   5.722   3.229  0.5936 -0.3737 -0.4619
 3120TIP3    H230852   0.276   5.844   3.152  0.8952  0.0116  0.3132
 3121TIP3   OH230853   5.779   2.093  14.133  0.2101 -0.0873 -0.5059
 3121TIP3    H130854   5.720   2.169  14.133 -0.7074 -0.7745 -1.8827
 3121TIP3    H230855   5.855   2.122  14.082 -0.0340 -0.0049 -0.8268
 3122TIP3   OH230856   4.552   4.100   2.934  0.0022  0.1588  0.2765
 3122TIP3    H130857   4.551   4.178   2.990 -0.0302 -0.0985  0.6326
 3122TIP3    H230858   4.588   4.031   2.989 -1.4942 -0.4680  0.4820
 3123TIP3   OH230859   3.364   2.621   2.287 -0.5066  0.0792  0.0409
 3123TIP3    H130860   3.333   2.707   2.260  1.0008  1.1044  1.4617
 3123TIP3    H230861   3.372   2.626   2.382  2.5118 -0.5863 -0.1127
 3124TIP3   OH230862   3.224   5.200  13.420  0.0112 -0.1678 -0.2741
 3124TIP3    H130863   3.287   5.129  13.404 -0.8024 -0.6585 -1.3328
 3124TIP3    H230864   3.138   5.161  13.405 -0.4710  0.9141 -0.4333
 3125TIP3   OH230865   2.845   5.741  13.580 -0.1497  0.2138  0.0508
 3125TIP3    H130866   2.877   5.712  13.495 -0.0232 -0.8394  0.4564
 3125TIP3    H230867   2.750   5.738  13.572 -0.1456  0.7681 -0.2675
 3126TIP3   OH230868   2.655   6.415  15.398 -0.3738  0.2308  0.3598
 3126TIP3    H130869   2.745   6.405  15.370 -0.1066  0.5500  1.0717
 3126TIP3    H230870   2.644   6.353  15.470 -1.1722 -0.8861 -0.7047
 3127TIP3   OH230871   1.688   6.065  17.157  0.6668 -0.2202 -0.2719
 3127TIP3    H130872   1.704   5.972  17.168  2.4868 -0.2398 -2.8314
 3127TIP3    H230873   1.769   6.107  17.187 -0.4532  0.6377  1.6932
 3128TIP3   OH230874   2.873   5.654  12.146 -0.1074  0.2953  0.9192
 3128TIP3    H130875   2.898   5.653  12.238 -0.2116 -0.2857  0.9484
 3128TIP3    H230876   2.936   5.712  12.104  0.0915  0.3698  1.3156
 3129TIP3   OH230877   5.271   4.125   5.558  0.1938  0.2192 -0.6897
 3129TIP3    H130878   5.312   4.044   5.587 -1.5616 -0.0213  1.2810
 3129TIP3    H230879   5.276   4.183   5.634  1.2660  1.9217 -2.0152
 3130TIP3   OH230880   3.141   1.615  12.370 -0.3984  0.0369  0.7912
 3130TIP3    H130881   3.203   1.617  12.443 -0.5199  0.5716  0.8832
 3130TIP3    H230882   3.172   1.684  12.310 -0.5727 -0.0782  0.5664
 3131TIP3   OH230883   2.264   5.995  14.719 -0.3748  0.3262  0.1877
 3131TIP3    H130884   2.185   5.941  14.719 -0.1329 -0.0319 -0.7562
 3131TIP3    H230885   2.248   6.060  14.649  1.0633 -1.0846 -1.4960
 3132TIP3   OH230886   5.798   3.048  13.776 -0.3479  0.1962 -0.1305
 3132TIP3    H130887   5.874   2.996  13.749 -0.1961  0.2251  0.2336
 3132TIP3    H230888   5.820   3.078  13.864 -0.4096  0.9361 -0.3678
 3133TIP3   OH230889   2.449   0.116   1.629 -0.0497  0.2475 -0.3307
 3133TIP3    H130890   2.443   0.173   1.552 -1.9906  0.8980  0.2777
 3133TIP3    H230891   2.482   0.173   1.698 -0.5309  0.2470 -0.1020
 3134TIP3   OH230892   0.515   4.094  15.387  0.0950 -0.0225  0.1622
 3134TIP3    H130893   0.555   4.172  15.348  1.8046 -0.3152  1.2794
 3134TIP3    H230894   0.446   4.128  15.444 -0.0965  0.5791 -0.4190
 3135TIP3   OH230895   0.282   4.673  11.783  0.0771 -0.1284 -0.6566
 3135TIP3    H130896   0.253   4.621  11.708 -2.3867  0.8962 -0.4779
 3135TIP3    H230897   0.260   4.620  11.859 -0.8518  0.4083 -0.5409
 3136TIP3   OH230898   6.000   6.123  10.330 -0.5662  0.4107 -0.2896
 3136TIP3    H130899   6.061   6.196  10.344  1.3135 -1.4364  1.5724
 3136TIP3    H230900   6.046   6.065  10.268 -1.7656  0.4736 -1.2568
 3137TIP3   OH230901   5.079   1.649  11.500 -0.2075  0.1098 -0.1401
 3137TIP3    H130902   5.035   1.727  11.535 -0.2255  0.6058 -1.2456
 3137TIP3    H230903   5.012   1.604  11.448  0.2305  0.2159 -0.8127
 3138TIP3   OH230904   6.541   6.096   2.255 -0.2153 -0.4666  0.7170
 3138TIP3    H130905   6.613   6.099   2.191 -1.4101  1.3311 -0.5933
 3138TIP3    H230906   6.561   6.167   2.316 -0.0391 -1.0180  1.3098
 3139TIP3   OH230907   0.489   1.686  14.980 -0.1736  0.5460  0.0248
 3139TIP3    H130908   0.540   1.707  15.059 -1.3109 -1.7723  1.4301
 3139TIP3    H230909   0.422   1.755  14.976  0.2974  1.0589  0.7193
 3140TIP3   OH230910   5.190   0.962  13.357 -0.2437  0.1654  0.4689
 3140TIP3    H130911   5.233   0.883  13.390  1.5687  1.1998  0.6545
 3140TIP3    H230912   5.156   1.004  13.435 -1.2516 -0.4495  0.3664
 3141TIP3   OH230913   4.096   5.209  14.036 -0.4016 -0.3060 -0.2177
 3141TIP3    H130914   4.001   5.223  14.032 -0.5192 -0.7245  0.9698
 3141TIP3    H230915   4.130   5.290  14.073 -0.1769  0.2229 -1.5234
 3142TIP3   OH230916   0.707   1.588   3.031 -0.5234 -0.1661  0.4578
 3142TIP3    H130917   0.733   1.680   3.043  0.4062 -0.4372  0.5614
 3142TIP3    H230918   0.742   1.565   2.945 -1.9469 -0.0189 -0.1725
 3143TIP3   OH230919   4.305   3.451  13.825 -0.3299  0.0116 -0.7379
 3143TIP3    H130920   4.333   3.405  13.746  0.3668 -0.4628 -0.2203
 3143TIP3    H230921   4.381   3.503  13.851 -0.4915  0.0201 -0.2774
 3144TIP3   OH230922   4.945   5.044  14.940 -0.3393  0.4824 -0.1827
 3144TIP3    H130923   4.998   5.082  14.870 -2.0167  0.8402 -1.3115
 3144TIP3    H230924   4.945   5.111  15.009  2.6117 -0.5355  0.8446
 3145TIP3   OH230925   5.117   5.544   6.123 -0.3161 -0.0501 -0.1118
 3145TIP3    H130926   5.069   5.625   6.139 -1.7883 -0.9423  0.0533
 3145TIP3    H230927   5.110   5.495   6.205  0.7016 -0.2778 -0.1571
 3146TIP3   OH230928   0.406   4.757   2.960 -0.7425 -0.0717 -0.6332
 3146TIP3    H130929   0.331   4.787   2.908 -0.4367 -0.9789 -1.6123
 3146TIP3    H230930   0.474   4.739   2.895 -0.2688 -0.9637  0.1110
 3147TIP3   OH230931   3.170   1.809  11.389 -0.4285  0.9519 -0.2792
 3147TIP3    H130932   3.203   1.830  11.302 -1.0149 -0.5592 -0.8840
 3147TIP3    H230933   3.094   1.753  11.373  0.1984 -0.3709  1.2249
 3148TIP3   OH230934   4.376   0.650   3.156 -0.2994 -0.2080  0.2122
 3148TIP3    H130935   4.452   0.659   3.099  0.2170 -0.3844  0.8583
 3148TIP3    H230936   4.313   0.599   3.106 -0.2946  0.5882 -0.6159
 3149TIP3   OH230937   2.242   2.962   5.405 -0.3884 -0.5611 -0.0763
 3149TIP3    H130938   2.147   2.975   5.406 -0.1026  1.6880  0.5233
 3149TIP3    H230939   2.265   2.968   5.312 -0.5727  1.1641 -0.0341
 3150TIP3   OH230940   2.826   3.120   0.531 -0.5985 -0.1600 -0.4143
 3150TIP3    H130941   2.803   3.027   0.524  1.4948 -0.5959 -2.1462
 3150TIP3    H230942   2.787   3.159   0.454  0.0470  0.0433 -0.6429
 3151TIP3   OH230943   3.338   3.418   2.455 -0.3644  0.2091 -0.2460
 3151TIP3    H130944   3.386   3.498   2.477  0.6564  0.3629 -2.8982
 3151TIP3    H230945   3.296   3.438   2.371 -0.8050 -1.7456 -0.4996
 3152TIP3   OH230946   2.225   3.136   2.877 -0.3521 -0.1766 -0.0103
 3152TIP3    H130947   2.182   3.143   2.791 -1.3602  0.5617  0.5453
 3152TIP3    H230948   2.270   3.219   2.888  1.1209 -0.8806 -0.5107
 3153TIP3   OH230949   4.469   2.632   1.962 -0.2951  0.2489 -0.4179
 3153TIP3    H130950   4.457   2.721   1.994  0.4099  0.2329 -0.1003
 3153TIP3    H230951   4.535   2.639   1.893 -0.8686  0.0949 -0.9901
 3154TIP3   OH230952   2.480   3.990   2.284 -0.3435  0.3755  0.1217
 3154TIP3    H130953   2.552   3.953   2.232 -0.9801 -0.7623  0.0386
 3154TIP3    H230954   2.470   3.931   2.358 -1.5963  0.1849 -0.1846
 3155TIP3   OH230955   2.018   2.346  15.005 -0.7354  0.4342  0.1658
 3155TIP3    H130956   2.106   2.343  14.966 -0.7561  0.4609  0.1161
 3155TIP3    H230957   2.010   2.435  15.039 -1.4206  1.0006 -1.4213
 3156TIP3   OH230958   1.243   5.334   4.809  0.2837  0.0610 -0.1436
 3156TIP3    H130959   1.167   5.358   4.862  0.2078  0.3738 -0.3861
 3156TIP3    H230960   1.318   5.354   4.864  0.1756 -0.7427  0.2905
 3157TIP3   OH230961   5.654   5.882  12.587 -0.8232  0.0721  0.2918
 3157TIP3    H130962   5.711   5.858  12.514 -0.0433 -0.6509  1.1344
 3157TIP3    H230963   5.713   5.894  12.661 -1.4156  2.5172  0.4131
 3158TIP3   OH230964   5.356   2.637  14.352 -0.5110 -0.4748 -0.1933
 3158TIP3    H130965   5.334   2.659  14.262 -1.3673 -2.2374 -0.4317
 3158TIP3    H230966   5.273   2.644  14.399 -0.6761 -2.4114 -0.1397
 3159TIP3   OH230967   4.514   5.076  11.145  0.0751  0.4259 -0.2508
 3159TIP3    H130968   4.511   5.172  11.152 -0.2783  0.3644  0.4743
 3159TIP3    H230969   4.442   5.046  11.200 -1.0430 -0.1983 -2.0255
 3160TIP3   OH230970   6.373   3.807  12.518 -0.0176 -0.0735  0.1792
 3160TIP3    H130971   6.328   3.769  12.593 -1.1698  0.7122 -0.0914
 3160TIP3    H230972   6.344   3.756  12.443  0.9948 -0.7456  0.2389
 3161TIP3   OH230973   3.383   4.748   4.402 -0.1756 -0.4461  0.1743
 3161TIP3    H130974   3.395   4.836   4.438  1.3619 -1.0357  1.1934
 3161TIP3    H230975   3.462   4.732   4.351 -0.4689 -1.2072 -0.0524
 3162TIP3   OH230976   2.217   3.935   1.155 -0.2469 -0.1124 -0.1478
 3162TIP3    H130977   2.127   3.967   1.146 -0.4449 -0.4588  0.5350
 3162TIP3    H230978   2.238   3.948   1.247  1.1439  1.8596 -0.7225
 3163TIP3   OH230979   2.921   1.069  15.566 -0.1986 -0.1109 -0.4082
 3163TIP3    H130980   2.924   1.001  15.498  0.3448 -2.6073  1.9862
 3163TIP3    H230981   2.829   1.093  15.571 -0.2566  0.0309 -1.9572
 3164TIP3   OH230982   3.025   4.697   4.074 -0.2158  0.1351  0.6366
 3164TIP3    H130983   3.007   4.626   4.012  4.0966 -0.4289 -0.0822
 3164TIP3    H230984   3.082   4.658   4.140 -1.0060  1.9494  2.4792
 3165TIP3   OH230985   3.186   6.416  16.028 -0.3039  0.0117 -0.0726
 3165TIP3    H130986   3.138   6.357  15.970 -3.1677  1.9906  0.2295
 3165TIP3    H230987   3.136   6.416  16.109  1.4999  0.3350  1.0753
 3166TIP3   OH230988   6.279   3.915  13.155 -0.2114 -0.6423 -0.1372
 3166TIP3    H130989   6.263   3.866  13.074 -0.1321  0.3559 -0.7678
 3166TIP3    H230990   6.371   3.900  13.174 -0.2168 -0.8412 -0.2680
 3167TIP3   OH230991   5.344   5.999  14.725  0.0794  0.1300  0.1891
 3167TIP3    H130992   5.296   5.935  14.777 -1.9298  0.7872 -0.7815
 3167TIP3    H230993   5.286   6.018  14.652  2.3172  0.1423 -1.6511
 3168TIP3   OH230994   4.049   5.822   3.894 -0.6150 -0.0035 -0.9084
 3168TIP3    H130995   4.039   5.750   3.831 -1.7141 -1.1181  0.4909
 3168TIP3    H230996   3.959   5.852   3.910 -0.2351  1.0650 -0.7640
 3169TIP3   OH230997   0.042   6.287   0.462 -0.2964  0.1059 -0.3086
 3169TIP3    H130998  -0.020   6.298   0.534  1.3444 -0.3837  1.2157
 3169TIP3    H230999   0.091   6.369   0.459 -0.4686  0.1902 -0.9957
 3170TIP3   OH231000   6.705   5.790   2.705  0.3701  0.1301 -0.4163
 3170TIP3    H131001   6.695   5.714   2.648  0.6229 -1.1202  1.1572
 3170TIP3    H231002   6.764   5.848   2.658  1.0313 -1.1361 -1.1646
 3171TIP3   OH231003   1.273   3.497  16.322  0.5006 -0.4569  0.1527
 3171TIP3    H131004   1.248   3.413  16.362 -1.2443  0.0637  0.1958
 3171TIP3    H231005   1.307   3.473  16.235  0.9631 -1.2882  0.5593
 3172TIP3   OH231006   1.800   2.783   5.572  0.0224 -0.2793 -0.6308
 3172TIP3    H131007   1.771   2.768   5.662  0.7774  0.9857 -0.1553
 3172TIP3    H231008   1.723   2.766   5.518  0.0701 -2.9681  0.0696
 3173TIP3   OH231009   0.738   5.649  12.822  0.1208  0.0085 -0.2708
 3173TIP3    H131010   0.799   5.713  12.785  0.0546  0.4555  0.3767
 3173TIP3    H231011   0.766   5.565  12.786  0.7762  0.2859 -0.4167
 3174TIP3   OH231012   0.578   3.961   1.772 -0.2858  0.0139  0.6035
 3174TIP3    H131013   0.612   4.020   1.705  0.1434 -2.0125 -1.0213
 3174TIP3    H231014   0.500   3.922   1.733 -0.7654 -0.2290  1.7825
 3175TIP3   OH231015   4.883   5.847   2.697  0.6345  0.5099  0.0156
 3175TIP3    H131016   4.811   5.892   2.652 -0.5366 -0.2474  1.0685
 3175TIP3    H231017   4.961   5.872   2.650 -0.2646  1.8686 -0.7735
 3176TIP3   OH231018   0.107   1.061  12.136 -0.4350  0.5754  0.1697
 3176TIP3    H131019   0.165   1.117  12.084  0.1862 -1.4111 -1.3436
 3176TIP3    H231020   0.020   1.100  12.124  0.1030  1.7459 -0.1005
 3177TIP3   OH231021   5.692   4.335   4.095  0.0802 -0.1548 -0.1220
 3177TIP3    H131022   5.642   4.394   4.150  0.6106  0.8332 -0.6980
 3177TIP3    H231023   5.626   4.294   4.038 -0.3551 -0.5566  0.6658
 3178TIP3   OH231024   2.216   2.237   5.302  0.5984  0.1833  0.2310
 3178TIP3    H131025   2.193   2.160   5.249 -0.4930 -0.2994  1.3849
 3178TIP3    H231026   2.255   2.298   5.240  0.8273 -1.0305 -0.8307
 3179TIP3   OH231027   5.061   0.354  13.397 -1.0239 -0.1409  0.1638
 3179TIP3    H131028   5.147   0.392  13.378 -0.5863 -0.7298  0.9197
 3179TIP3    H231029   5.039   0.387  13.484 -1.6401  0.1467 -0.1018
 3180TIP3   OH231030   1.267   4.018  11.441 -0.4846 -0.4132  0.3877
 3180TIP3    H131031   1.341   3.966  11.410  0.3908  1.5209 -0.8187
 3180TIP3    H231032   1.282   4.106  11.407 -1.3465  0.9526  3.3263
 3181TIP3   OH231033   3.803   2.659  13.277 -0.4573 -0.1350 -0.5115
 3181TIP3    H131034   3.746   2.689  13.205  0.9382  0.7049 -1.2929
 3181TIP3    H231035   3.891   2.663  13.240  0.5026  2.3246  1.9170
 3182TIP3   OH231036   0.656   1.764  13.633  0.4607 -0.2168 -0.6248
 3182TIP3    H131037   0.561   1.770  13.629  0.6750  2.1427 -2.7080
 3182TIP3    H231038   0.681   1.711  13.557  0.9596  1.1761 -1.4486
 3183TIP3   OH231039   4.062   0.005  12.921  0.3193 -0.0123  0.3909
 3183TIP3    H131040   4.068   0.086  12.973  0.8679 -0.1087  0.4872
 3183TIP3    H231041   4.135   0.012  12.859 -1.2042  0.7901 -1.3659
 3184TIP3   OH231042   4.299   3.622   5.687 -0.1649 -0.1480  0.1184
 3184TIP3    H131043   4.368   3.563   5.715 -0.9765 -1.4874 -0.6313
 3184TIP3    H231044   4.254   3.647   5.767  0.4757 -0.1880  0.4873
 3185TIP3   OH231045   2.405   0.014  10.443 -0.4924 -0.0205  0.8283
 3185TIP3    H131046   2.353  -0.043  10.500 -1.6441  0.4628  0.2862
 3185TIP3    H231047   2.476  -0.042  10.411  1.5966  0.3403  4.5627
 3186TIP3   OH231048   6.344   3.047   0.181 -0.1817 -0.0769 -0.8071
 3186TIP3    H131049   6.353   3.114   0.249  1.7223 -1.2654  0.1564
 3186TIP3    H231050   6.250   3.041   0.166 -0.8142 -1.0065  3.0221
 3187TIP3   OH231051   6.738   2.826  11.066  0.1963  1.1269  0.1156
 3187TIP3    H131052   6.771   2.788  10.984 -0.6021 -1.6857  1.0564
 3187TIP3    H231053   6.654   2.865  11.042 -0.3589 -0.2914 -0.2795
 3188TIP3   OH231054   0.449   4.665   4.109 -0.4684 -0.2033 -0.8921
 3188TIP3    H131055   0.499   4.731   4.157 -1.5454  1.1887 -1.6215
 3188TIP3    H231056   0.381   4.636   4.170  1.6257 -2.6362  0.3546
 3189TIP3   OH231057   1.313   1.667  14.758 -0.3684 -0.0259 -0.4341
 3189TIP3    H131058   1.303   1.649  14.664 -0.6931  0.2877 -0.4581
 3189TIP3    H231059   1.313   1.580  14.798  1.5288 -0.2587 -0.8931
 3190TIP3   OH231060   3.314   2.514  11.346  0.4678 -0.1617  0.4734
 3190TIP3    H131061   3.285   2.603  11.324  0.6486  0.3215  2.0797
 3190TIP3    H231062   3.250   2.484  11.411  0.9699 -0.8154  0.6673
 3191TIP3   OH231063   2.027   4.823  11.329  0.4680 -0.2608 -0.6275
 3191TIP3    H131064   2.018   4.749  11.269  0.5222 -0.4843 -0.3580
 3191TIP3    H231065   2.068   4.891  11.276  1.7004 -0.8825 -0.5027
 3192TIP3   OH231066   0.147   0.993  14.453 -0.5179  0.0964  0.4550
 3192TIP3    H131067   0.071   0.960  14.502 -0.5389 -1.5872 -0.6599
 3192TIP3    H231068   0.126   0.974  14.361  0.9606  0.2256  0.0747
 3193TIP3   OH231069   4.047   1.327   2.336 -0.0988  0.3419 -0.3531
 3193TIP3    H131070   4.101   1.299   2.409 -0.1895 -0.1315 -0.4657
 3193TIP3    H231071   3.985   1.388   2.375 -1.0948 -1.0187  0.2551
 3194TIP3   OH231072   4.498   0.851  13.900 -0.5884  0.0014  0.0945
 3194TIP3    H131073   4.430   0.786  13.883  0.2012 -0.5609 -1.0241
 3194TIP3    H231074   4.556   0.809  13.964 -1.0467  0.3021  0.7045
 3195TIP3   OH231075   5.459   1.821  17.086 -0.0083  0.1844  0.0125
 3195TIP3    H131076   5.434   1.763  17.014  1.3732 -1.4111  0.7784
 3195TIP3    H231077   5.389   1.811  17.151 -1.7854  2.4073 -1.4878
 3196TIP3   OH231078   2.944   2.764   5.804 -0.5089 -0.3275 -0.0961
 3196TIP3    H131079   2.937   2.848   5.848 -0.4743 -0.5812  0.3928
 3196TIP3    H231080   3.032   2.763   5.767 -0.8079  0.2094 -0.8335
 3197TIP3   OH231081   1.648   2.381   4.174  0.0196  0.1371  0.6132
 3197TIP3    H131082   1.582   2.332   4.125  1.3664 -0.3480 -0.7283
 3197TIP3    H231083   1.681   2.319   4.239  0.2720 -0.1042  0.2544
 3198TIP3   OH231084   5.907   3.108   0.372 -0.5636 -0.1096  0.1562
 3198TIP3    H131085   5.857   3.127   0.292 -0.2260 -2.0624 -0.5405
 3198TIP3    H231086   5.998   3.131   0.349 -0.4015 -1.0678 -0.1595
 3199TIP3   OH231087   5.015   2.042   0.126 -0.1081  0.3953  0.0339
 3199TIP3    H131088   5.026   2.095   0.047 -0.0699  1.8272  0.9996
 3199TIP3    H231089   5.090   2.063   0.180 -0.9740  0.6318  1.1606
 3200TIP3   OH231090   2.688   2.820   4.418  0.5237 -0.4252 -0.0361
 3200TIP3    H131091   2.766   2.826   4.364 -0.0887  0.6842 -0.8219
 3200TIP3    H231092   2.646   2.906   4.409 -1.9114 -1.6922 -1.3485
 3201TIP3   OH231093   3.070   6.235   5.822 -0.3372  0.5476  0.3380
 3201TIP3    H131094   3.152   6.207   5.782 -0.1072 -0.2449  1.3324
 3201TIP3    H231095   3.092   6.315   5.869  0.0326 -0.0384  1.1741
 3202TIP3   OH231096   0.735   5.946   4.667 -0.6856 -0.1474  0.0792
 3202TIP3    H131097   0.788   5.913   4.595 -2.0553  0.5239 -1.2666
 3202TIP3    H231098   0.650   5.965   4.627 -1.6437 -0.3118  1.9897
 3203TIP3   OH231099   1.721   4.613   3.024 -0.3177 -0.5677 -0.2588
 3203TIP3    H131100   1.797   4.624   3.082 -0.4864  0.0274 -0.1442
 3203TIP3    H231101   1.701   4.520   3.029 -0.7818 -0.4109  1.2129
 3204TIP3   OH231102   6.452   1.991   5.068 -0.6907  0.1865  0.0959
 3204TIP3    H131103   6.378   2.044   5.098 -0.5324  0.3001  0.2817
 3204TIP3    H231104   6.526   2.020   5.120  0.2485  2.4740 -2.4101
 3205TIP3   OH231105   5.564   3.097   5.043  0.8032 -0.2861  0.0580
 3205TIP3    H131106   5.642   3.048   5.069  2.9281  3.2055  0.5549
 3205TIP3    H231107   5.588   3.138   4.959 -0.2409  1.3564  0.5401
 3206TIP3   OH231108   1.103   1.415  14.367 -0.0402 -0.4395  0.3429
 3206TIP3    H131109   1.166   1.470  14.413 -0.5642 -0.1761  0.7530
 3206TIP3    H231110   1.150   1.333  14.351  1.0268  0.4318 -1.0470
 3207TIP3   OH231111   5.191   5.805   5.897 -0.1556 -0.2598 -0.0786
 3207TIP3    H131112   5.210   5.790   5.804  0.5178  0.7191 -0.0974
 3207TIP3    H231113   5.097   5.788   5.905 -0.3295  0.2260 -1.0479
 3208TIP3   OH231114   6.026   0.143   3.870 -0.0010 -0.6170  0.5165
 3208TIP3    H131115   6.075   0.117   3.792  0.8892  0.1999  0.7869
 3208TIP3    H231116   6.094   0.164   3.935 -0.6778  1.3419  0.6265
 3209TIP3   OH231117   5.103   0.624  17.144 -0.4949  0.1142  0.1858
 3209TIP3    H131118   5.157   0.689  17.099  1.7222 -0.5711  1.8364
 3209TIP3    H231119   5.110   0.646  17.236  0.3856 -2.5489  0.7722
 3210TIP3   OH231120   5.655   5.654   3.967 -0.4981  0.3937 -0.4352
 3210TIP3    H131121   5.610   5.573   3.944 -1.2350  0.0035  2.2130
 3210TIP3    H231122   5.669   5.699   3.884 -0.7455 -2.0978 -1.8550
 3211TIP3   OH231123   5.230   2.291   5.454 -0.0957 -0.2561  0.0350
 3211TIP3    H131124   5.140   2.312   5.481 -0.0360  1.9998 -1.3807
 3211TIP3    H231125   5.267   2.246   5.530 -1.4567  1.5963  1.8862
 3212TIP3   OH231126   0.549   5.551  15.424  0.3621 -0.5480 -0.1534
 3212TIP3    H131127   0.475   5.495  15.448 -0.7283  0.5415 -0.9274
 3212TIP3    H231128   0.596   5.503  15.356 -2.8965  1.1910 -3.7996
 3213TIP3   OH231129   6.057   5.910  16.089 -0.1515  0.0351  0.1682
 3213TIP3    H131130   5.970   5.924  16.051  0.5842  1.1090 -1.1873
 3213TIP3    H231131   6.047   5.833  16.144 -0.8740 -2.6643 -3.5857
 3214TIP3   OH231132   6.022   4.118   1.572  0.1382 -0.4147 -0.1348
 3214TIP3    H131133   6.052   4.209   1.572 -1.3458  0.0936 -1.0417
 3214TIP3    H231134   6.053   4.083   1.655 -0.4967  1.3213  0.8671
 3215TIP3   OH231135   1.050   6.541   3.271 -0.1684 -0.1028 -0.8060
 3215TIP3    H131136   1.057   6.446   3.277  1.8861  0.1267  0.5633
 3215TIP3    H231137   1.005   6.567   3.351  3.1985  0.4604  0.9493
 3216TIP3   OH231138   5.635   3.924  15.327 -0.1393 -0.9724 -0.4640
 3216TIP3    H131139   5.539   3.919  15.335 -0.2489 -2.2268 -2.2633
 3216TIP3    H231140   5.650   3.949  15.236  1.2403  0.0476  0.0318
 3217TIP3   OH231141   3.553   3.540   3.939  0.2521  0.5011 -0.4153
 3217TIP3    H131142   3.629   3.596   3.955  0.2419  0.4816 -0.2970
 3217TIP3    H231143   3.590   3.451   3.936 -0.1437  0.2243  2.3955
 3218TIP3   OH231144   1.863   0.945  12.060 -0.4431 -0.2848  0.6119
 3218TIP3    H131145   1.924   1.019  12.053 -0.8966  0.0125 -0.2187
 3218TIP3    H231146   1.848   0.917  11.970 -1.7323 -0.1891  0.7852
 3219TIP3   OH231147   2.910   6.748   0.414  0.1370 -0.7177 -0.0378
 3219TIP3    H131148   2.837   6.688   0.401 -0.3584 -0.1301  0.0348
 3219TIP3    H231149   2.915   6.761   0.509  0.3890 -0.8259 -0.0359
 3220TIP3   OH231150   1.799   0.608   0.441 -0.6591  0.2422  0.1110
 3220TIP3    H131151   1.882   0.654   0.454 -0.2699 -0.9431  2.0901
 3220TIP3    H231152   1.753   0.659   0.375  0.3031  2.7380  1.3038
 3221TIP3   OH231153   1.316   1.593  16.534 -0.2678  0.2496 -0.0842
 3221TIP3    H131154   1.222   1.605  16.526 -0.3778 -0.8064 -0.4508
 3221TIP3    H231155   1.336   1.518  16.478  1.1426  1.9093 -1.9048
 3222TIP3   OH231156   2.918   6.669   2.334 -0.1781 -0.1417  0.1783
 3222TIP3    H131157   2.865   6.591   2.354  0.9251 -0.6052  1.3377
 3222TIP3    H231158   2.858   6.742   2.345 -1.2625 -0.8194 -1.0212
 3223TIP3   OH231159   0.181   1.240   5.213 -0.0956 -0.2586 -0.2051
 3223TIP3    H131160   0.230   1.316   5.182 -0.9789  0.1210 -0.6716
 3223TIP3    H231161   0.240   1.166   5.197  0.3016  0.1850 -0.8363
 3224TIP3   OH231162   5.798   1.056  13.112  0.1581 -0.4970 -0.2276
 3224TIP3    H131163   5.777   1.072  13.020  1.2856  0.6898 -0.2928
 3224TIP3    H231164   5.724   1.004  13.145 -0.1369 -1.1373 -1.8494
 3225TIP3   OH231165   3.453   1.137   2.180  0.4004 -0.1213 -0.2167
 3225TIP3    H131166   3.419   1.060   2.134  0.1170  0.7496 -1.4918
 3225TIP3    H231167   3.481   1.103   2.265 -3.0096 -1.0087  0.6365
 3226TIP3   OH231168   1.524   5.795  16.077 -0.2306 -0.5081 -0.0935
 3226TIP3    H131169   1.620   5.790  16.080  0.0129  1.2221 -2.9230
 3226TIP3    H231170   1.499   5.742  16.001 -1.3967  0.2648 -0.2638
 3227TIP3   OH231171   3.495   4.823   2.895  0.1699 -0.5626  0.6631
 3227TIP3    H131172   3.531   4.826   2.806 -0.0005 -0.0429  0.6088
 3227TIP3    H231173   3.568   4.797   2.950  0.3481 -0.6095  0.4036
 3228TIP3   OH231174   3.192   5.619  16.655 -0.3666 -0.0447 -0.3770
 3228TIP3    H131175   3.242   5.701  16.658  0.6019 -0.6952  1.4866
 3228TIP3    H231176   3.134   5.624  16.731  0.4800 -1.5886  0.3760
 3229TIP3   OH231177   2.858   6.631   4.855  0.1744  0.2491 -0.1056
 3229TIP3    H131178   2.930   6.680   4.815 -0.5136  2.2191  0.9877
 3229TIP3    H231179   2.788   6.696   4.865 -1.4735 -1.4336 -0.3979
 3230TIP3   OH231180   0.879   6.046   0.461 -0.3461 -0.6767 -0.4061
 3230TIP3    H131181   0.903   6.121   0.515  0.6633 -0.8706 -0.5693
 3230TIP3    H231182   0.841   5.984   0.522  0.3635 -0.7095  0.0123
 3231TIP3   OH231183   4.385   0.151   4.312 -0.5707 -0.0853 -0.3485
 3231TIP3    H131184   4.314   0.093   4.336 -0.2459 -0.5990 -0.6267
 3231TIP3    H231185   4.349   0.207   4.244 -0.3588 -1.1221 -1.3218
 3232TIP3   OH231186   0.070   4.887   1.563 -0.3880 -0.2510 -0.1252
 3232TIP3    H131187   0.048   4.852   1.477 -1.6340 -1.3289  0.6155
 3232TIP3    H231188   0.057   4.981   1.555 -0.1658 -0.3080 -1.2044
 3233TIP3   OH231189   3.830   0.735  15.458  0.3331 -0.0595  0.6171
 3233TIP3    H131190   3.755   0.715  15.515 -1.3615  0.1688 -1.4675
 3233TIP3    H231191   3.907   0.717  15.513 -1.2120 -1.5885  2.3800
 3234TIP3   OH231192   4.765   3.629  11.735  0.4173  0.4891 -0.2686
 3234TIP3    H131193   4.792   3.614  11.825 -0.3860 -1.2309 -0.2931
 3234TIP3    H231194   4.802   3.556  11.686  1.4767  1.8112 -1.4731
 3235TIP3   OH231195   6.411   1.050  14.834 -1.1107 -0.0055 -0.3098
 3235TIP3    H131196   6.465   1.019  14.907  3.1215 -0.3609 -3.4171
 3235TIP3    H231197   6.389   0.970  14.786  0.6791  0.6881 -2.3349
 3236TIP3   OH231198   1.666   2.898   6.372 -0.4272 -0.4173  0.3114
 3236TIP3    H131199   1.692   2.848   6.295  0.7762 -0.9631  1.0528
 3236TIP3    H231200   1.730   2.873   6.439 -1.3083  0.2348  1.4099
 3237TIP3   OH231201   1.852   5.636  14.388  0.0892 -0.4957 -0.3579
 3237TIP3    H131202   1.794   5.687  14.332  1.4843 -0.5135 -1.8628
 3237TIP3    H231203   1.881   5.563  14.332  2.3241  0.0640 -0.0031
 3238TIP3   OH231204   5.739   1.887   0.754  0.5288  0.0387  0.3724
 3238TIP3    H131205   5.765   1.954   0.817 -1.4785 -0.9681  2.3138
 3238TIP3    H231206   5.648   1.868   0.774  0.0991 -0.9646 -2.2767
 3239TIP3   OH231207   4.220   1.264   2.542 -1.0579  0.1704 -0.2804
 3239TIP3    H131208   4.307   1.283   2.576 -1.1269  0.6904 -0.3846
 3239TIP3    H231209   4.162   1.272   2.617 -0.8877 -1.1757 -0.0020
 3240TIP3   OH231210   5.555   0.903   6.355 -0.5044 -0.0509 -0.3298
 3240TIP3    H131211   5.642   0.942   6.342 -0.6516  0.7821  1.0640
 3240TIP3    H231212   5.533   0.864   6.270  0.4495  1.2937 -1.2095
 3241TIP3   OH231213   2.388   1.383  13.167 -0.2208  0.5553  0.1436
 3241TIP3    H131214   2.408   1.477  13.169 -2.0024  0.9934 -1.2627
 3241TIP3    H231215   2.443   1.349  13.097 -1.5579  1.0618 -1.1698
 3242TIP3   OH231216   5.154   4.134   1.471  0.2001 -0.2420 -0.6901
 3242TIP3    H131217   5.235   4.088   1.488  0.9541  1.8582  1.7364
 3242TIP3    H231218   5.180   4.211   1.421 -0.4190 -0.0480 -0.7239
 3243TIP3   OH231219   6.575   5.467  12.405 -0.3148 -0.4118 -0.1259
 3243TIP3    H131220   6.548   5.558  12.402  1.2085  0.0496 -0.4034
 3243TIP3    H231221   6.528   5.430  12.481 -0.8473  0.6236  0.0474
 3244TIP3   OH231222   4.086   2.017  13.926 -0.7130 -0.3462 -0.0751
 3244TIP3    H131223   4.056   2.100  13.889 -0.3738 -0.3699 -0.4094
 3244TIP3    H231224   4.152   1.985  13.864 -0.3731 -0.5448  0.3802
 3245TIP3   OH231225   2.255   0.915   3.301 -0.6024 -0.2320 -0.0047
 3245TIP3    H131226   2.339   0.883   3.334  0.3369  0.4596 -1.6554
 3245TIP3    H231227   2.200   0.837   3.295  0.2124 -0.8339  0.2649
 3246TIP3   OH231228   5.154   5.135  16.949 -0.3376 -0.2427  0.0904
 3246TIP3    H131229   5.174   5.199  17.017  0.0595 -1.7299  1.4050
 3246TIP3    H231230   5.093   5.180  16.891  2.4429  2.4819 -0.8789
 3247TIP3   OH231231   0.604   1.273   5.849  0.1454 -0.0310  0.5923
 3247TIP3    H131232   0.606   1.357   5.894  1.7524 -0.3806  1.1709
 3247TIP3    H231233   0.694   1.256   5.823 -0.3780 -0.9345 -0.7409
 3248TIP3   OH231234   2.909   5.465   2.039  0.4474 -0.2029 -0.1762
 3248TIP3    H131235   2.903   5.446   1.946  1.3457 -0.1997 -0.2365
 3248TIP3    H231236   2.887   5.558   2.046  1.0797 -0.0273 -0.4726
 3249TIP3   OH231237   5.456   0.687  12.257 -0.5619  0.6736  0.2331
 3249TIP3    H131238   5.380   0.744  12.265  0.1664  1.6781  0.0904
 3249TIP3    H231239   5.419   0.600  12.243 -1.7004  0.6862  2.9447
 3250TIP3   OH231240   1.753   0.769   3.658  0.0073  0.3353 -0.1136
 3250TIP3    H131241   1.753   0.700   3.592  0.0719  0.3906 -0.1717
 3250TIP3    H231242   1.799   0.731   3.733  0.1944  0.3756 -0.2087
 3251TIP3   OH231243   3.342   6.020  13.508  0.0176 -0.4534 -0.6567
 3251TIP3    H131244   3.341   5.996  13.416 -3.7996  1.7843 -1.3051
 3251TIP3    H231245   3.314   5.941  13.554  1.7008 -1.5069 -1.3869
 3252TIP3   OH231246   4.994   4.412  11.251  0.3126 -0.0989 -0.1398
 3252TIP3    H131247   4.925   4.386  11.190  0.0546  0.0304  0.0979
 3252TIP3    H231248   5.014   4.332  11.300 -0.3759  0.1159  0.4885
 3253TIP3   OH231249   5.543   3.807   4.959  0.1208  0.3127  0.0707
 3253TIP3    H131250   5.558   3.892   5.000  0.2952 -0.2752  1.2312
 3253TIP3    H231251   5.624   3.789   4.911  0.9086 -0.1856  1.5778
 3254TIP3   OH231252   2.311   2.056   0.700 -0.1736 -0.6757 -0.1495
 3254TIP3    H131253   2.255   2.134   0.699  0.6675 -0.0724 -1.1099
 3254TIP3    H231254   2.343   2.048   0.610 -1.6563 -3.1712 -0.5190
 3255TIP3   OH231255   4.461   6.221  16.778  0.7823 -0.3716  0.3882
 3255TIP3    H131256   4.444   6.232  16.684  0.1999 -2.5170  0.2111
 3255TIP3    H231257   4.556   6.222  16.785  0.8302 -0.1295 -0.2234
 3256TIP3   OH231258   3.942   5.653   1.881  0.4400  0.4395 -0.4705
 3256TIP3    H131259   3.982   5.739   1.870  1.3397  0.0130 -0.5513
 3256TIP3    H231260   3.983   5.598   1.815  1.4579 -0.5970  0.9745
 3257TIP3   OH231261   4.309   3.033   0.592 -0.4669 -0.0658  0.7369
 3257TIP3    H131262   4.341   3.083   0.667 -0.1968 -0.9068  1.1891
 3257TIP3    H231263   4.214   3.035   0.601 -0.5281  1.5256 -0.0141
 3258TIP3   OH231264   1.413   6.238   0.554 -0.6225 -0.1237  0.0871
 3258TIP3    H131265   1.380   6.321   0.586 -0.9870  0.1731 -1.0273
 3258TIP3    H231266   1.356   6.216   0.480 -0.7237 -1.5103  0.5547
 3259TIP3   OH231267   2.024   3.232  11.139 -0.1532  0.1704 -0.6691
 3259TIP3    H131268   1.949   3.286  11.114 -0.9687 -1.4353 -1.8388
 3259TIP3    H231269   2.088   3.245  11.068 -0.3117 -0.3185 -0.9030
 3260TIP3   OH231270   4.162   5.118   2.293 -0.2399  0.0774  0.3625
 3260TIP3    H131271   4.218   5.058   2.342 -0.8902 -0.5830  0.3024
 3260TIP3    H231272   4.123   5.064   2.224 -2.3199  0.0964  1.4649
 3261TIP3   OH231273   1.055   2.556  13.678 -0.8202 -0.0009 -0.1335
 3261TIP3    H131274   0.985   2.496  13.702 -0.2797  0.4955  2.9006
 3261TIP3    H231275   1.121   2.544  13.746  0.3671  2.2754 -0.8355
 3262TIP3   OH231276   1.919   1.739   4.288  0.9320  1.0033 -0.4287
 3262TIP3    H131277   1.869   1.775   4.361 -0.6092 -2.5974  0.3771
 3262TIP3    H231278   1.998   1.702   4.329  1.1802  0.9957 -0.9115
 3263TIP3   OH231279   5.400   0.708   4.764 -0.4573 -0.4631  0.4193
 3263TIP3    H131280   5.492   0.732   4.754 -0.3185 -0.8660  0.7604
 3263TIP3    H231281   5.393   0.671   4.852 -1.1848  0.6765  0.8531
 3264TIP3   OH231282   3.974   6.412   3.042  0.0128 -0.3819 -0.0334
 3264TIP3    H131283   3.977   6.463   3.123 -1.3695 -1.9279  1.0137
 3264TIP3    H231284   4.060   6.369   3.039  0.9778  1.4895 -0.6386
 3265TIP3   OH231285   1.051   5.328   5.301  0.2369 -0.1212 -0.2704
 3265TIP3    H131286   1.034   5.421   5.286  0.9790  0.2185  0.9532
 3265TIP3    H231287   1.141   5.325   5.333  0.6054 -1.3757 -1.3781
 3266TIP3   OH231288   4.671   4.042  12.398  0.0628 -0.3005  0.1602
 3266TIP3    H131289   4.739   4.055  12.464  0.9701  1.1127 -1.0273
 3266TIP3    H231290   4.601   4.102  12.425 -0.6295 -1.5529  1.2243
 3267TIP3   OH231291   6.082   6.502   0.772  0.0969 -0.0170  0.5592
 3267TIP3    H131292   6.161   6.539   0.811 -1.0401  0.7889  2.1700
 3267TIP3    H231293   6.027   6.577   0.752  0.3629 -0.4624 -2.0583
 3268TIP3   OH231294   6.197   3.724   5.267 -0.6096  0.1351 -0.0773
 3268TIP3    H131295   6.137   3.697   5.197 -0.9495  1.9513 -0.4941
 3268TIP3    H231296   6.233   3.807   5.237  1.4973 -0.5284  0.5620
 3269TIP3   OH231297   0.103   5.684   6.421 -0.0548  0.1656  0.4801
 3269TIP3    H131298   0.104   5.610   6.481  0.9530 -1.7032 -1.7556
 3269TIP3    H231299   0.025   5.670   6.367  0.8275  0.0221 -0.7790
 3270TIP3   OH231300   0.942   2.466   3.984  0.1966  0.0507 -0.1912
 3270TIP3    H131301   1.024   2.516   3.979 -0.3171  0.7977 -1.4012
 3270TIP3    H231302   0.969   2.375   3.986  1.0149  0.2047 -2.6575
 3271TIP3   OH231303   6.423   5.630  14.158  0.1957  0.1413 -0.3537
 3271TIP3    H131304   6.344   5.674  14.127  1.0116  1.0616 -1.1967
 3271TIP3    H231305   6.493   5.695  14.145  1.3368 -1.1980 -1.0541
 3272TIP3   OH231306   5.371   0.035  16.142  0.2964 -0.1804 -0.1444
 3272TIP3    H131307   5.425   0.114  16.148 -0.9962  0.7402 -0.6153
 3272TIP3    H231308   5.320   0.035  16.223 -0.5197  0.0594 -0.6645
 3273TIP3   OH231309   0.395   3.912   3.920  0.5571  0.7849  0.2917
 3273TIP3    H131310   0.344   3.880   3.846 -0.3176  0.0248  1.2130
 3273TIP3    H231311   0.486   3.905   3.892  0.3194 -1.3931  0.0431
 3274TIP3   OH231312   3.020   4.722   4.478  0.2369 -0.3062 -0.2438
 3274TIP3    H131313   3.062   4.807   4.493 -1.2199  0.5733 -1.0173
 3274TIP3    H231314   3.077   4.677   4.416  1.5700 -0.3436  0.9651
 3275TIP3   OH231315   0.641   3.570   3.802  0.2435  0.1204 -0.0335
 3275TIP3    H131316   0.559   3.574   3.754  0.3123 -0.8455 -0.2479
 3275TIP3    H231317   0.617   3.583   3.894  0.2020  2.7608 -0.4009
 3276TIP3   OH231318   5.297   2.991   0.719 -0.1254  0.1152  0.5712
 3276TIP3    H131319   5.367   2.925   0.724  0.5842  0.6893 -1.4106
 3276TIP3    H231320   5.289   3.024   0.809 -0.4027 -2.5535  1.5829
 3277TIP3   OH231321   4.294   5.835   4.015  0.7553 -0.1446  0.2405
 3277TIP3    H131322   4.210   5.842   3.969  1.4426  0.2840 -0.9368
 3277TIP3    H231323   4.330   5.751   3.987  0.7629 -0.3088  0.7184
 3278TIP3   OH231324   6.367   5.191  10.929 -0.2310 -0.0097  0.0352
 3278TIP3    H131325   6.300   5.142  10.881  0.2217 -1.6401  1.0301
 3278TIP3    H231326   6.449   5.167  10.886 -0.2381  1.7948 -1.0300
 3279TIP3   OH231327   6.780   5.456   1.603 -0.1400  0.1488  0.5694
 3279TIP3    H131328   6.730   5.538   1.603 -0.3931 -0.0072  0.3973
 3279TIP3    H231329   6.852   5.472   1.664  0.4775  0.9239 -0.3360
 3280TIP3   OH231330   1.277   5.487   2.948 -0.2919 -0.1070  0.0050
 3280TIP3    H131331   1.301   5.543   2.874 -0.1031  0.9603  0.8583
 3280TIP3    H231332   1.182   5.495   2.954 -0.2092  0.6214  0.4963
 3281TIP3   OH231333   5.906   1.797  11.307 -0.0535 -0.3911  0.0038
 3281TIP3    H131334   5.977   1.809  11.244 -0.3273 -1.0099 -0.4302
 3281TIP3    H231335   5.882   1.705  11.299 -1.1725 -0.1020 -0.1400
 3282TIP3   OH231336   4.965   2.547  13.358  0.0930 -0.2116  0.1922
 3282TIP3    H131337   5.021   2.624  13.345  1.8382 -1.4661  0.1314
 3282TIP3    H231338   4.992   2.512  13.443  0.0788 -1.3925 -0.2874
 3283TIP3   OH231339   4.440   1.339  12.591 -0.3806  0.0306  0.0594
 3283TIP3    H131340   4.393   1.297  12.663 -0.4046 -0.2806 -0.1391
 3283TIP3    H231341   4.455   1.269  12.528  0.0836  0.1925 -0.0143
 3284TIP3   OH231342   0.741   0.633  12.029  0.3903  0.2876 -0.0276
 3284TIP3    H131343   0.755   0.714  12.078  2.7345 -0.2832  0.2797
 3284TIP3    H231344   0.742   0.564  12.094  2.0433 -0.3319 -0.6940
 3285TIP3   OH231345   5.981   5.807  14.630 -0.2753  0.8414 -0.1192
 3285TIP3    H131346   5.988   5.719  14.668 -0.8340  1.2879  1.0122
 3285TIP3    H231347   5.896   5.808  14.587 -1.6164  1.8527  2.5001
 3286TIP3   OH231348   1.490   2.666  16.433  0.1334  0.1039 -0.2308
 3286TIP3    H131349   1.496   2.573  16.457  0.1221  0.4464  1.1113
 3286TIP3    H231350   1.568   2.683  16.380  1.3030 -0.1127  1.4076
 3287TIP3   OH231351   3.027   0.782   5.230 -0.1298  0.0506  0.7243
 3287TIP3    H131352   2.935   0.800   5.250 -0.8900 -3.0430  0.2671
 3287TIP3    H231353   3.047   0.842   5.158 -1.4506  1.4828  1.5006
 3288TIP3   OH231354   1.065   4.837  16.318 -0.1587  0.0916  1.0348
 3288TIP3    H131355   1.127   4.808  16.385  0.7204  0.8019  0.5332
 3288TIP3    H231356   1.118   4.845  16.239 -1.1830 -0.6848  0.2666
 3289TIP3   OH231357   6.311   6.512   5.512  0.3452  0.0979  0.1477
 3289TIP3    H131358   6.362   6.593   5.515  2.7992 -1.4212  0.8211
 3289TIP3    H231359   6.327   6.478   5.424  1.5131 -0.9793  0.7569
 3290TIP3   OH231360   2.101   1.317   6.394  1.0698 -0.1954  0.1683
 3290TIP3    H131361   2.157   1.338   6.469  0.1677 -0.4342  0.9325
 3290TIP3    H231362   2.041   1.250   6.428 -1.1934  1.6886  0.0736
 3291TIP3   OH231363   6.734   2.008   6.153  0.1378 -0.0094  0.5408
 3291TIP3    H131364   6.755   1.934   6.211 -2.0365 -0.2553  1.0408
 3291TIP3    H231365   6.723   2.082   6.213 -2.3264 -0.3106  0.5232
 3292TIP3   OH231366   2.042   3.796   3.641  0.9001 -1.2218  0.6645
 3292TIP3    H131367   2.094   3.777   3.563  1.5843 -1.5163  1.1897
 3292TIP3    H231368   1.954   3.766   3.619  0.7509  0.0504 -0.5440
 3293TIP3   OH231369   2.670   4.025  12.223  0.6123  0.2881  0.1761
 3293TIP3    H131370   2.599   4.082  12.194  0.2730 -0.1670  0.1049
 3293TIP3    H231371   2.745   4.084  12.235  1.2612  0.2604 -3.2119
 3294TIP3   OH231372   2.150   0.932  11.796 -0.0343  0.6413  0.8893
 3294TIP3    H131373   2.209   0.919  11.870  0.5066 -0.9413  0.2081
 3294TIP3    H231374   2.195   0.890  11.722 -1.5944  0.1856  0.1738
 3295TIP3   OH231375   0.898   0.298  15.181 -0.6289  0.0678 -0.6817
 3295TIP3    H131376   0.956   0.373  15.170 -2.8691  1.9514 -0.1856
 3295TIP3    H231377   0.856   0.288  15.095  1.1792 -1.9905 -1.3756
 3296TIP3   OH231378   0.078   6.643  15.747  0.4287  0.3161 -0.4674
 3296TIP3    H131379   0.015   6.672  15.681  0.9537  0.9668 -0.6943
 3296TIP3    H231380   0.030   6.580  15.801 -0.8350  1.8951  0.2538
 3297TIP3   OH231381   1.551   4.188   6.719 -0.2742 -0.1134 -0.0329
 3297TIP3    H131382   1.460   4.205   6.694  0.4514  1.8043 -1.5263
 3297TIP3    H231383   1.596   4.169   6.636  0.8133 -0.3890  0.6076
 3298TIP3   OH231384   1.440   0.025  16.861 -0.2719 -0.1701 -0.0147
 3298TIP3    H131385   1.375  -0.021  16.808 -0.5226  1.0789 -0.8021
 3298TIP3    H231386   1.394   0.103  16.892  0.7119  0.4826 -0.1876
 3299TIP3   OH231387   5.268   3.811  11.210  0.1830 -0.0827  0.3999
 3299TIP3    H131388   5.331   3.746  11.177  2.1169  1.6254  0.6105
 3299TIP3    H231389   5.240   3.858  11.132  1.7018  1.3037  0.6488
 3300TIP3   OH231390   0.800   4.029  14.806 -0.1596  0.4468 -0.1480
 3300TIP3    H131391   0.718   4.009  14.761 -0.2610  1.7516 -0.5654
 3300TIP3    H231392   0.857   3.956  14.785 -1.2483 -0.5394  0.2458
 3301TIP3   OH231393   0.618   2.126   3.855  0.0188  0.3774 -0.0160
 3301TIP3    H131394   0.666   2.100   3.933  1.1605  1.1079 -0.4563
 3301TIP3    H231395   0.684   2.126   3.785 -0.2351  2.9820 -0.3143
 3302TIP3   OH231396   4.932   5.896   0.190 -0.4045  0.5052 -0.2221
 3302TIP3    H131397   4.857   5.942   0.152 -1.5336 -1.2359 -0.1774
 3302TIP3    H231398   4.999   5.899   0.122 -0.6268  1.7494 -0.4102
 3303TIP3   OH231399   0.550   6.661  14.812  0.6404 -0.1674  0.1539
 3303TIP3    H131400   0.587   6.716  14.881 -0.6063  1.2921 -0.3184
 3303TIP3    H231401   0.494   6.598  14.858  2.1275 -1.1098  0.7012
 3304TIP3   OH231402   4.530   2.964  14.139 -0.0873  0.6985  0.1368
 3304TIP3    H131403   4.460   2.942  14.078  1.6586  0.7846 -1.9408
 3304TIP3    H231404   4.589   2.889  14.136 -1.4156 -0.6515  3.9945
 3305TIP3   OH231405   4.418   5.121  16.901 -0.1802 -0.1092  0.3023
 3305TIP3    H131406   4.487   5.119  16.967  0.2252  0.8960 -0.0770
 3305TIP3    H231407   4.377   5.207  16.911  1.1571  0.8576 -2.0104
 3306TIP3   OH231408   4.323   0.280  15.251 -0.1497  0.3952 -0.7350
 3306TIP3    H131409   4.354   0.243  15.169  0.1664 -0.8340 -0.0669
 3306TIP3    H231410   4.243   0.232  15.271  0.1778  0.1825  0.0634
 3307TIP3   OH231411   2.230   4.780   0.158  0.1337  0.1322  0.5083
 3307TIP3    H131412   2.150   4.728   0.157  0.5342 -0.4790 -2.2071
 3307TIP3    H231413   2.203   4.866   0.126  0.2336  0.4620  1.2912
 3308TIP3   OH231414   4.661   5.822   2.088  0.2183 -0.3719  0.7553
 3308TIP3    H131415   4.751   5.833   2.059  0.4120 -2.3122  0.5816
 3308TIP3    H231416   4.619   5.768   2.021 -0.8603 -0.1358  1.2173
 3309TIP3   OH231417   5.679   6.666  11.987 -0.5804 -0.1428 -0.4711
 3309TIP3    H131418   5.644   6.625  12.066 -1.5445 -2.0753 -1.8777
 3309TIP3    H231419   5.772   6.644  11.988 -0.3710  0.7527  0.6681
 3310TIP3   OH231420   5.384   6.471  15.505 -0.1383 -0.1335  0.0022
 3310TIP3    H131421   5.373   6.566  15.500  1.7341  0.1207  0.3564
 3310TIP3    H231422   5.434   6.457  15.585 -0.2863 -1.4167 -0.1261
 3311TIP3   OH231423   5.819   4.818   0.520 -0.4105 -0.3149 -0.4886
 3311TIP3    H131424   5.744   4.820   0.580 -0.2800  0.5701 -0.3550
 3311TIP3    H231425   5.895   4.818   0.577 -0.2987 -0.8953 -0.6325
 3312TIP3   OH231426   3.748   6.091  15.672  0.7493 -0.4139  0.3409
 3312TIP3    H131427   3.683   6.040  15.624  0.7924 -1.0091  0.8968
 3312TIP3    H231428   3.698   6.133  15.742  0.8515 -0.3580  0.3801
 3313TIP3   OH231429   5.344   2.357   1.506  0.2710 -0.0410 -0.2381
 3313TIP3    H131430   5.308   2.304   1.435  1.6238 -0.3819 -0.6738
 3313TIP3    H231431   5.294   2.439   1.503 -1.3891 -1.0265  0.0363
 3314TIP3   OH231432   2.249   4.493   0.265 -0.2752  0.1918 -0.3500
 3314TIP3    H131433   2.288   4.436   0.332  1.0283  2.3770  0.7817
 3314TIP3    H231434   2.319   4.553   0.241 -0.9247 -0.1244 -3.2432
 3315TIP3   OH231435   2.661   0.580  13.239 -0.4536  0.0974  0.0083
 3315TIP3    H131436   2.565   0.587  13.241 -0.4758 -0.3045  0.4863
 3315TIP3    H231437   2.691   0.662  13.278 -0.6220 -0.1935  0.7565
 3316TIP3   OH231438   6.580   2.433   4.564 -0.4157  0.3426 -0.4558
 3316TIP3    H131439   6.531   2.370   4.511 -1.8808  1.2820 -0.2388
 3316TIP3    H231440   6.654   2.382   4.598  0.3607 -0.3841 -3.0716
 3317TIP3   OH231441   2.552   3.469   1.668 -0.0361  0.0435 -0.3760
 3317TIP3    H131442   2.520   3.496   1.754  1.4156  0.7505 -0.0390
 3317TIP3    H231443   2.510   3.385   1.652  1.4186 -1.1733  2.0287
 3318TIP3   OH231444   6.317   0.626   0.292 -0.2704 -0.1073  0.7343
 3318TIP3    H131445   6.357   0.711   0.308 -0.5050  0.2505 -0.4878
 3318TIP3    H231446   6.289   0.595   0.378  2.4068 -0.2664  1.5773
 3319TIP3   OH231447   6.469   1.897  14.988 -0.3994  0.3063 -0.1255
 3319TIP3    H131448   6.552   1.853  14.966  0.0014  1.2233 -0.4728
 3319TIP3    H231449   6.424   1.906  14.905 -0.3104  0.8876 -0.1134
 3320TIP3   OH231450   1.712   2.071   4.683  0.0159 -0.7352  0.1916
 3320TIP3    H131451   1.740   2.152   4.641 -2.4814 -0.6100 -1.2990
 3320TIP3    H231452   1.664   2.100   4.761 -1.5146 -0.7444 -0.7386
 3321TIP3   OH231453   1.784   4.541  13.541 -0.2244  0.0902 -0.2964
 3321TIP3    H131454   1.769   4.510  13.631  1.4457  2.4461  0.8469
 3321TIP3    H231455   1.867   4.501  13.516 -0.7171 -0.6098 -0.8422
 3322TIP3   OH231456   6.162   3.523   2.419  0.0987  0.4004  0.2140
 3322TIP3    H131457   6.155   3.487   2.508 -2.7997  0.6508  0.1304
 3322TIP3    H231458   6.101   3.471   2.367  0.0566  1.7737 -1.1396
 3323TIP3   OH231459   0.119   0.224  11.143 -0.7341 -0.0171  0.6847
 3323TIP3    H131460   0.034   0.182  11.128 -1.7650  2.8075 -1.8068
 3323TIP3    H231461   0.175   0.189  11.074 -1.2093  1.5954 -0.5427
 3324TIP3   OH231462   1.792   6.717  15.609  0.6383 -0.1390 -0.2284
 3324TIP3    H131463   1.885   6.713  15.588  0.9081  1.0254  0.6823
 3324TIP3    H231464   1.755   6.775  15.542  0.8883  0.7865  0.4163
 3325TIP3   OH231465   2.257   5.108   1.366  0.1669 -0.1367  0.2031
 3325TIP3    H131466   2.174   5.066   1.344  0.6019 -0.2374 -1.3017
 3325TIP3    H231467   2.259   5.109   1.462 -1.8754  0.4830  0.2595
 3326TIP3   OH231468   3.012   5.793  13.833  0.0752  0.1963 -0.0164
 3326TIP3    H131469   2.941   5.829  13.885  0.3214  2.9714 -1.5045
 3326TIP3    H231470   2.970   5.760  13.754  0.1968  0.0686 -0.0266
 3327TIP3   OH231471   3.383   5.776  14.336 -0.4826 -0.5604  0.3994
 3327TIP3    H131472   3.413   5.717  14.267 -1.7236  0.0178 -0.6391
 3327TIP3    H231473   3.305   5.734  14.371 -0.7550 -0.0682  0.3828
 3328TIP3   OH231474   4.661   5.343  14.733  0.1124 -0.7026 -0.1664
 3328TIP3    H131475   4.574   5.362  14.698  0.0777 -1.5526 -0.5592
 3328TIP3    H231476   4.709   5.306  14.658  1.0567  0.4769 -0.1624
 3329TIP3   OH231477   6.606   5.852   0.832 -0.2095 -0.5944 -0.0425
 3329TIP3    H131478   6.573   5.917   0.894 -0.5391 -1.1803  0.3970
 3329TIP3    H231479   6.697   5.877   0.817 -0.7861  0.9508 -1.1508
 3330TIP3   OH231480   0.522   1.282   4.169  0.2096 -0.1383  0.2446
 3330TIP3    H131481   0.532   1.319   4.081 -1.3037  1.8272  0.8861
 3330TIP3    H231482   0.596   1.317   4.219  0.8458 -0.9399 -0.1196
 3331TIP3   OH231483   0.570   3.917  16.899  0.5056 -0.0028  0.3182
 3331TIP3    H131484   0.644   3.938  16.842 -0.9828  0.0454 -1.6766
 3331TIP3    H231485   0.571   3.822  16.907  0.1658 -0.0897 -0.6033
 3332TIP3   OH231486   1.929   4.273  16.649  0.1793  0.3376  0.2668
 3332TIP3    H131487   1.879   4.199  16.615 -1.8761  1.1202  1.4595
 3332TIP3    H231488   1.863   4.340  16.669  1.8210  1.8415  0.8523
 3333TIP3   OH231489   5.151   0.768   5.046 -0.4141  0.0268 -0.2726
 3333TIP3    H131490   5.100   0.726   4.976  0.0521  3.1823 -2.5815
 3333TIP3    H231491   5.085   0.795   5.110 -1.2730  0.6475 -1.3954
 3334TIP3   OH231492   0.631   1.530   3.444 -0.2045 -0.4494  0.0226
 3334TIP3    H131493   0.616   1.608   3.498  0.0480 -1.4155  1.5316
 3334TIP3    H231494   0.634   1.458   3.507  0.3716 -1.5796 -1.2764
 3335TIP3   OH231495   5.975   3.569   5.373 -0.2474 -0.4572 -0.0092
 3335TIP3    H131496   6.049   3.630   5.363 -0.0037 -0.8337 -0.4907
 3335TIP3    H231497   5.909   3.620   5.419  1.0462 -0.7233  2.1898
 3336TIP3   OH231498   6.734   4.835   4.565 -0.0696  0.1359  0.6395
 3336TIP3    H131499   6.784   4.754   4.573 -1.1568 -0.6283 -0.2781
 3336TIP3    H231500   6.744   4.860   4.473  1.5429  1.8869  1.2499
 3337TIP3   OH231501   4.593   2.608   6.125 -0.0955 -0.0077 -0.1417
 3337TIP3    H131502   4.587   2.641   6.035  0.0124 -2.0545 -0.9330
 3337TIP3    H231503   4.516   2.644   6.169 -0.5167  0.4590 -1.2370
 3338TIP3   OH231504   5.036   6.440   1.399 -0.0597  0.5279 -0.2836
 3338TIP3    H131505   5.010   6.352   1.371 -2.8770  0.9005  0.9877
 3338TIP3    H231506   5.007   6.498   1.329 -0.3299  0.6804 -0.0474
 3339TIP3   OH231507   3.919   6.310  11.417  0.1819 -0.9798  0.0222
 3339TIP3    H131508   3.850   6.347  11.472  1.2093  0.1906  0.5377
 3339TIP3    H231509   3.906   6.350  11.331  1.1930  0.4630  0.5378
 3340TIP3   OH231510   5.665   2.074  12.149 -0.1698 -0.1656 -0.0715
 3340TIP3    H131511   5.600   2.005  12.166  0.6517 -0.6645  1.1569
 3340TIP3    H231512   5.707   2.048  12.068 -0.1474 -0.8960  0.1729
 3341TIP3   OH231513   5.073   1.154  14.715 -0.3698 -0.3282  0.5573
 3341TIP3    H131514   5.153   1.205  14.729 -0.8002 -0.1115  2.4452
 3341TIP3    H231515   5.012   1.188  14.781 -1.2660 -2.0280  0.6269
 3342TIP3   OH231516   3.219   3.524   1.565 -0.8023  0.1094  0.1671
 3342TIP3    H131517   3.272   3.457   1.521  0.6877 -0.2752  2.4041
 3342TIP3    H231518   3.135   3.482   1.579 -1.1424  0.0683 -1.8185
 3343TIP3   OH231519   6.073   0.900   4.664  0.1631  0.4382 -0.5673
 3343TIP3    H131520   6.073   0.873   4.756 -1.9704  0.6896 -0.4686
 3343TIP3    H231521   6.153   0.862   4.628  0.8298  0.0144  1.2943
 3344TIP3   OH231522   0.547   5.144   3.221  0.1046 -0.1861 -0.2227
 3344TIP3    H131523   0.614   5.212   3.220 -1.9994  1.9392 -0.1305
 3344TIP3    H231524   0.510   5.147   3.309 -1.0678 -0.3615 -0.6926
 3345TIP3   OH231525   2.254   4.282  13.437 -0.0459 -0.0713 -0.1475
 3345TIP3    H131526   2.186   4.214  13.439  0.6306 -0.8002 -1.3125
 3345TIP3    H231527   2.239   4.333  13.517 -0.2930 -1.8798  1.0054
 3346TIP3   OH231528   3.715   0.122  17.066  0.1748 -0.1414 -0.8285
 3346TIP3    H131529   3.742   0.072  16.990  1.3671  1.4316 -1.4581
 3346TIP3    H231530   3.749   0.210  17.051  0.1201  0.2866  1.3473
 3347TIP3   OH231531   5.787   0.127  12.719  0.2276  0.1993 -0.1531
 3347TIP3    H131532   5.860   0.153  12.776 -0.0069  0.3367  0.0838
 3347TIP3    H231533   5.718   0.190  12.738  0.3843  0.6407 -1.0736
 3348TIP3   OH231534   1.512   4.993   2.731 -0.1598  0.1133 -0.0909
 3348TIP3    H131535   1.510   4.935   2.807  0.1428 -0.6925 -0.6864
 3348TIP3    H231536   1.548   4.939   2.660 -0.1104  0.9518 -0.7209
 3349TIP3   OH231537   0.621   5.338   2.325  0.0753  0.2747  0.2178
 3349TIP3    H131538   0.607   5.258   2.275  0.0059  0.7680 -0.5720
 3349TIP3    H231539   0.539   5.387   2.315  0.1987  0.5400  0.4995
 3350TIP3   OH231540   5.914   6.286  16.759 -0.3782 -0.0739 -0.3809
 3350TIP3    H131541   5.910   6.345  16.834 -1.7922  0.2211 -0.6711
 3350TIP3    H231542   5.868   6.333  16.689 -0.2878 -0.9247 -1.0171
 3351TIP3   OH231543   3.921   0.509   1.693 -0.0161  0.2819 -0.4945
 3351TIP3    H131544   3.872   0.443   1.742 -0.8278  0.5512 -0.9347
 3351TIP3    H231545   3.956   0.461   1.617 -0.6340  0.3514 -0.8323
 3352TIP3   OH231546   3.487   6.002  15.604 -0.0705 -0.0168  0.2120
 3352TIP3    H131547   3.420   5.945  15.568 -0.4438 -0.6568  1.8596
 3352TIP3    H231548   3.440   6.081  15.631  0.1214  0.2388 -0.1902
 3353TIP3   OH231549   3.123   0.231  13.003 -0.1011 -0.5496 -0.6146
 3353TIP3    H131550   3.039   0.277  13.011  0.6259  0.5586  0.9347
 3353TIP3    H231551   3.099   0.139  12.998 -1.3867 -0.3063  0.6035
 3354TIP3   OH231552   2.006   6.321  12.878  0.1465  0.4525 -0.3241
 3354TIP3    H131553   1.989   6.340  12.970  0.4329 -0.6873 -0.0338
 3354TIP3    H231554   1.925   6.346  12.834 -0.2859  0.2350  0.3386
 3355TIP3   OH231555   4.223   5.222   2.957  0.3851  0.3111  0.3493
 3355TIP3    H131556   4.193   5.133   2.940 -0.4084  0.5311  0.5528
 3355TIP3    H231557   4.187   5.243   3.044  1.0047  0.6368  0.5262
 3356TIP3   OH231558   6.704   0.843   6.664 -0.0675 -0.1218 -0.2341
 3356TIP3    H131559   6.718   0.938   6.663 -2.0928  0.2242 -2.7551
 3356TIP3    H231560   6.768   0.809   6.601  0.1222 -0.3312  0.0727
 3357TIP3   OH231561   6.192   6.262   4.989 -0.0073 -0.4201 -0.8123
 3357TIP3    H131562   6.194   6.346   5.035 -0.6067 -0.2409 -1.1051
 3357TIP3    H231563   6.282   6.247   4.962 -0.0388  0.5298 -1.4697
 3358TIP3   OH231564   6.413   6.648  12.351 -0.6957 -0.3842  0.1993
 3358TIP3    H131565   6.434   6.712  12.283 -0.0826 -1.5119 -0.6959
 3358TIP3    H231566   6.441   6.689  12.433  0.5216  0.1267 -0.4558
 3359TIP3   OH231567   5.787   4.208   2.311 -0.1815 -0.4999  0.3202
 3359TIP3    H131568   5.715   4.178   2.366 -1.5915  0.2511 -1.1006
 3359TIP3    H231569   5.751   4.281   2.262  1.3160 -0.6306 -0.9992
 3360TIP3   OH231570   6.308   5.137  17.289  0.2919 -0.5594  0.7792
 3360TIP3    H131571   6.272   5.114  17.203  1.1657 -0.7542  0.4659
 3360TIP3    H231572   6.402   5.148  17.274  0.1487  1.5128  1.2740
 3361TIP3   OH231573   4.550   1.942  14.093  0.0028  0.3801  0.5617
 3361TIP3    H131574   4.596   1.867  14.056 -0.5834 -0.0326  0.6623
 3361TIP3    H231575   4.479   1.904  14.145 -1.2142  1.0180 -0.5969
 3362TIP3   OH231576   2.536   2.692  17.202 -0.1356  0.4618 -0.3623
 3362TIP3    H131577   2.618   2.644  17.202 -1.3122 -1.6353 -2.6737
 3362TIP3    H231578   2.487   2.656  17.276  0.1856  0.2532 -0.2529
 3363TIP3   OH231579   0.346   5.740  15.617 -0.0021 -0.0312  0.4254
 3363TIP3    H131580   0.299   5.663  15.586 -1.2054  0.3912  1.1490
 3363TIP3    H231581   0.433   5.708  15.640 -0.3687 -1.0953  0.3446
 3364TIP3   OH231582   0.928   4.005   0.220  0.3446  0.5786  0.4090
 3364TIP3    H131583   0.920   3.925   0.168  0.9971  1.0005 -0.3491
 3364TIP3    H231584   0.957   3.974   0.306 -1.5068 -0.1994  0.7791
 3365TIP3   OH231585   4.743   2.992   1.816  0.4847  0.5612 -0.5946
 3365TIP3    H131586   4.771   2.901   1.804 -2.1930 -0.3671 -0.0707
 3365TIP3    H231587   4.736   3.002   1.911 -1.2160  0.6923 -0.7303
 3366TIP3   OH231588   6.330   4.538   5.142 -0.4409 -0.0705 -0.3648
 3366TIP3    H131589   6.348   4.591   5.220  2.2201  0.9689 -1.5983
 3366TIP3    H231590   6.409   4.484   5.132 -0.9421 -0.4987 -2.0724
 3367TIP3   OH231591   2.318   3.737  13.432  0.4269  0.8594  0.0486
 3367TIP3    H131592   2.264   3.772  13.361  0.4479 -1.1872 -1.0172
 3367TIP3    H231593   2.255   3.704  13.496  0.3507 -0.9534 -0.9071
 3368TIP3   OH231594   0.553   3.303  14.582  0.4180  0.9973 -0.4704
 3368TIP3    H131595   0.605   3.280  14.504  0.4410  1.0301 -0.4652
 3368TIP3    H231596   0.616   3.299  14.654  0.2365  0.2588 -0.3510
 3369TIP3   OH231597   0.711   6.656   1.560  0.3057 -0.3111  0.2280
 3369TIP3    H131598   0.702   6.647   1.465 -2.4399  2.4592  0.1651
 3369TIP3    H231599   0.632   6.614   1.596  2.1718 -2.9352  1.4468
 3370TIP3   OH231600   0.300   6.290   1.378  0.6218 -0.3514 -0.1380
 3370TIP3    H131601   0.293   6.280   1.473  1.0158 -0.4221 -0.1174
 3370TIP3    H231602   0.283   6.203   1.343 -1.4280  0.0656 -0.2307
 3371TIP3   OH231603   3.859   0.088  11.517 -0.3629 -0.1148 -0.1269
 3371TIP3    H131604   3.790   0.139  11.475  0.9538  0.6997 -1.3790
 3371TIP3    H231605   3.892   0.144  11.587 -0.0221  0.0774 -0.4412
 3372TIP3   OH231606   5.991   3.966  13.879  0.3459  0.5136 -0.1669
 3372TIP3    H131607   5.996   4.000  13.790  0.5242 -2.4440 -1.3298
 3372TIP3    H231608   5.910   4.004  13.915  0.5979  2.2042 -1.3334
 3373TIP3   OH231609   6.425   1.655   4.621 -0.2426 -0.0541 -0.0417
 3373TIP3    H131610   6.414   1.712   4.697 -0.2546 -0.0979 -0.0098
 3373TIP3    H231611   6.392   1.707   4.547 -0.1534  0.0211 -0.0294
 3374TIP3   OH231612   6.264   1.150  15.125 -0.1155  0.2448  0.0492
 3374TIP3    H131613   6.173   1.151  15.155  0.3436  0.8546  1.4632
 3374TIP3    H231614   6.292   1.059  15.138 -0.9240 -0.2650 -1.6696
 3375TIP3   OH231615   3.630   2.862   6.025  0.8723 -0.1179 -0.7648
 3375TIP3    H131616   3.647   2.912   6.105  0.8525  0.3028 -1.0195
 3375TIP3    H231617   3.583   2.924   5.968 -0.2262 -0.7994 -0.6275
 3376TIP3   OH231618   2.305   2.138  16.777 -0.2843 -0.7123  0.1449
 3376TIP3    H131619   2.367   2.071  16.807 -0.9296 -1.4669 -0.1867
 3376TIP3    H231620   2.228   2.125  16.832  0.9958  2.3585  2.8484
 3377TIP3   OH231621   4.917   6.504  14.261  0.1214 -0.3414  0.1976
 3377TIP3    H131622   4.871   6.425  14.288  1.3113 -1.3093 -0.5381
 3377TIP3    H231623   5.007   6.491  14.292  0.6699  0.0652 -1.1767
 3378TIP3   OH231624   5.884   2.351  11.962  0.4699 -0.1936  0.1349
 3378TIP3    H131625   5.902   2.258  11.953  0.2337 -0.3500  1.2558
 3378TIP3    H231626   5.791   2.359  11.939  0.4828 -0.2312  0.0681
 3379TIP3   OH231627   4.747   3.693  15.896  0.1829 -0.1699  0.3558
 3379TIP3    H131628   4.753   3.777  15.942  0.5182 -0.5726  1.0477
 3379TIP3    H231629   4.657   3.690  15.865  0.4757  0.9621 -0.6683
 3380TIP3   OH231630   3.796   1.246   1.911 -0.2734  0.0254 -0.2888
 3380TIP3    H131631   3.856   1.239   1.985  0.9104  1.0223 -1.1527
 3380TIP3    H231632   3.719   1.291   1.947  0.9008  1.8465 -0.0296
 3381TIP3   OH231633   1.120   1.573  14.988 -0.2870 -0.3895  0.3730
 3381TIP3    H131634   1.167   1.656  14.979 -0.4329 -0.0222  2.7504
 3381TIP3    H231635   1.176   1.508  14.946  0.8106  0.5659  0.3634
 3382TIP3   OH231636   6.701   4.315   3.625  0.2498 -0.1399  0.2543
 3382TIP3    H131637   6.635   4.249   3.648 -0.0245 -0.4701 -1.4090
 3382TIP3    H231638   6.706   4.311   3.529  1.1548  1.3715  0.2322
 3383TIP3   OH231639   1.834   5.963   0.967  0.1980  0.7291  0.5740
 3383TIP3    H131640   1.908   5.913   1.001  0.0173  0.2886  0.3234
 3383TIP3    H231641   1.774   5.970   1.041  0.4810  1.0707  0.7722
 3384TIP3   OH231642   5.775   4.077  15.539  0.0479 -0.0141 -0.5214
 3384TIP3    H131643   5.795   4.015  15.609 -2.6029  0.4321  0.6954
 3384TIP3    H231644   5.750   4.022  15.464 -0.0403 -0.4316 -0.1845
 3385TIP3   OH231645   4.592   5.966  14.255 -0.1516 -0.1211 -0.1930
 3385TIP3    H131646   4.560   6.043  14.302 -1.3461 -0.9659  0.4032
 3385TIP3    H231647   4.587   5.990  14.163 -2.7955 -0.3179 -0.1405
 3386TIP3   OH231648   3.114   3.924   4.410  0.7176 -0.1715 -0.6634
 3386TIP3    H131649   3.208   3.941   4.399  0.3798  2.1382 -0.2768
 3386TIP3    H231650   3.081   3.913   4.321  1.5542 -2.3780 -0.7484
 3387TIP3   OH231651   4.291   2.581   3.043  0.0230  0.7778  0.2243
 3387TIP3    H131652   4.344   2.619   3.114  0.6599 -0.0262  0.1833
 3387TIP3    H231653   4.252   2.503   3.080  0.3117  0.3837 -0.2903
 3388TIP3   OH231654   6.611   4.703   0.183 -0.0916  0.3247 -0.2220
 3388TIP3    H131655   6.650   4.730   0.100 -0.7368 -0.0894 -0.6671
 3388TIP3    H231656   6.675   4.728   0.249  0.3154  0.8921 -0.8224
 3389TIP3   OH231657   6.333   2.329   1.568  0.9324  0.0477 -0.8911
 3389TIP3    H131658   6.363   2.273   1.640 -1.0662  0.6417  0.4475
 3389TIP3    H231659   6.248   2.292   1.543  2.0932 -0.8510 -3.7724
 3390TIP3   OH231660   1.257   2.025   5.214  0.3313  0.4166  0.6048
 3390TIP3    H131661   1.339   2.056   5.252  1.2960  1.6986 -2.3549
 3390TIP3    H231662   1.270   1.932   5.200  1.9519  0.9074 -1.3732
 3391TIP3   OH231663   4.115   1.128  16.133 -0.6099 -0.5548  0.3938
 3391TIP3    H131664   4.195   1.160  16.091  0.2445 -0.9878  1.6849
 3391TIP3    H231665   4.132   1.035  16.149 -0.3730 -0.0919  2.9679
 3392TIP3   OH231666   2.610   3.537   5.823  0.1429 -0.1193 -0.4566
 3392TIP3    H131667   2.635   3.621   5.786 -0.2375 -0.1779 -0.8584
 3392TIP3    H231668   2.625   3.546   5.917 -0.6606  0.6759 -0.3944
 3393TIP3   OH231669   1.435   2.587   1.000  0.1962  0.2796 -0.3176
 3393TIP3    H131670   1.498   2.633   0.945  0.1190 -1.3824 -1.8219
 3393TIP3    H231671   1.350   2.625   0.977  0.5538  2.1507  1.3322
 3394TIP3   OH231672   4.276   6.398  14.922 -0.3284 -0.3956  0.2805
 3394TIP3    H131673   4.322   6.350  14.991 -2.5627 -2.2618  0.5091
 3394TIP3    H231674   4.326   6.377  14.843 -0.0213 -1.3750  0.7123
 3395TIP3   OH231675   5.574   4.138  13.835 -0.4529  0.3401 -0.0384
 3395TIP3    H131676   5.592   4.154  13.927 -2.0129  1.2851  0.1288
 3395TIP3    H231677   5.649   4.088  13.804  0.8469  1.3800  1.3508
 3396TIP3   OH231678   1.668   0.138   2.169  0.2806 -0.0467 -0.3210
 3396TIP3    H131679   1.627   0.222   2.151  1.5277  0.5373 -0.4287
 3396TIP3    H231680   1.660   0.089   2.087 -2.3618 -0.8512  0.3730
 3397TIP3   OH231681   5.904   2.433  12.475 -0.2225 -0.3282  0.0449
 3397TIP3    H131682   5.941   2.458  12.560  0.0511 -0.9297  0.1017
 3397TIP3    H231683   5.823   2.484  12.469 -0.9520 -1.3106  1.2866
 3398TIP3   OH231684   5.786   6.379   4.196  0.3466 -0.1748 -0.2158
 3398TIP3    H131685   5.839   6.317   4.246  0.4465  0.0377 -0.0596
 3398TIP3    H231686   5.815   6.465   4.225 -0.3349 -0.0541  0.1329
 3399TIP3   OH231687   1.922   2.200   1.543  0.0779 -0.1860 -0.7438
 3399TIP3    H131688   1.864   2.191   1.619  0.0679  3.0116 -0.3156
 3399TIP3    H231689   1.870   2.170   1.469 -2.0611  2.2607 -0.3039
 3400TIP3   OH231690   1.664   2.746   1.234 -0.4564  0.0558 -0.2202
 3400TIP3    H131691   1.722   2.678   1.269 -0.9287  0.5637  1.5672
 3400TIP3    H231692   1.581   2.733   1.280 -0.3838  2.1789  0.5634
 3401TIP3   OH231693   0.200   0.082  15.048  0.0089 -0.6725  0.7543
 3401TIP3    H131694   0.166   0.139  14.979  0.4128  0.1804  1.2478
 3401TIP3    H231695   0.126   0.072  15.108  0.6153  1.2223  1.8514
 3402TIP3   OH231696   4.300   3.802  11.856 -0.5327 -0.0081  0.2400
 3402TIP3    H131697   4.215   3.843  11.839  0.0487  0.4046 -1.7995
 3402TIP3    H231698   4.361   3.876  11.864  0.1826 -0.3683 -1.5568
 3403TIP3   OH231699   4.462   0.762  14.376  0.3967 -0.5035 -0.4086
 3403TIP3    H131700   4.379   0.764  14.329 -0.7772  2.7717  1.6388
 3403TIP3    H231701   4.524   0.805  14.316 -0.9394  3.0278  0.6297
 3404TIP3   OH231702   1.522   2.502  11.579 -0.2529 -0.0746  0.3018
 3404TIP3    H131703   1.529   2.450  11.659 -2.2917 -1.5261 -0.4117
 3404TIP3    H231704   1.429   2.523  11.572  0.1955  1.7187 -0.6623
 3405TIP3   OH231705   4.923   6.697   2.089 -0.5531 -1.0477 -0.5380
 3405TIP3    H131706   4.971   6.748   2.155  0.4255 -2.4579 -0.1287
 3405TIP3    H231707   4.961   6.724   2.006 -0.0719 -1.0618 -0.3266
 3406TIP3   OH231708   4.385   0.639  11.342 -0.1879 -0.2177 -0.7456
 3406TIP3    H131709   4.428   0.554  11.334 -0.3955 -0.4014  0.0250
 3406TIP3    H231710   4.337   0.634  11.425  1.1328  1.2512  0.1547
 3407TIP3   OH231711   2.374   4.616   1.949 -0.0110  0.0020 -0.0100
 3407TIP3    H131712   2.460   4.576   1.954 -0.9233 -1.9765  0.4656
 3407TIP3    H231713   2.354   4.642   2.038 -0.7038 -1.3408  0.2460
 3408TIP3   OH231714   1.338   3.745   3.881  0.0641 -0.5450  0.4134
 3408TIP3    H131715   1.353   3.701   3.965  2.3623 -3.2698 -1.3048
 3408TIP3    H231716   1.426   3.768   3.851 -0.7561  0.5497 -1.1973
 3409TIP3   OH231717   4.702   3.539  14.948 -0.2546 -0.3069 -0.0392
 3409TIP3    H131718   4.755   3.616  14.930  3.3627 -2.5389  0.6238
 3409TIP3    H231719   4.760   3.464  14.933 -2.9070 -2.8661  1.6634
 3410TIP3   OH231720   3.028   3.811   1.999 -0.7583  0.0731  0.0306
 3410TIP3    H131721   3.120   3.804   1.975 -0.6753  2.2493 -0.4168
 3410TIP3    H231722   3.029   3.858   2.082 -1.4842  0.3440 -0.1132
 3411TIP3   OH231723   6.577   2.898   4.953  0.0784  0.1516  0.0424
 3411TIP3    H131724   6.605   2.809   4.930  1.9179  0.1646  2.0815
 3411TIP3    H231725   6.498   2.885   5.005  0.1046 -0.2593 -0.0139
 3412TIP3   OH231726   3.309   5.315  11.754 -0.4042  0.8749  0.3162
 3412TIP3    H131727   3.400   5.344  11.746 -0.4728  0.9284 -0.3033
 3412TIP3    H231728   3.262   5.392  11.786 -0.4685  1.2780 -0.7006
 3413TIP3   OH231729   1.476   2.718   1.710 -0.0079 -0.6298  0.3469
 3413TIP3    H131730   1.508   2.808   1.717 -0.7185 -0.2368 -1.3660
 3413TIP3    H231731   1.555   2.665   1.696  0.3207 -0.1806  0.4832
 3414TIP3   OH231732   2.128   4.769  14.485  0.7554  0.1841  0.6531
 3414TIP3    H131733   2.051   4.711  14.483  0.3033  0.7637  1.0748
 3414TIP3    H231734   2.096   4.852  14.450  0.4116  1.3313  3.5308
 3415TIP3   OH231735   6.201   4.547  15.630 -1.5343 -0.1340 -0.0007
 3415TIP3    H131736   6.196   4.457  15.598  1.7694 -0.2947 -0.2042
 3415TIP3    H231737   6.155   4.598  15.563 -0.4685 -1.2771 -1.6483
 3416TIP3   OH231738   6.669   1.126  15.475 -0.1044 -0.7458  0.0885
 3416TIP3    H131739   6.701   1.216  15.490 -1.2740 -0.0937 -1.2365
 3416TIP3    H231740   6.623   1.103  15.556 -1.0267  0.3891 -0.1035
 3417TIP3   OH231741   4.804   0.565  17.216  0.5467 -0.4620 -0.6043
 3417TIP3    H131742   4.812   0.500  17.286  2.9851  0.6838  0.2523
 3417TIP3    H231743   4.846   0.524  17.140 -2.6510 -1.9561 -1.6602
 3418TIP3   OH231744   6.356   2.748  14.208  0.0937  0.1101  0.6080
 3418TIP3    H131745   6.277   2.697  14.221  1.4036 -1.8742  1.0510
 3418TIP3    H231746   6.419   2.685  14.172  1.4575  1.6488  0.2403
 3419TIP3   OH231747   3.135   5.578  14.819 -0.2613  0.1827 -0.0738
 3419TIP3    H131748   3.174   5.617  14.896  0.1909 -1.4573  0.5453
 3419TIP3    H231749   3.119   5.652  14.760  0.6317  1.2707  1.0276
 3420TIP3   OH231750   6.136   3.997   3.712  0.5058 -0.0986  0.3094
 3420TIP3    H131751   6.150   4.086   3.677  1.1972 -0.5586 -0.6146
 3420TIP3    H231752   6.184   3.997   3.795  0.9877  0.2206  0.0390
 3421TIP3   OH231753   5.969   3.675  13.271 -0.3329 -0.5567  0.1992
 3421TIP3    H131754   6.042   3.718  13.315 -1.0522  2.1336 -1.1008
 3421TIP3    H231755   5.986   3.690  13.178 -1.0797 -2.3993 -0.2620
 3422TIP3   OH231756   4.540   4.935  15.922 -0.4568 -0.3614  0.0333
 3422TIP3    H131757   4.481   4.916  15.995 -2.1311 -3.9485 -2.0953
 3422TIP3    H231758   4.482   4.957  15.850  0.9112 -1.2902 -1.3821
 3423TIP3   OH231759   6.594   2.478  15.563 -0.0530  0.0741  0.1606
 3423TIP3    H131760   6.509   2.436  15.551 -0.2771  0.4578  0.4020
 3423TIP3    H231761   6.574   2.571  15.576  0.2694 -0.0739  1.8752
 3424TIP3   OH231762   2.844   1.167  12.484 -0.2504 -0.1245  0.3041
 3424TIP3    H131763   2.862   1.218  12.405 -3.6159  0.2327 -0.3039
 3424TIP3    H231764   2.857   1.229  12.556  2.7824 -0.4367  0.0798
 3425TIP3   OH231765   5.271   1.468  11.489 -0.1554 -0.4429 -0.0228
 3425TIP3    H131766   5.348   1.514  11.458  1.7738 -0.5705  4.2597
 3425TIP3    H231767   5.205   1.537  11.502  0.4353  0.1638 -0.2394
 3426TIP3   OH231768   2.400   3.702   2.733  0.5099  0.6777  0.0362
 3426TIP3    H131769   2.310   3.669   2.739  0.8412 -0.2083  0.1758
 3426TIP3    H231770   2.455   3.624   2.737  1.2668  1.1484 -0.8276
 3427TIP3   OH231771   1.559   5.214  15.402  0.3107 -0.8428  0.2882
 3427TIP3    H131772   1.579   5.289  15.346 -0.6235 -0.6479  0.2074
 3427TIP3    H231773   1.626   5.217  15.470  1.1387 -0.7724 -0.5186
 3428TIP3   OH231774   2.943   5.539   0.800  0.1173 -0.2464  0.3944
 3428TIP3    H131775   3.025   5.588   0.788  0.4547 -0.7291  0.7544
 3428TIP3    H231776   2.963   5.451   0.770 -0.9903  0.2353 -1.9023
 3429TIP3   OH231777   2.331   2.208   2.999 -1.3431 -0.5173  0.4015
 3429TIP3    H131778   2.345   2.211   3.093 -1.6571 -1.1716  0.4722
 3429TIP3    H231779   2.353   2.118   2.974  1.0986  0.3058 -0.5328
 3430TIP3   OH231780   4.734   2.383   3.234 -0.1843 -0.1365 -0.4281
 3430TIP3    H131781   4.665   2.446   3.254  0.7700  0.5978  0.5689
 3430TIP3    H231782   4.769   2.412   3.150  0.0745  0.5129 -0.0974
 3431TIP3   OH231783   0.624   2.945   0.710 -0.6416 -0.1744 -0.5923
 3431TIP3    H131784   0.550   2.897   0.672  0.0109 -1.2848 -0.4860
 3431TIP3    H231785   0.686   2.876   0.737 -0.4875  0.6600  1.2279
 3432TIP3   OH231786   1.831   3.851   4.831 -0.0255 -0.6123  0.9133
 3432TIP3    H131787   1.924   3.863   4.815  0.0704  1.5969  2.8691
 3432TIP3    H231788   1.795   3.823   4.747  2.2032 -0.3709 -0.1444
 3433TIP3   OH231789   1.361   0.118  12.762 -0.8311  0.1147  0.6457
 3433TIP3    H131790   1.359   0.213  12.764 -0.6234  0.1795 -1.1508
 3433TIP3    H231791   1.390   0.092  12.850 -1.5833  1.6673  1.3686
 3434TIP3   OH231792   0.044   1.770  11.657 -0.2233  0.3562  0.8482
 3434TIP3    H131793  -0.006   1.720  11.593  0.0643  0.0177  0.8824
 3434TIP3    H231794  -0.021   1.805  11.717 -0.7426  2.6411 -0.9487
 3435TIP3   OH231795   4.342   3.417  17.176  0.5648 -0.2555  0.0113
 3435TIP3    H131796   4.383   3.431  17.261  2.2720 -2.1533 -0.4625
 3435TIP3    H231797   4.353   3.500  17.130 -1.2150  1.1053  1.9373
 3436TIP3   OH231798   0.351   2.616   3.121 -0.4331  0.9930 -0.1716
 3436TIP3    H131799   0.345   2.693   3.178  0.3492 -0.3471  1.7984
 3436TIP3    H231800   0.444   2.611   3.097 -0.2544  0.0348  0.6605
 3437TIP3   OH231801   1.171   4.175   2.818  0.1934 -0.4011  0.4465
 3437TIP3    H131802   1.215   4.243   2.766 -1.2262  0.8299  0.8057
 3437TIP3    H231803   1.222   4.170   2.898 -1.7836  2.9780  2.0438
 3438TIP3   OH231804   3.670   4.681   1.160 -0.3571 -0.2594  0.1940
 3438TIP3    H131805   3.648   4.648   1.247  2.4186  1.3975  1.5688
 3438TIP3    H231806   3.619   4.762   1.151 -0.4964 -0.3297  0.3343
 3439TIP3   OH231807   2.432   1.175  12.062  0.1074  0.5015  0.1415
 3439TIP3    H131808   2.390   1.242  12.008  1.1845  0.0117 -1.3325
 3439TIP3    H231809   2.418   1.094  12.014  2.4039  0.2825 -0.1907
 3440TIP3   OH231810   4.160   4.848  13.231 -0.1666 -0.6023 -0.4868
 3440TIP3    H131811   4.096   4.779  13.213  0.5746 -1.4423  0.1297
 3440TIP3    H231812   4.233   4.830  13.172  0.1453 -0.5056 -0.1323
 3441TIP3   OH231813   1.089   1.023   0.897 -0.2892 -0.2453 -0.3416
 3441TIP3    H131814   1.009   0.971   0.890 -0.4224  0.0770 -1.3707
 3441TIP3    H231815   1.158   0.960   0.917 -0.9916 -0.3714  1.8336
 3442TIP3   OH231816   4.592   1.386   3.112 -0.3218 -0.3080  0.3624
 3442TIP3    H131817   4.541   1.371   3.032  0.6727  1.8953 -0.7159
 3442TIP3    H231818   4.566   1.473   3.141  0.7409 -0.3239  1.3836
 3443TIP3   OH231819   0.496   3.631   2.319 -0.0629  0.2715  0.0153
 3443TIP3    H131820   0.467   3.719   2.345 -0.3027  0.2002 -0.0058
 3443TIP3    H231821   0.473   3.575   2.393 -0.1797  0.1762 -0.0934
 3444TIP3   OH231822   0.767   2.029  13.924 -0.7161 -0.0820  0.3485
 3444TIP3    H131823   0.717   2.035  13.843 -0.2787  0.4433  0.1211
 3444TIP3    H231824   0.753   2.113  13.968  0.1675  0.1629  0.1656
 3445TIP3   OH231825   2.010   0.414   2.610  0.6455 -0.0500 -0.2500
 3445TIP3    H131826   1.963   0.418   2.693  1.0729  0.7727 -0.0533
 3445TIP3    H231827   1.990   0.326   2.576 -2.7451  1.0205 -1.1837
 3446TIP3   OH231828   2.630   4.324   0.496  0.3843 -0.2938  0.3309
 3446TIP3    H131829   2.657   4.404   0.542  0.2351  0.0252 -0.1326
 3446TIP3    H231830   2.647   4.253   0.558  0.3978  0.1131  0.7912
 3447TIP3   OH231831   6.535   4.026   5.606  0.1552 -0.2146  0.0497
 3447TIP3    H131832   6.591   4.100   5.629 -0.4521 -0.5964  2.8649
 3447TIP3    H231833   6.570   3.995   5.522  0.6806  2.9430 -0.9505
 3448TIP3   OH231834   4.232   5.904   5.620 -0.2671 -0.1634  0.0044
 3448TIP3    H131835   4.198   5.826   5.666 -2.8094 -0.0131 -1.5400
 3448TIP3    H231836   4.154   5.952   5.594  1.2620  2.1280 -0.4613
 3449TIP3   OH231837   6.721   5.820   0.208  0.2167  0.2934 -0.4316
 3449TIP3    H131838   6.784   5.831   0.280 -0.8017  0.1205  0.5002
 3449TIP3    H231839   6.758   5.871   0.136  1.8370 -0.4632 -0.1619
 3450TIP3   OH231840   2.646   4.323   4.245  0.1955  0.0517  0.1340
 3450TIP3    H131841   2.610   4.297   4.330  1.0295  1.0844  0.8105
 3450TIP3    H231842   2.595   4.400   4.220 -1.1529 -1.2115 -1.0871
 3451TIP3   OH231843   1.454   3.661  15.121 -0.0795 -0.2252 -0.0712
 3451TIP3    H131844   1.490   3.741  15.084 -0.7289  0.8782  1.5931
 3451TIP3    H231845   1.530   3.603  15.133  0.1532 -0.5593 -2.8946
 3452TIP3   OH231846   0.868   3.392   0.723  0.0782 -0.2576  0.7814
 3452TIP3    H131847   0.955   3.408   0.760  0.2503 -0.1890  0.3493
 3452TIP3    H231848   0.812   3.376   0.800  0.2740  0.6518  1.1196
 3453TIP3   OH231849   0.429   6.087  15.257  0.4584  0.4443  0.5023
 3453TIP3    H131850   0.427   6.107  15.350 -0.0770  0.7933  0.4206
 3453TIP3    H231851   0.342   6.051  15.239 -0.1393  2.2236 -0.2598
 3454TIP3   OH231852   4.904   0.413  13.176  0.2320 -0.2194 -0.2180
 3454TIP3    H131853   4.965   0.394  13.248  1.4573 -2.1550 -1.7389
 3454TIP3    H231854   4.824   0.366  13.201 -1.1827  3.3539  2.4109
 3455TIP3   OH231855   3.739   2.631  14.260  0.1469  0.1643 -0.1158
 3455TIP3    H131856   3.751   2.543  14.224  0.6213  0.3375 -0.3842
 3455TIP3    H231857   3.739   2.617  14.355  1.9944  0.0868 -0.1128
 3456TIP3   OH231858   4.468   0.035   3.386  0.2772 -0.8955 -0.1070
 3456TIP3    H131859   4.407   0.031   3.459  0.2831  0.1183 -0.0354
 3456TIP3    H231860   4.552   0.057   3.427  0.0712  0.7051 -0.5138
 3457TIP3   OH231861   3.507   4.060  13.932 -0.1631 -0.2333  0.2473
 3457TIP3    H131862   3.569   4.132  13.945 -0.1267 -0.0343 -1.0162
 3457TIP3    H231863   3.533   3.994  13.997  1.3212 -0.1148 -0.1996
 3458TIP3   OH231864   5.107   1.124  12.277 -0.1276 -0.6555 -0.6516
 3458TIP3    H131865   5.151   1.208  12.292 -2.8246  0.8523 -0.9724
 3458TIP3    H231866   5.105   1.083  12.363  1.0890 -0.3520 -0.4603
 3459TIP3   OH231867   3.051   0.835  14.570  0.9723 -0.1375 -0.2605
 3459TIP3    H131868   3.140   0.825  14.603  1.3834  2.3434 -0.4815
 3459TIP3    H231869   3.061   0.890  14.492 -0.7089 -0.1700 -0.5169
 3460TIP3   OH231870   2.430   2.416   2.690 -0.0230  0.0654 -0.1674
 3460TIP3    H131871   2.417   2.504   2.725  1.1520  0.0338  0.3563
 3460TIP3    H231872   2.377   2.414   2.610 -2.2615  0.3188  1.2680
 3461TIP3   OH231873   2.594   5.090  11.355 -1.3824 -0.1887  0.5935
 3461TIP3    H131874   2.541   5.145  11.297 -1.7909  1.6101  2.6214
 3461TIP3    H231875   2.533   5.059  11.421 -0.5534 -0.7307  1.1086
 3462TIP3   OH231876   3.770   6.189   2.513 -0.0795  0.2242 -0.1717
 3462TIP3    H131877   3.836   6.231   2.568 -1.0769  0.8811  0.5543
 3462TIP3    H231878   3.696   6.250   2.515 -0.2725  0.0702 -1.9398
 3463TIP3   OH231879   2.703   2.838  12.269 -0.5200  0.2720 -0.0644
 3463TIP3    H131880   2.661   2.810  12.188  0.1249  0.0033 -0.3091
 3463TIP3    H231881   2.773   2.897  12.241  0.2855 -0.5304  0.2275
 3464TIP3   OH231882   5.522   5.613   6.065 -0.4033  0.0369  0.6506
 3464TIP3    H131883   5.430   5.629   6.085 -0.6239  1.6023 -1.4988
 3464TIP3    H231884   5.570   5.657   6.135 -1.2712 -1.5470  2.2860
 3465TIP3   OH231885   2.295   6.752   1.469  0.2107  0.5388 -0.2942
 3465TIP3    H131886   2.351   6.762   1.546 -1.1730  0.5007  0.7456
 3465TIP3    H231887   2.334   6.809   1.403  1.8692 -0.0263  0.1680
 3466TIP3   OH231888   3.415   2.049   5.436 -0.2787  0.1087 -0.4618
 3466TIP3    H131889   3.511   2.045   5.435 -0.2662 -0.2806  1.4813
 3466TIP3    H231890   3.388   1.975   5.381  0.5088 -1.1197  0.7819
 3467TIP3   OH231891   5.838   4.382   1.842 -0.0261 -0.2043 -0.2089
 3467TIP3    H131892   5.866   4.298   1.879  2.7194 -0.2294 -2.1726
 3467TIP3    H231893   5.750   4.365   1.807 -0.7005 -1.4426  1.9930
 3468TIP3   OH231894   4.858   0.876  12.379 -0.4547  1.1209  0.0829
 3468TIP3    H131895   4.844   0.852  12.470  0.3759 -0.7699 -0.2564
 3468TIP3    H231896   4.952   0.866  12.366 -0.5101  1.7634 -0.8909
 3469TIP3   OH231897   1.818   1.942   5.134  0.3700  0.0634  0.9092
 3469TIP3    H131898   1.761   2.001   5.183  0.6064 -1.0939  2.6190
 3469TIP3    H231899   1.843   1.875   5.197  2.4924 -0.2315 -0.2005
 3470TIP3   OH231900   0.889   4.272   3.159 -0.3653  0.0049  0.2983
 3470TIP3    H131901   0.951   4.343   3.177  0.3294 -0.7259  0.8646
 3470TIP3    H231902   0.922   4.199   3.212 -0.0780 -1.2605 -1.5889
 3471TIP3   OH231903   2.423   0.295  10.334  0.2546 -0.3028 -0.4890
 3471TIP3    H131904   2.512   0.331  10.324  0.0339 -0.1198 -1.8263
 3471TIP3    H231905   2.434   0.201  10.326  0.6500 -0.4698  1.7121
 3472TIP3   OH231906   0.129   6.044  15.591 -0.9887 -0.1054  0.6311
 3472TIP3    H131907   0.224   6.050  15.604 -0.5662 -2.6790 -0.9233
 3472TIP3    H231908   0.101   5.977  15.654 -1.6916  0.2226  0.6722
 3473TIP3   OH231909   6.586   4.511  10.494 -0.1177  0.2147 -0.8033
 3473TIP3    H131910   6.670   4.473  10.519 -0.9479 -1.1222  0.0291
 3473TIP3    H231911   6.591   4.602  10.523 -0.0913 -0.6453  1.9574
 3474TIP3   OH231912   1.451   0.315   4.322  0.2442  0.2795  0.3728
 3474TIP3    H131913   1.440   0.246   4.387  1.2667  2.7281  3.2391
 3474TIP3    H231914   1.363   0.353   4.313  0.3906  0.8703  1.4058
 3475TIP3   OH231915   3.781   1.302  11.335  0.5681 -0.0243 -0.2475
 3475TIP3    H131916   3.765   1.250  11.255  1.9073  0.2621 -0.7203
 3475TIP3    H231917   3.875   1.296  11.348  0.3536 -0.0713  1.3390
 3476TIP3   OH231918   5.956   5.611  12.624 -0.0051 -0.3035  0.4006
 3476TIP3    H131919   5.936   5.678  12.558 -0.0859 -0.2530  0.4756
 3476TIP3    H231920   6.032   5.645  12.671 -1.0850  0.5526  1.5706
 3477TIP3   OH231921   1.816   1.562  15.523  0.5708 -0.6866 -0.1005
 3477TIP3    H131922   1.867   1.517  15.456 -0.2251 -0.9540 -0.5271
 3477TIP3    H231923   1.847   1.653  15.520  0.4725 -0.6753 -0.8929
 3478TIP3   OH231924   6.578   0.938   2.668  0.0545 -0.6806 -0.5343
 3478TIP3    H131925   6.489   0.953   2.699 -0.0073  0.7212 -1.3450
 3478TIP3    H231926   6.571   0.942   2.572  1.0852 -0.0245 -0.5888
 3479TIP3   OH231927   0.982   6.461   3.827 -0.6754 -0.0272 -0.2685
 3479TIP3    H131928   0.998   6.374   3.791  0.9230 -0.4126  1.2654
 3479TIP3    H231929   0.949   6.445   3.916 -2.0835  0.9083 -0.6156
 3480TIP3   OH231930   3.143   1.380  16.443 -0.0643  0.0228 -0.0370
 3480TIP3    H131931   3.113   1.441  16.511 -1.4645 -0.0796 -0.5357
 3480TIP3    H231932   3.237   1.370  16.459 -0.7369 -1.7246  3.2593
 3481TIP3   OH231933   3.601   2.953   2.568 -0.4794  0.0467 -0.2108
 3481TIP3    H131934   3.603   2.949   2.664 -1.5272 -1.0422 -0.2186
 3481TIP3    H231935   3.574   2.865   2.542 -0.9243  0.5638 -1.4891
 3482TIP3   OH231936   4.224   4.826   5.579 -0.1746 -0.8795 -0.2719
 3482TIP3    H131937   4.221   4.870   5.665 -0.2347 -0.4126 -0.5117
 3482TIP3    H231938   4.134   4.825   5.550 -0.0259 -0.1572 -0.7712
 3483TIP3   OH231939   2.335   5.759  16.956 -0.0712  0.6859 -0.2614
 3483TIP3    H131940   2.337   5.841  16.906  1.2305  0.9453  0.1855
 3483TIP3    H231941   2.270   5.705  16.911 -0.5943  1.7821 -0.8510
 3484TIP3   OH231942   4.030   1.012   1.163 -0.4514 -0.1487  1.2344
 3484TIP3    H131943   4.071   0.936   1.203  0.2226  0.9785  2.7711
 3484TIP3    H231944   4.103   1.070   1.142 -0.8199 -0.6450 -1.5125
 3485TIP3   OH231945   5.084   2.796   3.310 -0.2522  0.0304  0.3795
 3485TIP3    H131946   5.004   2.836   3.342  0.0416  1.7998 -1.0070
 3485TIP3    H231947   5.149   2.866   3.311  1.2528 -1.3195  1.3082
 3486TIP3   OH231948   1.402   6.327   0.114  0.3902  0.8591 -0.4155
 3486TIP3    H131949   1.351   6.404   0.088 -0.9839  0.2379  0.4194
 3486TIP3    H231950   1.458   6.359   0.185 -0.5100  0.9682  0.2424
 3487TIP3   OH231951   1.393   2.867  11.990  0.6406 -0.4323  0.5320
 3487TIP3    H131952   1.411   2.959  11.969  1.1265 -0.3279  1.3951
 3487TIP3    H231953   1.386   2.824  11.904  0.3246  0.4194  0.1231
 3488TIP3   OH231954   4.530   6.634  10.396 -0.8144 -0.1389  0.2601
 3488TIP3    H131955   4.614   6.642  10.441 -1.2142 -0.9214  1.1452
 3488TIP3    H231956   4.532   6.546  10.358 -0.8389  0.1982 -0.5425
 3489TIP3   OH231957   6.647   5.205  16.187 -0.6029  0.3776 -0.0559
 3489TIP3    H131958   6.594   5.130  16.160 -0.7418 -0.6306  2.8163
 3489TIP3    H231959   6.729   5.196  16.138  0.1108 -2.7157  1.5781
 3490TIP3   OH231960   3.569   1.800  17.177  0.2212  0.2928 -0.0106
 3490TIP3    H131961   3.611   1.830  17.096 -0.5192 -0.1671 -0.5659
 3490TIP3    H231962   3.478   1.828  17.169 -0.5889 -2.3959 -0.7178
 3491TIP3   OH231963   0.750   4.883   0.583  0.1376 -0.8084  0.2122
 3491TIP3    H131964   0.795   4.860   0.502 -0.6475  2.0425 -1.1073
 3491TIP3    H231965   0.793   4.831   0.651  1.8073 -2.1269 -1.8035
 3492TIP3   OH231966   2.411   3.277   4.371  0.2631 -0.2768 -0.4406
 3492TIP3    H131967   2.502   3.252   4.359  0.1715  0.5226 -3.2103
 3492TIP3    H231968   2.414   3.361   4.417  0.8998 -0.5692  0.0479
 3493TIP3   OH231969   0.687   3.947   3.872 -0.0108 -0.2278  0.0519
 3493TIP3    H131970   0.689   4.019   3.808 -0.2511  0.0576  0.3636
 3493TIP3    H231971   0.779   3.935   3.896 -0.1792  1.5066  1.6961
 3494TIP3   OH231972   6.105   1.327  14.609  0.3983 -0.0527  0.2395
 3494TIP3    H131973   6.162   1.372  14.671  0.1850  0.4766  0.0603
 3494TIP3    H231974   6.050   1.271  14.663  1.0146 -0.4807  0.4197
 3495TIP3   OH231975   1.971   4.615  17.176  0.4795 -0.0379  0.3214
 3495TIP3    H131976   1.899   4.622  17.239 -0.2131  1.9001 -0.6264
 3495TIP3    H231977   2.024   4.543  17.208  0.0033  0.7395  2.9976
 3496TIP3   OH231978   1.677   1.565  13.737 -0.2590  0.2260  0.0952
 3496TIP3    H131979   1.759   1.614  13.737 -0.4424  0.5382  0.1452
 3496TIP3    H231980   1.693   1.490  13.794  0.3168 -0.2728 -0.7154
 3497TIP3   OH231981   3.507   2.596   4.079  0.0714 -0.1141 -0.4798
 3497TIP3    H131982   3.574   2.600   4.147 -1.6430 -1.8024  1.3899
 3497TIP3    H231983   3.431   2.640   4.116 -0.5317 -0.0491 -1.7424
 3498TIP3   OH231984   5.477   3.948  12.256 -0.9026  0.5853 -0.4116
 3498TIP3    H131985   5.540   3.987  12.196  1.7797 -1.0685  1.2248
 3498TIP3    H231986   5.465   4.015  12.324  1.4263 -0.1977  0.8338
 3499TIP3   OH231987   0.450   6.626   1.686  0.6815  0.2944  0.3967
 3499TIP3    H131988   0.431   6.598   1.776  2.0673  0.1800  0.6727
 3499TIP3    H231989   0.365   6.633   1.644 -0.0584  1.3542  2.0186
 3500TIP3   OH231990   5.200   6.125  14.430  0.1392 -0.6755  0.2668
 3500TIP3    H131991   5.284   6.111  14.387  0.2027  1.0601 -0.2074
 3500TIP3    H231992   5.136   6.126  14.359 -0.1747 -1.1743  0.5429
 3501TIP3   OH231993   4.333   4.759   4.339 -0.3822  0.9448 -0.0446
 3501TIP3    H131994   4.287   4.756   4.423 -0.3941 -0.7588 -0.1005
 3501TIP3    H231995   4.424   4.737   4.360 -0.3875  0.5103 -0.4690
 3502TIP3   OH231996   0.630   2.685   3.155  0.4699 -0.5441  0.4023
 3502TIP3    H131997   0.641   2.729   3.240  1.0285  1.3426 -0.6130
 3502TIP3    H231998   0.658   2.750   3.091  0.3324 -2.0545 -1.2258
 3503TIP3   OH231999   4.789   5.935   0.437 -0.1099  0.0528  0.2079
 3503TIP3    H132000   4.776   5.934   0.342 -0.8766  1.6108  0.2783
 3503TIP3    H232001   4.760   5.849   0.466  0.8067 -0.7010 -1.0493
 3504TIP3   OH232002   6.256   1.026   2.034 -0.1651 -0.7393 -0.1681
 3504TIP3    H132003   6.281   0.935   2.049  1.3478 -0.5651 -1.4693
 3504TIP3    H232004   6.315   1.056   1.964  1.3530  2.0941  2.1871
 3505TIP3   OH232005   3.631   4.841   3.216 -0.2192 -0.0935  0.2856
 3505TIP3    H132006   3.595   4.929   3.210  2.8399  1.4850  3.5959
 3505TIP3    H232007   3.705   4.841   3.156  0.8457  0.1931  1.5763
 3506TIP3   OH232008   3.707   3.353  12.572 -0.2472 -0.2909 -0.1690
 3506TIP3    H132009   3.725   3.392  12.658  0.7985  1.1832 -1.0243
 3506TIP3    H232010   3.738   3.263  12.580  1.6555  0.3828  0.4243
 3507TIP3   OH232011   6.544   5.336  13.499 -0.1187  0.0904  0.1644
 3507TIP3    H132012   6.522   5.383  13.580  0.1668  0.9869 -0.2768
 3507TIP3    H232013   6.635   5.307  13.513  0.4640  1.5989 -0.4712
 3508TIP3   OH232014   0.098   2.975   1.677 -0.1877  0.2240  0.1303
 3508TIP3    H132015   0.082   3.070   1.678 -2.9655 -0.1587 -1.6509
 3508TIP3    H232016   0.013   2.937   1.653  0.8277 -2.7397  1.0822
 3509TIP3   OH232017   1.305   0.113  11.828  0.0230  0.1239 -0.5928
 3509TIP3    H132018   1.391   0.123  11.868  0.6118  1.0173 -2.0346
 3509TIP3    H232019   1.244   0.109  11.902  1.3279 -0.9142  0.4481
 3510TIP3   OH232020   6.225   4.971  11.390 -0.2914 -0.4548  0.4224
 3510TIP3    H132021   6.176   5.051  11.408 -1.0766 -0.5472 -1.2123
 3510TIP3    H232022   6.170   4.901  11.427 -0.3984 -0.3769  0.4113
 3511TIP3   OH232023   1.493   2.885  15.547  0.3057  0.1730 -0.2586
 3511TIP3    H132024   1.585   2.909  15.547  0.2997  0.2294  1.1882
 3511TIP3    H232025   1.447   2.966  15.522  0.5404  0.6243  0.7416
 3512TIP3   OH232026   6.363   2.705   3.948 -0.6568 -0.4901  0.3749
 3512TIP3    H132027   6.404   2.692   4.034  0.6950  1.9616  0.1408
 3512TIP3    H232028   6.295   2.638   3.944  0.2521 -1.6236  2.7267
 3513TIP3   OH232029   0.211   4.475   1.776 -0.1575 -0.1957 -0.1972
 3513TIP3    H132030   0.252   4.413   1.836 -2.6625 -0.9585  0.7791
 3513TIP3    H232031   0.208   4.557   1.825  1.0396  0.1258 -0.6343
 3514TIP3   OH232032   4.332   0.298   4.105  0.0313 -0.0833  0.7983
 3514TIP3    H132033   4.414   0.313   4.058  1.2104  0.0962  2.8320
 3514TIP3    H232034   4.273   0.365   4.072 -0.0530 -1.6185 -2.3357
 3515TIP3   OH232035   2.739   0.309  15.110 -0.1872 -0.2323  0.1866
 3515TIP3    H132036   2.683   0.231  15.102  0.0028 -0.2572 -0.9286
 3515TIP3    H232037   2.698   0.374  15.053 -1.7171  1.3334  2.9019
 3516TIP3   OH232038   3.686   0.754   1.674 -0.5907 -0.5183  0.0006
 3516TIP3    H132039   3.710   0.768   1.582  0.0753  0.4522  0.3159
 3516TIP3    H232040   3.724   0.829   1.720 -1.3313 -0.7522  1.0009
 3517TIP3   OH232041   4.023   5.125   4.436 -0.8131 -0.6254 -0.1310
 3517TIP3    H132042   4.056   5.082   4.357 -0.6832 -0.8658  0.0552
 3517TIP3    H232043   4.091   5.189   4.458 -1.3583  0.2114 -0.8443
 3518TIP3   OH232044   4.688   2.525   0.416  0.7891 -0.1481 -0.4846
 3518TIP3    H132045   4.671   2.606   0.464  1.3110  0.7459 -1.7837
 3518TIP3    H232046   4.783   2.523   0.405  0.7476 -0.7553 -0.7703
 3519TIP3   OH232047   1.301   2.176  16.662 -0.0746 -0.1045  0.5224
 3519TIP3    H132048   1.217   2.220  16.666 -0.0297 -0.2064  3.7235
 3519TIP3    H232049   1.359   2.239  16.619 -1.2061  0.9084  0.4650
 3520TIP3   OH232050   2.097   5.113  15.070 -0.0316  0.5236  0.2501
 3520TIP3    H132051   2.105   5.177  15.000  0.9951  0.5065  0.3489
 3520TIP3    H232052   2.133   5.033  15.034 -0.7597  0.1473  0.3371
 3521TIP3   OH232053   2.305   5.446   4.784 -0.2044  0.2565  0.0769
 3521TIP3    H132054   2.373   5.400   4.832  0.0915 -0.5003 -1.0376
 3521TIP3    H232055   2.224   5.422   4.827 -0.1894 -2.4207 -1.3007
 3522TIP3   OH232056   4.081   4.729   6.666  0.6315 -0.1321 -0.0943
 3522TIP3    H132057   4.068   4.635   6.677  1.6160 -0.3001 -0.3249
 3522TIP3    H232058   4.176   4.741   6.666  0.5103  0.9597  0.7275
 3523TIP3   OH232059   0.625   2.719   6.944 -0.1607  0.1782 -0.1896
 3523TIP3    H132060   0.601   2.626   6.942  0.5189 -0.0142  0.5773
 3523TIP3    H232061   0.545   2.764   6.973  0.3378 -0.4434  2.2037
 3524TIP3   OH232062   0.670   1.675  14.776 -0.4271 -0.5213 -0.6853
 3524TIP3    H132063   0.705   1.760  14.801 -1.0606 -0.0834 -1.2684
 3524TIP3    H232064   0.603   1.656  14.842  0.3137 -0.9774 -0.0525
 3525TIP3   OH232065   0.138   5.447   2.765 -0.0101  0.0843  0.6342
 3525TIP3    H132066   0.214   5.393   2.786 -1.2360 -1.9243  0.0270
 3525TIP3    H232067   0.120   5.496   2.846  0.1761 -1.5934  1.7153
 3526TIP3   OH232068   4.605   2.073  16.327 -0.4680  0.5581 -0.4121
 3526TIP3    H132069   4.519   2.100  16.295 -0.9410 -0.7142 -0.2251
 3526TIP3    H232070   4.591   1.986  16.363  1.0146  0.1213 -0.8644
 3527TIP3   OH232071   4.567   5.106   0.674  0.0782  0.0042 -0.1513
 3527TIP3    H132072   4.509   5.099   0.750  0.8535  1.3537  0.5699
 3527TIP3    H232073   4.539   5.186   0.630  0.2557 -0.2765 -0.7778
 3528TIP3   OH232074   5.130   3.118   3.457  0.1614  0.7937 -0.7029
 3528TIP3    H132075   5.215   3.129   3.499  0.5386 -0.7090 -1.0586
 3528TIP3    H232076   5.067   3.117   3.529  0.5997  0.2951 -0.3280
 3529TIP3   OH232077   5.713   2.916   1.198 -0.1697 -0.4289 -0.6286
 3529TIP3    H132078   5.773   2.942   1.268 -0.4123  0.9903 -0.9464
 3529TIP3    H232079   5.728   2.980   1.129 -2.4431  0.2620 -0.4998
 3530TIP3   OH232080   3.829   4.360   1.240  0.5995 -0.5323 -0.1884
 3530TIP3    H132081   3.791   4.433   1.289  1.1305 -1.7481  2.1048
 3530TIP3    H232082   3.920   4.356   1.271 -0.0841 -3.7298  1.6429
 3531TIP3   OH232083   2.191   3.710   4.188 -0.3253  0.3820 -0.1915
 3531TIP3    H132084   2.121   3.754   4.139  0.8813  0.0598 -2.2356
 3531TIP3    H232085   2.160   3.620   4.197  0.4691 -0.1426 -2.4234
 3532TIP3   OH232086   1.407   0.546   4.824 -0.5316  0.7178  0.5258
 3532TIP3    H132087   1.388   0.634   4.794  1.6987  0.6221 -1.2227
 3532TIP3    H232088   1.471   0.511   4.762 -0.9404 -1.9302  1.4950
 3533TIP3   OH232089   5.485   4.224   3.931 -0.0578 -0.2113 -0.0998
 3533TIP3    H132090   5.434   4.177   3.997 -0.6865 -0.5514 -0.8167
 3533TIP3    H232091   5.423   4.287   3.894  0.1639 -0.3343 -0.6786
 3534TIP3   OH232092   4.930   6.032  14.898  0.1160 -0.2159  0.2094
 3534TIP3    H132093   4.991   6.000  14.965 -0.1357 -0.6266  0.2434
 3534TIP3    H232094   4.934   6.128  14.907  0.6486 -0.2435  0.3039
 3535TIP3   OH232095   4.838   5.581  14.728  0.5696 -0.4964  0.1224
 3535TIP3    H132096   4.856   5.575  14.634  1.2251 -1.0810  0.2830
 3535TIP3    H232097   4.802   5.495  14.751 -1.3681  0.2489  0.0464
 3536TIP3   OH232098   1.279   5.370  14.040 -0.1901 -0.4640  0.0827
 3536TIP3    H132099   1.207   5.363  13.978  0.2199  0.6109 -0.5320
 3536TIP3    H232100   1.259   5.306  14.109 -0.6910 -1.6025 -1.0998
 3537TIP3   OH232101   0.677   6.098  12.114 -0.2035  0.3746 -0.7710
 3537TIP3    H132102   0.726   6.040  12.172 -1.5755  0.3999  0.4173
 3537TIP3    H232103   0.723   6.182  12.118  0.2597  0.1062 -0.4834
 3538TIP3   OH232104   6.575   4.919  10.700  0.1500  0.3452 -0.2917
 3538TIP3    H132105   6.589   4.873  10.617 -0.2338  0.3186 -0.3451
 3538TIP3    H232106   6.649   4.894  10.754 -1.3556 -2.4067  0.5951
 3539TIP3   OH232107   2.366   5.244   3.224 -0.3143  0.0066  0.3069
 3539TIP3    H132108   2.431   5.251   3.294 -0.0826 -1.0940  0.2216
 3539TIP3    H232109   2.414   5.267   3.145  0.8272 -3.6387 -0.1755
 3540TIP3   OH232110   5.391   4.491  11.966  0.1959  0.1643 -0.1720
 3540TIP3    H132111   5.419   4.485  11.875  0.9024 -0.2342  0.0695
 3540TIP3    H232112   5.371   4.400  11.991  1.3061  0.0863  0.4759
 3541TIP3   OH232113   5.112   5.268  11.673 -0.6132  0.2487  0.3333
 3541TIP3    H132114   5.048   5.198  11.659 -0.0172 -0.4447  0.9856
 3541TIP3    H232115   5.197   5.224  11.665 -0.2355  0.8991  0.7492
 3542TIP3   OH232116   6.706   4.774   5.081 -0.1609  0.5331  0.0574
 3542TIP3    H132117   6.688   4.786   4.988  0.3696  1.5255  0.0805
 3542TIP3    H232118   6.795   4.806   5.093  0.2103 -0.7174  0.6797
 3543TIP3   OH232119   0.495   4.808   1.420  0.2911  0.4868  0.3541
 3543TIP3    H132120   0.475   4.745   1.490 -2.2731  0.7390 -0.1208
 3543TIP3    H232121   0.511   4.753   1.343 -1.6048  0.3983  0.0200
 3544TIP3   OH232122   4.221   0.150  15.816 -0.2988 -0.1495 -0.1876
 3544TIP3    H132123   4.131   0.127  15.839 -0.0781  0.9105  1.8269
 3544TIP3    H232124   4.272   0.071  15.834 -0.4098  0.1105  1.2967
 3545TIP3   OH232125   3.486   3.342   2.108 -0.3417 -0.0005  0.4813
 3545TIP3    H132126   3.565   3.293   2.083  0.7492  1.8343  0.3081
 3545TIP3    H232127   3.491   3.348   2.203 -0.1298  0.3510  0.4485
 3546TIP3   OH232128   0.099   5.880   5.415  0.6176 -0.3695 -0.3903
 3546TIP3    H132129   0.144   5.815   5.362  0.2935 -0.4287 -0.5955
 3546TIP3    H232130   0.140   5.963   5.392  1.1279 -0.5174 -0.0228
 3547TIP3   OH232131   0.292   3.813   3.681 -0.4186 -0.3935 -0.3318
 3547TIP3    H132132   0.222   3.867   3.646  0.0254 -0.9435 -2.1118
 3547TIP3    H232133   0.308   3.747   3.613  3.7182  1.3825 -1.2317
 3548TIP3   OH232134   4.058   3.744  15.843 -0.2604 -0.4098 -0.4952
 3548TIP3    H132135   4.143   3.774  15.876  0.1665 -0.3248 -1.6429
 3548TIP3    H232136   3.997   3.763  15.914  1.0224 -2.4135  1.2097
 3549TIP3   OH232137   1.309   1.363  11.360 -0.5064  0.1858 -0.0331
 3549TIP3    H132138   1.232   1.307  11.365 -1.3703  1.3660  0.1383
 3549TIP3    H232139   1.345   1.347  11.273 -0.4205 -1.0358  0.2184
 3550TIP3   OH232140   0.103   2.889  16.458 -0.3972 -0.2771  0.5105
 3550TIP3    H132141   0.113   2.803  16.417 -0.6513 -0.2548  0.4007
 3550TIP3    H232142   0.087   2.949  16.385 -2.7838 -0.5397  0.7911
 3551TIP3   OH232143   0.272   1.955  16.187  0.3614 -0.1087 -0.2722
 3551TIP3    H132144   0.209   2.019  16.155 -0.8395 -2.1009 -1.9613
 3551TIP3    H232145   0.219   1.883  16.221  1.7018 -1.7114 -1.4916
 3552TIP3   OH232146   5.932   0.891  13.663  0.1304 -0.2473  0.3537
 3552TIP3    H132147   5.848   0.880  13.708 -0.7178  0.2691 -1.0703
 3552TIP3    H232148   5.961   0.979  13.689  0.6104 -0.7358  1.4675
 3553TIP3   OH232149   2.743   4.943  15.542 -0.0644  0.1447 -0.5528
 3553TIP3    H132150   2.795   4.954  15.463  2.0647 -0.3103  0.7537
 3553TIP3    H232151   2.694   4.862  15.528  0.1534  0.1695 -1.4694
 3554TIP3   OH232152   0.376   6.448  15.404 -0.1364 -0.2291 -0.2284
 3554TIP3    H132153   0.299   6.485  15.360  0.1274  0.0048 -0.4958
 3554TIP3    H232154   0.427   6.524  15.431  0.0024 -0.3844 -0.0511
 3555TIP3   OH232155   0.361   1.290   3.824  0.0684  1.0584  0.1698
 3555TIP3    H132156   0.354   1.276   3.919 -2.5638 -2.4173 -0.4277
 3555TIP3    H232157   0.446   1.253   3.801  0.8384  2.1624  1.2182
 3556TIP3   OH232158   6.205   6.114   2.275  0.5700  0.0949 -0.1007
 3556TIP3    H132159   6.204   6.163   2.358  0.5553 -0.4015  0.1945
 3556TIP3    H232160   6.147   6.164   2.217  0.3020  0.2533  0.3007
 3557TIP3   OH232161   0.121   0.854   3.758 -0.4852 -0.0565 -0.0211
 3557TIP3    H132162   0.055   0.852   3.828 -2.5134  0.0317 -1.8749
 3557TIP3    H232163   0.174   0.775   3.772 -1.7769 -0.8042  0.7555
 3558TIP3   OH232164   0.657   2.175  16.290 -0.3662  0.1168 -0.2415
 3558TIP3    H132165   0.656   2.105  16.226  0.4235 -0.5871  0.5083
 3558TIP3    H232166   0.564   2.193  16.308 -0.5627 -1.1324  0.0016
 3559TIP3   OH232167   6.102   5.664  13.149  0.0241 -0.3328  0.1673
 3559TIP3    H132168   6.099   5.690  13.241  0.1573  0.3551 -0.0131
 3559TIP3    H232169   6.180   5.609  13.142 -0.7563 -1.5187  0.7384
 3560TIP3   OH232170   2.098   5.200  12.573 -0.1147  0.4411 -0.5070
 3560TIP3    H132171   2.146   5.195  12.490  0.1799  1.4968 -0.4006
 3560TIP3    H232172   2.016   5.243  12.550  0.2464  1.3406 -0.1249
 3561TIP3   OH232173   4.006   4.335  11.210  0.1674 -0.0227  0.4462
 3561TIP3    H132174   3.998   4.313  11.117 -0.1071 -0.8700  0.6638
 3561TIP3    H232175   3.919   4.368  11.234 -0.4381 -1.8642  0.9160
 3562TIP3   OH232176   5.980   1.013   0.437  0.0763 -0.7276  0.1811
 3562TIP3    H132177   5.976   1.014   0.533 -0.6145 -0.1989  0.1521
 3562TIP3    H232178   6.071   0.992   0.417  0.1772 -1.0333  0.9563
 3563TIP3   OH232179   1.755   4.573   4.112  0.1351 -0.4934  0.3053
 3563TIP3    H132180   1.792   4.509   4.173 -0.3026 -0.7387  0.3095
 3563TIP3    H232181   1.670   4.537   4.087  0.6038 -0.7347 -0.9792
 3564TIP3   OH232182   4.602   5.319   0.215 -0.1551  0.1648  0.0415
 3564TIP3    H132183   4.694   5.304   0.194  0.3387  2.2105  0.6815
 3564TIP3    H232184   4.563   5.231   0.211  1.9673 -0.8498  0.5655
 3565TIP3   OH232185   6.197   1.108   2.275 -0.9313 -0.2304  0.3475
 3565TIP3    H132186   6.235   1.045   2.337  0.0988  1.1360  1.1078
 3565TIP3    H232187   6.202   1.064   2.190  0.4083 -0.9048  0.7646
 3566TIP3   OH232188   4.766   1.513   3.441 -0.2414  0.1746 -0.3181
 3566TIP3    H132189   4.677   1.520   3.475 -1.1594  2.3608 -2.9399
 3566TIP3    H232190   4.815   1.580   3.489 -0.7327  0.9753 -0.9147
 3567TIP3   OH232191   3.903   4.440   5.754 -0.5222 -0.1790  0.1602
 3567TIP3    H132192   3.995   4.467   5.746 -0.1295 -1.6740 -0.5217
 3567TIP3    H232193   3.871   4.441   5.664 -1.0743 -0.0423  0.3584
 3568TIP3   OH232194   3.375   4.500   3.029 -0.3139  0.1485 -0.1067
 3568TIP3    H132195   3.362   4.593   3.009  2.6736  0.5305 -0.5982
 3568TIP3    H232196   3.302   4.456   2.985 -1.9296  2.2689  0.3635
 3569TIP3   OH232197   4.868   5.419   5.148  0.5056 -0.7838  0.1602
 3569TIP3    H132198   4.948   5.414   5.095  0.8090 -2.2740  0.7418
 3569TIP3    H232199   4.864   5.511   5.177  1.4659 -0.4669 -0.6869
 3570TIP3   OH232200   1.634   0.311   1.765 -0.2982 -0.6799  0.1576
 3570TIP3    H132201   1.716   0.332   1.720 -0.3249 -0.9576 -0.0176
 3570TIP3    H232202   1.640   0.359   1.848 -0.6481  0.5832 -0.5240
 3571TIP3   OH232203   3.609   6.722  15.057 -0.3657 -0.1790  0.0974
 3571TIP3    H132204   3.619   6.783  15.130  0.1212  1.0159 -0.9497
 3571TIP3    H232205   3.682   6.743  14.998  0.6469 -2.7201  0.3771
 3572TIP3   OH232206   6.708   3.307  10.798  0.0724 -0.2205 -0.0009
 3572TIP3    H132207   6.618   3.335  10.812 -0.4258 -1.5824 -0.3764
 3572TIP3    H232208   6.732   3.344  10.713  0.0331  0.5262  0.3063
 3573TIP3   OH232209   0.224   6.202   2.125 -0.3698  0.1576  0.4863
 3573TIP3    H132210   0.302   6.147   2.133 -0.2411  0.5747  2.3427
 3573TIP3    H232211   0.155   6.152   2.169 -0.6377  0.7260  0.7120
 3574TIP3   OH232212   0.083   3.885  15.012  0.1215  0.0280  0.1209
 3574TIP3    H132213   0.148   3.909  15.078 -1.1664  0.6894  1.1838
 3574TIP3    H232214   0.084   3.789  15.011 -0.3828 -0.0139  1.6904
 3575TIP3   OH232215   0.754   5.303   1.089 -0.0807 -0.0038  0.3365
 3575TIP3    H132216   0.816   5.232   1.071  0.4138  0.6131 -0.4735
 3575TIP3    H232217   0.672   5.274   1.050 -0.3600 -0.9275  1.6108
 3576TIP3   OH232218   1.741   5.876   0.076  0.0196  0.2396 -0.3658
 3576TIP3    H132219   1.735   5.857   0.169 -2.7689  0.0410 -0.5565
 3576TIP3    H232220   1.722   5.970   0.069  0.0921  0.2272 -0.7550
 3577TIP3   OH232221   0.079   6.301  16.839  0.5632  0.0294  0.1035
 3577TIP3    H132222   0.070   6.239  16.767 -0.4008  1.3803 -0.9689
 3577TIP3    H232223   0.101   6.247  16.915  1.0365 -1.4698 -1.0780
 3578TIP3   OH232224   1.563   3.719   0.620 -0.1882 -0.3712  0.1235
 3578TIP3    H132225   1.562   3.630   0.585  1.9699  0.4116 -2.0879
 3578TIP3    H232226   1.598   3.772   0.549  0.9678  1.8661  2.2825
 3579TIP3   OH232227   2.387   1.330   4.872 -0.2810  0.1684 -0.7377
 3579TIP3    H132228   2.457   1.266   4.860  0.1009  0.1875  1.1764
 3579TIP3    H232229   2.433   1.414   4.878 -0.5520  0.2918 -0.4100
 3580TIP3   OH232230   3.963   5.730  15.294  0.0620 -0.0830 -0.7365
 3580TIP3    H132231   3.886   5.786  15.287 -0.2101 -0.3663 -0.0675
 3580TIP3    H232232   4.022   5.779  15.351 -0.3963 -0.7159  0.2882
 3581TIP3   OH232233   5.279   2.342  14.911  0.2145  0.2659  0.4844
 3581TIP3    H132234   5.243   2.403  14.976  1.3533  0.9679  0.4557
 3581TIP3    H232235   5.368   2.324  14.941  0.1663 -0.7638  0.0502
 3582TIP3   OH232236   6.469   1.961  13.575 -0.4298 -0.7022 -0.4303
 3582TIP3    H132237   6.426   2.001  13.650 -0.6296 -0.3684 -0.7214
 3582TIP3    H232238   6.562   1.980  13.588 -0.6776  1.3737 -1.4538
 3583TIP3   OH232239   6.591   3.239   2.544  0.2940 -0.8849 -0.3801
 3583TIP3    H132240   6.560   3.319   2.502 -0.7344 -0.3132  1.4260
 3583TIP3    H232241   6.511   3.187   2.556  0.6651 -1.2826  0.3503
 3584TIP3   OH232242   1.233   6.350   5.045  0.4915 -0.2168 -0.0924
 3584TIP3    H132243   1.219   6.255   5.041  0.1692 -0.2447  1.2118
 3584TIP3    H232244   1.216   6.372   5.137  2.3520  0.8254  0.0166
 3585TIP3   OH232245   0.840   3.931  15.239 -0.1403  0.3293 -0.1006
 3585TIP3    H132246   0.777   3.898  15.302 -0.4485 -1.4307 -1.2915
 3585TIP3    H232247   0.789   3.991  15.184 -1.0693 -1.8895 -1.7180
 3586TIP3   OH232248   2.591   1.850   4.750  0.4980  0.6597 -0.0035
 3586TIP3    H132249   2.647   1.846   4.828  0.0154 -1.8199  0.2660
 3586TIP3    H232250   2.509   1.888   4.781 -0.0009 -1.1056  0.9453
 3587TIP3   OH232251   2.325   3.550   5.306  0.3004 -0.7917  0.4754
 3587TIP3    H132252   2.387   3.595   5.363  2.8048  0.4753 -3.1156
 3587TIP3    H232253   2.372   3.474   5.274 -1.6213 -2.3433  1.2644
 3588TIP3   OH232254   5.022   2.781   0.583 -0.6095  0.3299  0.7667
 3588TIP3    H132255   5.051   2.844   0.517 -0.3068  0.4361  0.9962
 3588TIP3    H232256   5.058   2.815   0.665 -0.8581  0.1180  0.9621
 3589TIP3   OH232257   5.477   6.041  16.177  0.0001  0.1668 -0.4628
 3589TIP3    H132258   5.392   6.083  16.168  0.2831  0.4421 -2.0296
 3589TIP3    H232259   5.537   6.097  16.127  0.7275 -1.0989 -1.0271
 3590TIP3   OH232260   5.954   2.515   6.297  0.1913 -0.3638 -0.0763
 3590TIP3    H132261   5.998   2.550   6.375 -1.4254 -1.3219  1.2949
 3590TIP3    H232262   5.973   2.421   6.299  1.3557 -0.1685 -1.6572
 3591TIP3   OH232263   2.126   4.820  12.390 -0.0160 -0.1623  0.6419
 3591TIP3    H132264   2.209   4.859  12.361 -1.5632  1.8315 -1.2935
 3591TIP3    H232265   2.121   4.840  12.484  1.2750  0.4607  0.5825
 3592TIP3   OH232266   4.814   6.750   3.554 -0.2288 -0.2076  0.6235
 3592TIP3    H132267   4.808   6.834   3.599  0.3669 -0.7971  1.8054
 3592TIP3    H232268   4.770   6.765   3.470  1.5077  1.8255  0.0133
 3593TIP3   OH232269   5.608   1.691   3.755  0.0851  0.6030 -0.2521
 3593TIP3    H132270   5.582   1.770   3.709  1.2245  0.0598 -1.8658
 3593TIP3    H232271   5.656   1.722   3.832  0.0381  1.4785 -0.5817
 3594TIP3   OH232272   1.154   3.689   2.924 -0.5310 -0.1512  0.3460
 3594TIP3    H132273   1.110   3.747   2.987  0.0107  0.3181  0.3031
 3594TIP3    H232274   1.124   3.721   2.839 -0.3664 -0.0416  0.3285
 3595TIP3   OH232275   5.182   2.786  12.712  0.0269 -0.3574 -0.8186
 3595TIP3    H132276   5.207   2.800  12.803  1.8693 -2.2821 -0.9848
 3595TIP3    H232277   5.094   2.823  12.706  0.5789  1.3998  1.2729
 3596TIP3   OH232278   0.073   4.405  13.790 -0.3694  0.3311 -0.1754
 3596TIP3    H132279   0.153   4.457  13.785 -0.0598 -0.1238  0.0538
 3596TIP3    H232280   0.014   4.445  13.726  0.4391 -0.0406 -1.1571
 3597TIP3   OH232281   4.715   2.121   6.030 -0.4365 -0.1379 -0.2198
 3597TIP3    H132282   4.780   2.144   6.097 -0.2876 -0.2153 -0.3401
 3597TIP3    H232283   4.673   2.204   6.009 -1.0123 -0.2311  0.5315
 3598TIP3   OH232284   5.251   1.677  11.870 -0.1891 -0.8216 -0.5977
 3598TIP3    H132285   5.186   1.613  11.842 -0.5866 -0.2281 -1.0340
 3598TIP3    H232286   5.210   1.762  11.856  0.5024 -0.4508 -0.4428
 3599TIP3   OH232287   2.909   5.925   3.977 -0.2312  0.4864 -0.3745
 3599TIP3    H132288   2.992   5.941   3.932 -1.6489 -0.4083 -3.4443
 3599TIP3    H232289   2.854   6.000   3.951 -0.8552  0.3055  0.4267
 3600TIP3   OH232290   3.685   4.604   5.189 -0.1195 -0.4801  0.9092
 3600TIP3    H132291   3.694   4.620   5.095  0.4703 -0.2254  1.0096
 3600TIP3    H232292   3.740   4.670   5.230  0.8337 -1.5518  1.3941
 3601TIP3   OH232293   5.523   1.754  11.802  0.1411 -0.2724  0.7070
 3601TIP3    H132294   5.435   1.718  11.818  0.3411 -0.9868  0.2531
 3601TIP3    H232295   5.546   1.798  11.883 -2.1954  3.2859 -0.4308
 3602TIP3   OH232296   5.969   5.061   6.554  0.1340  0.5976 -0.2197
 3602TIP3    H132297   5.914   5.064   6.476  0.6333  2.2988 -0.5267
 3602TIP3    H232298   5.987   4.968   6.567  0.3500  0.3149 -2.3479
 3603TIP3   OH232299   1.964   0.170   6.058 -0.4575  0.1250  0.2107
 3603TIP3    H132300   1.904   0.163   6.132  0.9064 -2.0583  1.1780
 3603TIP3    H232301   1.999   0.081   6.047  1.5224  1.0347 -1.2151
 3604TIP3   OH232302   1.078   0.752   0.331 -0.0132  0.0448  0.5020
 3604TIP3    H132303   1.086   0.800   0.248  0.2695 -0.2909  0.3350
 3604TIP3    H232304   1.159   0.770   0.377 -1.3842  2.6426  1.9971
 3605TIP3   OH232305   1.109   6.548  15.579 -0.5883 -0.3201  0.0279
 3605TIP3    H132306   1.054   6.483  15.622 -1.3542 -0.5033 -1.1810
 3605TIP3    H232307   1.080   6.632  15.616  0.5530 -0.6721  1.7453
 3606TIP3   OH232308   1.657   2.741  10.891  0.6861 -0.1511 -0.2624
 3606TIP3    H132309   1.580   2.797  10.893  0.7188 -0.0391 -1.4864
 3606TIP3    H232310   1.624   2.654  10.914  0.6389  0.3440  1.6558
 3607TIP3   OH232311   3.312   4.004  11.266 -0.0697 -0.6661  0.2089
 3607TIP3    H132312   3.230   3.955  11.263 -0.3430 -0.2283  0.5041
 3607TIP3    H232313   3.286   4.096  11.262  0.5195 -0.5697 -1.8583
 3608TIP3   OH232314   3.313   6.113  12.298  0.1094  0.3611 -0.1917
 3608TIP3    H132315   3.244   6.131  12.362  1.0540  0.4522  0.8215
 3608TIP3    H232316   3.315   6.189  12.241  0.5329  1.1338  0.8439
 3609TIP3   OH232317   1.667   4.593  12.791 -0.0403  0.0747 -0.1188
 3609TIP3    H132318   1.671   4.524  12.857  0.9250 -0.1524 -0.4125
 3609TIP3    H232319   1.610   4.556  12.723 -0.4028  0.0035  0.2150
 3610TIP3   OH232320   4.360   5.452  15.676 -0.0898 -0.1701 -0.0611
 3610TIP3    H132321   4.421   5.525  15.668 -0.4933  0.0951 -0.7245
 3610TIP3    H232322   4.355   5.435  15.770  0.2201  0.4674  0.0685
 3611TIP3   OH232323   6.620   4.311  10.756  0.6095  0.4916  0.3108
 3611TIP3    H132324   6.549   4.374  10.759 -1.1002 -1.3901  0.8105
 3611TIP3    H232325   6.679   4.344  10.688 -0.4199  2.3959  0.3103
 3612TIP3   OH232326   3.139   6.432  14.668 -0.1853 -0.4199  0.3039
 3612TIP3    H132327   3.103   6.493  14.731 -1.3129  0.3721 -1.0845
 3612TIP3    H232328   3.078   6.357  14.669 -1.1208  0.2862 -0.9699
 3613TIP3   OH232329   4.620   0.936   3.524 -0.1164  0.0678 -0.1935
 3613TIP3    H132330   4.628   1.004   3.457 -0.1338 -0.0257 -0.2900
 3613TIP3    H232331   4.562   0.870   3.486  1.9430 -1.2574 -1.1492
 3614TIP3   OH232332   0.775   4.141  11.969  0.3711 -0.3870 -0.4370
 3614TIP3    H132333   0.798   4.233  11.952  1.7161 -0.9627 -1.7881
 3614TIP3    H232334   0.747   4.141  12.061  3.1071  0.9003  0.4730
 3615TIP3   OH232335   1.274   0.354   0.444 -0.3337 -0.1724  0.0494
 3615TIP3    H132336   1.244   0.309   0.523 -1.1025 -0.4805 -0.4195
 3615TIP3    H232337   1.348   0.301   0.413 -1.0196 -0.9248 -0.3108
 3616TIP3   OH232338   4.926   3.294   0.184 -0.0470  0.1395 -0.2612
 3616TIP3    H132339   4.987   3.284   0.257  0.6018  0.3123 -0.7742
 3616TIP3    H232340   4.839   3.285   0.223  0.3155 -0.3365  0.4389
 3617TIP3   OH232341   4.334   1.418   5.126  0.4315 -0.0723  0.0711
 3617TIP3    H132342   4.280   1.482   5.174 -0.8759  0.2363 -1.7671
 3617TIP3    H232343   4.330   1.339   5.180 -0.2576  0.5443  0.9459
 3618TIP3   OH232344   1.954   0.637   1.559 -0.3835  0.2965  0.0970
 3618TIP3    H132345   2.004   0.684   1.492 -0.4939 -1.8393 -1.5467
 3618TIP3    H232346   1.876   0.605   1.512 -0.7495 -0.7406  1.3843
 3619TIP3   OH232347   1.806   3.546   4.613 -0.1132 -0.4015  0.3138
 3619TIP3    H132348   1.733   3.511   4.664 -0.4681 -0.5104 -0.2631
 3619TIP3    H232349   1.784   3.638   4.599 -0.4611 -0.5960 -0.4235
 3620TIP3   OH232350   5.129   1.456   3.595 -0.2305 -0.2317  0.0907
 3620TIP3    H132351   5.116   1.433   3.687  1.2249  0.5763  0.5181
 3620TIP3    H232352   5.067   1.528   3.580  0.6714  0.7468  0.9205
 3621TIP3   OH232353   4.973   0.205  14.831  0.1213  0.2761 -0.0255
 3621TIP3    H132354   4.930   0.287  14.810  0.1881  0.5166  0.7415
 3621TIP3    H232355   4.903   0.148  14.864  0.2782  0.4430  0.5976
 3622TIP3   OH232356   4.302   1.581  12.258  0.9046 -0.1549 -0.3141
 3622TIP3    H132357   4.288   1.667  12.218  2.0526  0.6653  1.0228
 3622TIP3    H232358   4.234   1.574  12.324  0.5235 -0.4729 -0.7392
 3623TIP3   OH232359   2.531   3.167   0.902 -0.0841 -0.8263  0.0962
 3623TIP3    H132360   2.605   3.158   0.962 -1.9324  1.2785  2.8392
 3623TIP3    H232361   2.569   3.205   0.822  1.9404 -0.7813  1.0564
 3624TIP3   OH232362   2.126   3.830   3.911  0.0085  0.0663 -0.5968
 3624TIP3    H132363   2.215   3.798   3.893 -0.2444 -1.7095  1.1199
 3624TIP3    H232364   2.085   3.837   3.825  1.2415 -0.8511 -1.2776
 3625TIP3   OH232365   1.408   3.191   1.651 -0.5721  0.4065  0.5941
 3625TIP3    H132366   1.451   3.265   1.693  1.2841 -1.1307  1.4861
 3625TIP3    H232367   1.438   3.194   1.560  2.0207 -1.0169  1.3524
 3626TIP3   OH232368   5.829   1.806  14.319  0.3710  0.0020  0.3056
 3626TIP3    H132369   5.836   1.728  14.264 -1.1041  0.3285 -0.3628
 3626TIP3    H232370   5.877   1.873  14.271  0.5262 -0.1563  0.2386
 3627TIP3   OH232371   5.698   1.522   5.156  0.0905  0.3464  0.2537
 3627TIP3    H132372   5.635   1.460   5.120  0.0556  0.1421  0.6634
 3627TIP3    H232373   5.767   1.526   5.091  0.7097 -1.0935  0.8039
 3628TIP3   OH232374   6.122   0.689  11.984 -0.1872  0.0807 -0.2089
 3628TIP3    H132375   6.138   0.724  12.072  1.5129 -0.3650 -0.3197
 3628TIP3    H232376   6.030   0.662  11.985  0.4377 -2.1892  2.2538
 3629TIP3   OH232377   1.298   1.246  14.285  0.7779  0.4028  0.4064
 3629TIP3    H132378   1.321   1.247  14.192  1.4251  1.8712  0.5568
 3629TIP3    H232379   1.381   1.232  14.331  0.5820  0.4613  0.7862
 3630TIP3   OH232380   1.956   3.881  16.002  0.4840  0.1269  0.3608
 3630TIP3    H132381   1.906   3.914  15.928  2.8055  0.2758 -1.2007
 3630TIP3    H232382   1.928   3.790  16.011 -1.2676  0.6778  0.5958
 3631TIP3   OH232383   6.328   3.266  16.737  0.6503 -0.9082  0.2620
 3631TIP3    H132384   6.351   3.186  16.690  1.9867 -1.3583  1.6560
 3631TIP3    H232385   6.242   3.248  16.776 -0.0175 -0.8792 -1.1388
 3632TIP3   OH232386   1.284   6.161  17.136  0.1842 -0.1651 -0.3522
 3632TIP3    H132387   1.254   6.166  17.045 -1.3674  1.6134  0.2251
 3632TIP3    H232388   1.210   6.193  17.188  1.7469  0.7323  1.4012
 3633TIP3   OH232389   6.450   0.060   4.313  0.1179 -0.5696  0.0491
 3633TIP3    H132390   6.542   0.068   4.339  0.1065 -0.4549  0.0549
 3633TIP3    H232391   6.409   0.009   4.384 -0.3002  1.2895  1.1751
 3634TIP3   OH232392   0.152   2.694   3.472  0.4180 -0.3801  0.1645
 3634TIP3    H132393   0.208   2.691   3.550 -0.7514  1.9991  1.1618
 3634TIP3    H232394   0.074   2.742   3.501 -0.1792  0.2565 -2.3961
 3635TIP3   OH232395   6.813   2.859   2.466 -0.5517 -0.5702  0.3904
 3635TIP3    H132396   6.840   2.771   2.491 -1.1494 -1.9218 -3.5088
 3635TIP3    H232397   6.718   2.855   2.460 -0.7352  0.8371  1.7723
 3636TIP3   OH232398   6.088   3.325   2.250  0.4313  0.2763 -0.3624
 3636TIP3    H132399   6.113   3.267   2.179  1.7223  0.6817 -0.2610
 3636TIP3    H232400   6.100   3.273   2.329  0.8603  0.4213 -0.3255
 3637TIP3   OH232401   0.792   0.287   2.973 -0.3248 -0.8543 -0.2025
 3637TIP3    H132402   0.839   0.355   3.020 -0.3242 -0.6250 -0.5267
 3637TIP3    H232403   0.859   0.225   2.945 -0.4462 -1.4997  0.9351
 3638TIP3   OH232404   2.239   0.905   1.567  0.1188 -0.3896 -0.4345
 3638TIP3    H132405   2.190   0.866   1.494  0.5620  1.8639 -1.9774
 3638TIP3    H232406   2.176   0.907   1.639 -0.8605 -1.1135 -1.2505
 3639TIP3   OH232407   4.441   4.661  13.359 -0.2313 -0.1417 -0.2180
 3639TIP3    H132408   4.506   4.656  13.289 -1.4068 -2.4519 -1.1921
 3639TIP3    H232409   4.473   4.599  13.425  0.0151  0.7993  0.5419
 3640TIP3   OH232410   1.666   2.687  14.023  0.1464  0.1530  0.3015
 3640TIP3    H132411   1.665   2.628  13.948  0.6530 -1.3480  1.4510
 3640TIP3    H232412   1.754   2.676  14.060 -0.2961  0.4508  1.4430
 3641TIP3   OH232413   3.730   1.495   4.311 -0.0871 -0.7080  0.6514
 3641TIP3    H132414   3.733   1.432   4.239  0.0863 -0.2171  0.2276
 3641TIP3    H232415   3.778   1.453   4.383  0.3421 -0.9008  0.2496
 3642TIP3   OH232416   4.399   5.750   0.459 -0.1145  0.7250 -0.7233
 3642TIP3    H132417   4.479   5.698   0.449 -1.0360 -0.8439 -0.2530
 3642TIP3    H232418   4.429   5.841   0.461  1.7065  0.1396 -0.0554
 3643TIP3   OH232419   1.551   3.526  15.751  0.4890 -0.7145 -0.2812
 3643TIP3    H132420   1.586   3.445  15.712  0.4231 -0.7797 -0.2058
 3643TIP3    H232421   1.610   3.544  15.824  0.0105 -1.1645  0.2244
 3644TIP3   OH232422   3.048   3.187   3.782 -0.3652  0.6930 -0.3185
 3644TIP3    H132423   3.118   3.185   3.847  0.6061  0.8137 -1.3559
 3644TIP3    H232424   2.993   3.111   3.803  1.4030 -0.7880 -0.9623
 3645TIP3   OH232425   0.005   0.383  13.588 -0.0614  0.1298 -0.7780
 3645TIP3    H132426  -0.023   0.294  13.609  0.8462 -0.1794 -0.8660
 3645TIP3    H232427  -0.077   0.432  13.576 -0.5735 -0.3473  0.7038
 3646TIP3   OH232428   2.975   3.554   4.271 -0.0705  0.0239 -0.7700
 3646TIP3    H132429   3.014   3.467   4.277 -1.4987 -0.5315  0.8088
 3646TIP3    H232430   3.027   3.608   4.331 -1.2423 -0.5539  0.8046
 3647TIP3   OH232431   3.302   3.977  12.158 -0.1621  0.0221 -0.1726
 3647TIP3    H132432   3.361   4.038  12.114 -0.2195  0.1551 -0.0634
 3647TIP3    H232433   3.344   3.891  12.148  0.3364  0.1924  0.3989
 3648TIP3   OH232434   0.648   4.087  16.648 -0.0790 -0.1571 -0.1761
 3648TIP3    H132435   0.611   4.002  16.624 -0.5004  0.3016 -1.1783
 3648TIP3    H232436   0.595   4.151  16.600  0.3251  0.6643  0.4569
 3649TIP3   OH232437   4.898   5.079  14.009  0.1119  0.7813 -0.0689
 3649TIP3    H132438   4.899   5.103  13.917 -0.3925  0.2591 -0.2086
 3649TIP3    H232439   4.889   5.162  14.056  3.3450  1.3835 -0.3670
 3650TIP3   OH232440   4.457   0.693   0.311 -0.0790 -0.0113  0.1675
 3650TIP3    H132441   4.484   0.722   0.224 -0.5144  0.2630  0.1169
 3650TIP3    H232442   4.516   0.738   0.371  0.5790 -0.6321 -0.0104
 3651TIP3   OH232443   6.642   4.592  10.235  0.6723  0.1718  0.0115
 3651TIP3    H132444   6.610   4.526  10.296  2.8263 -0.3844  0.5505
 3651TIP3    H232445   6.698   4.545  10.174  1.9533  1.4313  0.1863
 3652TIP3   OH232446   0.272   2.825  10.827 -0.4937  0.0493  0.3477
 3652TIP3    H132447   0.271   2.867  10.741 -0.3933  0.2729  0.4546
 3652TIP3    H232448   0.363   2.801  10.842 -0.3697  0.7624  0.7525
 3653TIP3   OH232449   3.921   3.995   4.281  0.1980 -0.5913  0.3670
 3653TIP3    H132450   3.998   4.052   4.276  0.5872 -0.7543  3.3641
 3653TIP3    H232451   3.956   3.907   4.263 -0.0284 -0.2066 -2.1443
 3654TIP3   OH232452   3.294   3.703  12.665 -0.8361  0.0824  0.0796
 3654TIP3    H132453   3.374   3.737  12.704 -0.5789  3.1595 -2.8797
 3654TIP3    H232454   3.323   3.659  12.585 -2.0092  0.4488 -0.5601
 3655TIP3   OH232455   2.414   1.778   5.100 -0.4978  0.0772 -0.7704
 3655TIP3    H132456   2.424   1.860   5.051 -0.2397 -1.1572 -2.8635
 3655TIP3    H232457   2.483   1.781   5.167  0.2608  1.0440 -1.5750
 3656TIP3   OH232458   2.820   0.511   2.861  0.4687  0.2881 -0.0162
 3656TIP3    H132459   2.914   0.522   2.876  0.7045 -1.7706  0.0829
 3656TIP3    H232460   2.781   0.517   2.948  0.4990  1.0221 -0.0442
 3657TIP3   OH232461   4.887   0.862  11.394 -0.2427 -0.4227 -0.0841
 3657TIP3    H132462   4.962   0.893  11.342  0.2907  0.0907  0.9848
 3657TIP3    H232463   4.917   0.781  11.433  0.2447  0.4720  1.4332
 3658TIP3   OH232464   6.499   5.844  14.867  0.2138 -0.0831 -0.2434
 3658TIP3    H132465   6.470   5.793  14.791 -0.5037  0.5598 -0.4053
 3658TIP3    H232466   6.435   5.915  14.874 -0.3923 -0.7668  1.6328
 3659TIP3   OH232467   0.272   2.538   0.541  0.0215  0.1615 -0.8061
 3659TIP3    H132468   0.317   2.558   0.458 -0.2279  0.8872 -0.7735
 3659TIP3    H232469   0.241   2.448   0.530 -0.3574  0.3868 -1.6603
 3660TIP3   OH232470   4.294   0.200   4.735  0.4920 -0.6227 -0.5124
 3660TIP3    H132471   4.345   0.155   4.802 -0.1078  0.1807  0.4968
 3660TIP3    H232472   4.247   0.131   4.688 -1.5459 -0.9573  1.9454
 3661TIP3   OH232473   3.953   1.902   4.334 -0.0645 -0.0410 -0.4198
 3661TIP3    H132474   3.988   1.827   4.285  1.4144  1.0071 -0.9832
 3661TIP3    H232475   3.919   1.863   4.414  0.3406 -1.3748 -0.8708
 3662TIP3   OH232476   1.058   1.455  16.493 -0.4256 -0.3307 -0.1194
 3662TIP3    H132477   1.051   1.447  16.398 -0.4600 -1.8068  0.0019
 3662TIP3    H232478   0.968   1.450  16.525 -0.4218  0.2587 -0.0146
 3663TIP3   OH232479   1.520   3.750  16.458 -0.6231  0.2227 -0.2398
 3663TIP3    H132480   1.576   3.780  16.529 -2.7431  1.9342  0.7655
 3663TIP3    H232481   1.575   3.690  16.408  1.5605  0.5800  1.6456
 3664TIP3   OH232482   4.103   4.821  14.890  0.6945 -0.0400  0.2485
 3664TIP3    H132483   4.119   4.759  14.962 -1.3837 -0.4509  0.3997
 3664TIP3    H232484   4.099   4.907  14.933 -1.5846 -0.3960  0.8199
 3665TIP3   OH232485   4.689   5.312  11.848  0.3188  0.4875  0.0499
 3665TIP3    H132486   4.650   5.318  11.761  1.2999  0.2309 -0.4102
 3665TIP3    H232487   4.618   5.336  11.908  0.3649  3.1878 -0.9400
 3666TIP3   OH232488   5.223   3.958  13.319 -0.7330 -0.0437  0.6370
 3666TIP3    H132489   5.314   3.933  13.304 -0.7580 -0.0129  0.4319
 3666TIP3    H232490   5.227   4.053  13.334 -0.6888 -0.1006  0.9816
 3667TIP3   OH232491   5.912   2.017   0.014  0.0987 -0.3746  0.8353
 3667TIP3    H132492   5.912   2.050   0.104 -1.3856  0.5073  0.5280
 3667TIP3    H232493   5.822   1.989  -0.001  0.4015 -0.7668 -0.2965
 3668TIP3   OH232494   2.924   4.314   3.770 -0.3737 -0.3372 -0.1080
 3668TIP3    H132495   2.947   4.224   3.792 -1.6722 -0.6036  0.2048
 3668TIP3    H232496   2.904   4.356   3.854  0.1567  0.2282 -0.2581
 3669TIP3   OH232497   5.081   6.646  12.769 -0.2626 -0.3342  0.5661
 3669TIP3    H132498   5.156   6.686  12.813 -0.7376 -1.4896  2.4979
 3669TIP3    H232499   5.035   6.599  12.839 -1.5199 -1.5137 -1.0222
 3670TIP3   OH232500   1.575   1.997  12.223  0.0147 -0.2981  0.4090
 3670TIP3    H132501   1.513   2.064  12.253 -0.8471 -0.6070 -0.6427
 3670TIP3    H232502   1.533   1.914  12.245 -0.4072 -0.5219 -1.1681
 3671TIP3   OH232503   2.525   4.758  14.902 -0.4748  0.4252  0.7395
 3671TIP3    H132504   2.594   4.710  14.857 -0.6353  1.5665 -0.7626
 3671TIP3    H232505   2.449   4.700  14.899  0.2828 -0.6673  2.0436
 3672TIP3   OH232506   3.447   1.099   0.967 -0.6808 -0.1032  0.2169
 3672TIP3    H132507   3.476   1.048   0.892  1.5088  1.2999  0.0782
 3672TIP3    H232508   3.422   1.034   1.032 -2.0098 -1.3350 -1.4799
 3673TIP3   OH232509   1.072   5.385  12.116  0.4265 -0.3124  0.5089
 3673TIP3    H132510   1.106   5.339  12.039  0.3128  0.3994  0.0294
 3673TIP3    H232511   1.100   5.332  12.190  1.7420 -0.2614  0.0622
 3674TIP3   OH232512   0.814   5.310  14.122 -0.0236  0.1599  0.2515
 3674TIP3    H132513   0.788   5.401  14.108  0.1190 -0.0260 -1.3622
 3674TIP3    H232514   0.892   5.315  14.177 -1.0632  0.9192  1.6753
 3675TIP3   OH232515   6.356   6.655  15.547  0.5437  0.0058 -0.3909
 3675TIP3    H132516   6.371   6.689  15.459  0.5239 -0.4858 -0.5893
 3675TIP3    H232517   6.306   6.723  15.591  0.7473  0.3512 -0.6899
 3676TIP3   OH232518   0.388   5.215  14.654 -0.1319  0.0200  0.1415
 3676TIP3    H132519   0.396   5.135  14.602  1.4945  0.8461 -0.9422
 3676TIP3    H232520   0.477   5.232  14.686 -0.5554  1.1110  0.7580
 3677TIP3   OH232521   3.755   6.360  15.542  0.0520 -0.1966 -0.2043
 3677TIP3    H132522   3.756   6.371  15.447  1.4708  0.2169 -0.1486
 3677TIP3    H232523   3.793   6.273  15.556  1.6160  0.5160  0.0708
 3678TIP3   OH232524   4.930   5.819  11.538 -0.2931  0.1440  0.1222
 3678TIP3    H132525   5.005   5.773  11.576  0.3010  1.3926  0.5146
 3678TIP3    H232526   4.859   5.805  11.599  0.1467  0.5347  0.7339
 3679TIP3   OH232527   6.093   2.553   3.254 -0.7255 -0.0514  0.8789
 3679TIP3    H132528   6.131   2.639   3.271  0.4566 -0.4684  0.3901
 3679TIP3    H232529   6.078   2.517   3.342  0.5204 -0.0934  1.0895
 3680TIP3   OH232530   0.313   0.781  11.640 -0.8251 -0.1821 -0.3742
 3680TIP3    H132531   0.245   0.719  11.616 -1.0964  0.2933 -0.8551
 3680TIP3    H232532   0.308   0.786  11.736 -1.2865 -0.3579 -0.3850
 3681TIP3   OH232533   3.260   5.250   4.565  0.1380 -0.1736  0.2930
 3681TIP3    H132534   3.236   5.303   4.490  0.6879  1.5826  1.3208
 3681TIP3    H232535   3.317   5.182   4.530 -0.5398 -0.0640 -1.0321
 3682TIP3   OH232536   0.992   3.519   4.085 -0.0239  0.0201 -0.2401
 3682TIP3    H132537   0.924   3.455   4.064  0.0824 -0.1006 -0.2210
 3682TIP3    H232538   1.068   3.466   4.108  0.0952  0.1537 -0.3203
 3683TIP3   OH232539   1.284   4.717  12.252 -0.3468 -0.3214 -1.0366
 3683TIP3    H132540   1.365   4.762  12.227  0.0949  0.1563  1.1610
 3683TIP3    H232541   1.218   4.786  12.256 -0.6190 -0.5371 -1.7486
 3684TIP3   OH232542   0.521   5.864  12.327 -0.2753 -0.2337 -0.1162
 3684TIP3    H132543   0.447   5.913  12.361 -0.7696 -1.4014  0.5408
 3684TIP3    H232544   0.508   5.863  12.233  0.9530  2.7909 -0.3739
 3685TIP3   OH232545   2.620   4.047  14.466  0.3329  0.4709 -0.2093
 3685TIP3    H132546   2.584   3.987  14.401 -0.9082  1.0978 -0.1277
 3685TIP3    H232547   2.557   4.119  14.469 -0.4629 -0.2638  2.7942
 3686TIP3   OH232548   4.354   4.459   0.102  0.4562  0.2194 -0.1269
 3686TIP3    H132549   4.279   4.511   0.129 -0.6783 -1.6230  0.3707
 3686TIP3    H232550   4.375   4.491   0.014 -1.4524  0.1702 -0.6125
 3687TIP3   OH232551   2.541   5.222   1.318  0.4457  0.0523 -0.0112
 3687TIP3    H132552   2.453   5.252   1.339  0.2152  0.2263 -1.2028
 3687TIP3    H232553   2.599   5.276   1.372 -0.1105  0.7298 -0.0877
 3688TIP3   OH232554   1.164   0.621   3.371  0.8416 -0.1679 -0.4629
 3688TIP3    H132555   1.234   0.575   3.324  1.1987  1.2994 -1.4047
 3688TIP3    H232556   1.203   0.705   3.396 -0.1519  0.1000  0.2100
 3689TIP3   OH232557   4.387   2.730  11.203  0.6193  0.4550  0.1693
 3689TIP3    H132558   4.325   2.693  11.140 -0.8497  0.9484  1.2911
 3689TIP3    H232559   4.462   2.758  11.149 -0.4277  0.5037 -1.3079
 3690TIP3   OH232560   4.348   5.172  10.680 -0.3862 -0.1507 -0.1596
 3690TIP3    H132561   4.374   5.115  10.752 -0.2353  0.0002 -0.0908
 3690TIP3    H232562   4.430   5.216  10.654 -0.7630  1.1623  0.7913
 3691TIP3   OH232563   3.663   4.356   5.577 -0.4217 -0.6321 -0.7443
 3691TIP3    H132564   3.671   4.274   5.527  0.1971 -0.1294 -1.4881
 3691TIP3    H232565   3.683   4.332   5.667 -0.3659 -1.3279 -0.9414
 3692TIP3   OH232566   5.936   5.760   3.991 -0.0521  0.1489  0.0466
 3692TIP3    H132567   5.986   5.714   3.923 -0.9728 -1.3753  0.3807
 3692TIP3    H232568   5.845   5.733   3.976 -0.4465  0.9314  0.9950
 3693TIP3   OH232569   3.542   1.536  13.993  0.3658  0.1239 -0.4906
 3693TIP3    H132570   3.555   1.605  14.058 -0.0335 -0.1942 -0.0606
 3693TIP3    H232571   3.551   1.580  13.909 -1.0996  0.9637 -0.2334
 3694TIP3   OH232572   2.824   5.332   3.559 -0.2405  0.4333 -0.2693
 3694TIP3    H132573   2.835   5.267   3.628  1.2759  1.7570  0.7963
 3694TIP3    H232574   2.812   5.281   3.479 -0.0587 -1.1362  0.6821
 3695TIP3   OH232575   6.771   5.611   3.480 -0.5728  0.0918 -0.0646
 3695TIP3    H132576   6.758   5.690   3.531 -1.4578 -0.5645  0.7456
 3695TIP3    H232577   6.764   5.540   3.544  0.7194 -0.6210 -0.6876
 3696TIP3   OH232578   5.708   0.771  17.074 -0.5258 -0.7369  0.2716
 3696TIP3    H132579   5.641   0.800  17.012  0.5101  0.8274 -0.1246
 3696TIP3    H232580   5.731   0.850  17.123  1.4905 -1.1432 -0.0112
 3697TIP3   OH232581   1.024   5.385   2.688 -0.2466  0.5376  0.6979
 3697TIP3    H132582   1.100   5.336   2.657 -3.1159 -3.8380  0.1170
 3697TIP3    H232583   0.967   5.391   2.611 -1.9603  0.6700  1.9621
 3698TIP3   OH232584   5.992   4.007   4.448 -0.1817  0.0383  0.0881
 3698TIP3    H132585   6.021   4.058   4.373 -0.1601  0.1245  0.1554
 3698TIP3    H232586   5.996   4.068   4.522 -0.6217  0.0751  0.0806
 3699TIP3   OH232587   1.002   6.558   6.529  0.2441 -0.1280 -1.1705
 3699TIP3    H132588   0.924   6.612   6.521  0.2216 -0.2485 -1.8200
 3699TIP3    H232589   0.982   6.479   6.478  1.1098  0.2164 -2.0697
 3700TIP3   OH232590   3.808   5.215  14.036  0.8448  0.3562  0.5924
 3700TIP3    H132591   3.810   5.168  14.119  0.2268 -1.3819 -0.3512
 3700TIP3    H232592   3.741   5.282  14.048 -0.0883 -0.6553  1.1024
 3701TIP3   OH232593   5.091   0.931   1.142  0.9104 -0.0948 -0.0892
 3701TIP3    H132594   5.064   0.995   1.077  0.8980  1.5529  1.4836
 3701TIP3    H232595   5.161   0.881   1.100 -0.4577 -0.3868 -2.0407
 3702TIP3   OH232596   4.501   0.238   1.893  0.1572 -0.1346 -0.2367
 3702TIP3    H132597   4.533   0.225   1.982  0.3523  0.5712 -0.2054
 3702TIP3    H232598   4.406   0.240   1.902  0.1538 -0.7461 -0.1337
 3703TIP3   OH232599   6.535   1.430   6.129 -0.5727 -0.4745 -0.6551
 3703TIP3    H132600   6.534   1.413   6.035 -1.3673 -2.7723 -0.2633
 3703TIP3    H232601   6.592   1.507   6.139 -0.9548  0.1533 -3.0506
 3704TIP3   OH232602   2.189   4.172  10.929  0.2122  0.0392 -0.3706
 3704TIP3    H132603   2.244   4.234  10.977 -0.3688  0.7111 -0.5687
 3704TIP3    H232604   2.138   4.227  10.869 -2.8727 -0.2469  1.9156
 3705TIP3   OH232605   6.428   6.219  13.442 -0.0824 -0.3598 -0.3990
 3705TIP3    H132606   6.438   6.302  13.487 -1.3480  0.9781 -2.4980
 3705TIP3    H232607   6.345   6.184  13.473  0.5324 -0.9248  0.6131
 3706TIP3   OH232608   3.610   4.790  16.679 -0.5445  0.4852  0.1200
 3706TIP3    H132609   3.557   4.710  16.676 -0.7309  0.6206 -0.2048
 3706TIP3    H232610   3.569   4.848  16.615 -0.0149  0.6006 -0.1115
 3707TIP3   OH232611   0.695   2.106   0.149 -0.2780  0.4949 -0.6675
 3707TIP3    H132612   0.605   2.138   0.153 -0.0194  1.2496 -0.7502
 3707TIP3    H232613   0.722   2.120   0.058 -0.4680 -0.8373 -0.9457
 3708TIP3   OH232614   2.354   4.170   2.862  0.2052  0.6938  0.5524
 3708TIP3    H132615   2.378   4.204   2.775  0.4470 -1.8991 -0.4486
 3708TIP3    H232616   2.427   4.194   2.918  0.6637  1.2380 -0.2624
 3709TIP3   OH232617   1.118   6.278  12.897 -0.0083  0.3475  0.2360
 3709TIP3    H132618   1.091   6.355  12.946  0.2817  1.1663 -0.8732
 3709TIP3    H232619   1.213   6.274  12.910  0.0896  0.6499 -0.3679
 3710TIP3   OH232620   3.340   0.121   2.227  0.0123  0.0193 -0.2063
 3710TIP3    H132621   3.270   0.060   2.202  1.0396 -1.4641  0.4602
 3710TIP3    H232622   3.308   0.160   2.309 -0.4466  0.0467 -0.3948
 3711TIP3   OH232623   2.944   2.114   4.901  0.3463  0.1814  0.7792
 3711TIP3    H132624   2.982   2.089   4.816  0.4987 -0.1319  0.9396
 3711TIP3    H232625   2.925   2.207   4.892 -2.1587 -0.4149 -0.5575
 3712TIP3   OH232626   4.990   6.572  11.190 -0.4808 -0.1978  0.1229
 3712TIP3    H132627   5.086   6.569  11.187 -0.5597 -2.6496 -1.1584
 3712TIP3    H232628   4.964   6.584  11.099 -1.3833  1.3901  0.5887
 3713TIP3   OH232629   5.757   1.522  15.675  0.7342 -0.6206 -0.0552
 3713TIP3    H132630   5.803   1.604  15.657 -0.5761  0.0803 -0.2964
 3713TIP3    H232631   5.673   1.531  15.629 -0.0961 -1.4068  1.2712
 3714TIP3   OH232632   0.420   3.058   1.698  0.0057  0.1515  0.6581
 3714TIP3    H132633   0.426   2.979   1.646 -1.7104  0.1498  0.4387
 3714TIP3    H232634   0.493   3.112   1.668  0.6070 -0.9311  0.1306
 3715TIP3   OH232635   4.199   1.255  15.374  0.0068  0.2559  0.6076
 3715TIP3    H132636   4.186   1.314  15.447 -0.0523  0.0860  0.7337
 3715TIP3    H232637   4.213   1.312  15.298 -0.2742  0.4294  0.6898
 3716TIP3   OH232638   6.722   6.700  11.418 -0.0192  0.0132 -0.3499
 3716TIP3    H132639   6.796   6.666  11.366  0.3140 -2.0962  1.4461
 3716TIP3    H232640   6.730   6.795  11.410  2.2189 -0.1963 -1.1281
 3717TIP3   OH232641   3.980   3.715   2.769 -0.0932 -1.0290  0.4693
 3717TIP3    H132642   3.898   3.761   2.788  0.1585 -0.2486 -0.3016
 3717TIP3    H232643   4.013   3.687   2.854 -1.2491 -1.4995  0.7672
 3718TIP3   OH232644   0.499   5.169   5.711 -0.3851  0.4805  0.1758
 3718TIP3    H132645   0.413   5.202   5.735 -0.7976 -0.1787 -0.3956
 3718TIP3    H232646   0.497   5.076   5.735 -0.5593 -0.0178 -1.7415
 3719TIP3   OH232647   6.146   1.542  12.845  0.3430  0.0729  0.6398
 3719TIP3    H132648   6.235   1.507  12.847 -0.3383 -1.7291  0.4187
 3719TIP3    H232649   6.090   1.465  12.848 -1.2162  1.1412 -0.3540
 3720TIP3   OH232650   1.493   6.411  12.306  0.1310 -0.3618  0.0443
 3720TIP3    H132651   1.511   6.469  12.381  1.8871 -1.7330  0.7101
 3720TIP3    H232652   1.570   6.421  12.249 -1.4039  1.0321 -1.8536
 3721TIP3   OH232653   1.205   1.887  12.486 -0.0734  0.3098 -0.1235
 3721TIP3    H132654   1.167   1.941  12.417 -1.3761 -0.7227 -0.2519
 3721TIP3    H232655   1.147   1.810  12.490 -0.1747  0.4731  2.2801
 3722TIP3   OH232656   3.179   5.959   6.621 -0.3507  0.4239  0.3526
 3722TIP3    H132657   3.169   6.028   6.686  1.9838 -0.9936  2.2812
 3722TIP3    H232658   3.273   5.943   6.617 -0.6871 -1.3036 -1.5022
 3723TIP3   OH232659   4.482   2.012   6.534 -0.7387 -0.1301 -0.6808
 3723TIP3    H132660   4.481   2.091   6.587  1.0330  0.1476 -1.0175
 3723TIP3    H232661   4.516   1.944   6.593 -0.3318 -0.1845 -0.9726
 3724TIP3   OH232662   0.953   6.741   6.194 -0.3057 -0.0352  0.0197
 3724TIP3    H132663   0.869   6.787   6.191  0.5812  1.6047 -0.0267
 3724TIP3    H232664   0.947   6.685   6.271 -1.7593 -0.5411 -0.4503
 3725TIP3   OH232665   6.381   6.812  12.106  0.4954 -0.0197  0.6346
 3725TIP3    H132666   6.455   6.863  12.139  0.4193 -0.3464  1.3172
 3725TIP3    H232667   6.339   6.870  12.042  0.7968  0.5201  0.9201
 3726TIP3   OH232668   1.107   4.889  12.659  0.0382  0.1217  0.2416
 3726TIP3    H132669   1.103   4.801  12.696 -0.7105  0.6761  1.5245
 3726TIP3    H232670   1.199   4.903  12.638  0.5997  0.0449  2.5735
 3727TIP3   OH232671   0.266   3.835  14.741 -0.1414 -0.3398  0.1980
 3727TIP3    H132672   0.257   3.744  14.766  1.9423 -0.5611  0.3022
 3727TIP3    H232673   0.360   3.845  14.722 -0.5613  1.4450 -1.0766
 3728TIP3   OH232674   4.593   3.492   1.692 -0.0788 -0.0337 -0.1171
 3728TIP3    H132675   4.614   3.429   1.623  1.0107 -0.9390  1.0051
 3728TIP3    H232676   4.534   3.445   1.751  1.2670 -0.2533  1.0835
 3729TIP3   OH232677   0.224   0.190  16.070  0.0855 -0.2560 -0.2789
 3729TIP3    H132678   0.156   0.139  16.113  1.8203 -2.2777  0.1618
 3729TIP3    H232679   0.266   0.128  16.011  0.4707  1.3981 -1.7828
 3730TIP3   OH232680   0.021   5.650  16.493  0.1131 -0.2745  0.2341
 3730TIP3    H132681  -0.062   5.608  16.516  0.3674  0.1677  2.0086
 3730TIP3    H232682   0.082   5.623  16.562  0.8214  1.3054  0.2430
 3731TIP3   OH232683   4.665   4.169   4.729  0.4525  0.7024 -0.2676
 3731TIP3    H132684   4.654   4.123   4.813 -0.5398 -0.3444 -0.9557
 3731TIP3    H232685   4.647   4.261   4.750 -1.9698  0.1518  0.2563
 3732TIP3   OH232686   3.638   6.638   5.138 -0.1973 -0.3243  0.1489
 3732TIP3    H132687   3.596   6.722   5.120 -0.4927 -0.4807  0.1186
 3732TIP3    H232688   3.605   6.612   5.224  0.7082  0.1014  0.6412
 3733TIP3   OH232689   1.159   5.301  11.127  0.7372  0.1261 -0.2606
 3733TIP3    H132690   1.251   5.283  11.104  0.7139 -0.2496 -0.0692
 3733TIP3    H232691   1.115   5.315  11.044  1.3761  2.2867 -0.2580
 3734TIP3   OH232692   1.360   6.490  14.848 -0.9264 -0.1740  0.6573
 3734TIP3    H132693   1.372   6.511  14.755  0.2299 -1.2443  0.5595
 3734TIP3    H232694   1.267   6.472  14.857 -0.5389 -3.1950 -0.9500
 3735TIP3   OH232695   6.283   2.408   0.065 -0.3722  0.2430 -0.0727
 3735TIP3    H132696   6.252   2.319   0.048  1.3246 -0.0341 -1.9625
 3735TIP3    H232697   6.281   2.451  -0.021  2.7119  0.7259  0.0201
 3736TIP3   OH232698   1.564   1.226  16.957  0.4023 -0.4124 -0.0324
 3736TIP3    H132699   1.501   1.163  16.924 -1.2987  0.3777  1.6263
 3736TIP3    H232700   1.512   1.303  16.979  2.3107  1.2656 -1.1535
 3737TIP3   OH232701   3.384   2.987  10.848 -0.4628  0.1855 -0.2464
 3737TIP3    H132702   3.445   3.022  10.913 -1.4618  1.2305  0.1437
 3737TIP3    H232703   3.304   2.970  10.897 -0.9587  0.1970 -1.0436
 3738TIP3   OH232704   2.965   3.429   1.608  0.2478  0.5154 -0.0945
 3738TIP3    H132705   2.922   3.514   1.601 -1.7418 -0.4822 -0.1535
 3738TIP3    H232706   2.974   3.414   1.702 -0.5546  0.2248 -0.0612
 3739TIP3   OH232707   2.024   4.938  12.666  0.0815 -0.0927  0.0814
 3739TIP3    H132708   2.042   5.032  12.665 -0.9152  0.1108  0.2432
 3739TIP3    H232709   1.938   4.931  12.709  0.3677 -1.1134  0.5062
 3740TIP3   OH232710   3.638   4.708  15.435  0.1265 -0.5588 -0.0716
 3740TIP3    H132711   3.608   4.618  15.447  0.0366 -1.0004 -3.1560
 3740TIP3    H232712   3.718   4.714  15.488  0.5537 -2.6799 -0.4521
 3741TIP3   OH232713   1.416   4.257   0.995 -0.3293 -0.2322 -0.0063
 3741TIP3    H132714   1.386   4.302   1.074 -1.3659 -0.8473 -0.0300
 3741TIP3    H232715   1.380   4.168   1.003  0.5530 -0.6580 -0.5982
 3742TIP3   OH232716   1.040   5.098  16.089 -0.2406 -0.2041 -0.0600
 3742TIP3    H132717   1.002   5.061  16.010  1.0283 -1.2743 -0.1820
 3742TIP3    H232718   1.116   5.043  16.108 -0.1553  0.4241  1.5413
 3743TIP3   OH232719   0.008   5.984  12.255  0.4662 -0.3407 -0.1770
 3743TIP3    H132720  -0.062   6.039  12.290  0.2084 -0.2530 -0.8197
 3743TIP3    H232721  -0.013   5.896  12.287 -0.4567 -0.4754 -1.1313
 3744TIP3   OH232722   4.720   6.522   6.027 -0.1378  0.1072  0.6968
 3744TIP3    H132723   4.786   6.539   6.094  0.0206 -1.0466  0.8391
 3744TIP3    H232724   4.690   6.609   6.000  1.5677  0.6397  0.4853
 3745TIP3   OH232725   4.270   0.418   3.650  0.1601 -0.3291  0.4519
 3745TIP3    H132726   4.338   0.468   3.697 -0.9024  1.0324  0.5738
 3745TIP3    H232727   4.288   0.435   3.557  1.1145 -1.4934  0.4131
 3746TIP3   OH232728   5.118   3.567   0.345 -0.5277  0.2181  0.4673
 3746TIP3    H132729   5.030   3.603   0.355 -0.5737 -0.0691  1.0897
 3746TIP3    H232730   5.173   3.620   0.403 -0.6395 -0.8559  1.5714
 3747TIP3   OH232731   2.810   6.731  13.153 -0.3503 -0.2457 -0.5680
 3747TIP3    H132732   2.841   6.657  13.205 -0.1817 -0.3538 -0.8212
 3747TIP3    H232733   2.819   6.806  13.211 -0.6756 -0.4492 -0.2550
 3748TIP3   OH232734   5.951   5.704  11.285  0.0570 -0.7804 -0.5494
 3748TIP3    H132735   5.988   5.708  11.197  0.1136 -0.1130 -0.4965
 3748TIP3    H232736   5.857   5.698  11.272  0.1074 -1.3178 -0.6660
 3749TIP3   OH232737   6.073   1.408   0.391 -0.1308 -0.2854 -0.4264
 3749TIP3    H132738   6.139   1.368   0.448 -2.6174 -0.9964  2.0017
 3749TIP3    H232739   6.101   1.500   0.383  1.1080 -0.5622  0.5936
 3750TIP3   OH232740   1.369   6.770   3.015 -0.0869 -0.0246 -0.6318
 3750TIP3    H132741   1.387   6.737   2.927  0.8709 -3.5427  0.7931
 3750TIP3    H232742   1.275   6.753   3.029 -0.2298  0.5001 -0.9395
 3751TIP3   OH232743   2.674   4.568   5.550  0.2710  0.1033 -0.1112
 3751TIP3    H132744   2.621   4.490   5.567 -1.4020  1.1765 -0.3392
 3751TIP3    H232745   2.657   4.589   5.459  0.6831  0.7817 -0.0315
 3752TIP3   OH232746   4.476   3.264   6.497 -0.0886 -0.5649  0.1318
 3752TIP3    H132747   4.549   3.204   6.485  0.0878 -0.3426  0.0997
 3752TIP3    H232748   4.412   3.238   6.431 -0.1204 -0.8809  0.2820
 3753TIP3   OH232749   5.911   4.140   0.517 -0.3341  0.4841 -0.0317
 3753TIP3    H132750   5.816   4.129   0.518 -0.5799  2.4157  1.0167
 3753TIP3    H232751   5.927   4.212   0.578  1.7500  0.6295 -0.7164
 3754TIP3   OH232752   1.705   6.203   5.505 -0.3002 -0.2955  0.2555
 3754TIP3    H132753   1.793   6.180   5.533 -0.4668 -1.4612 -0.1449
 3754TIP3    H232754   1.649   6.177   5.579 -0.0249  3.3845  1.8692
 3755TIP3   OH232755   5.987   0.471   3.583  0.1044 -0.4844  0.0525
 3755TIP3    H132756   5.960   0.550   3.535 -0.2352  0.5179  1.8552
 3755TIP3    H232757   5.933   0.401   3.545 -1.2908  0.5782  0.0419
 3756TIP3   OH232758   3.811   5.362  13.620 -0.3381  0.0201  0.3914
 3756TIP3    H132759   3.808   5.307  13.698  1.0275 -0.2982  0.2254
 3756TIP3    H232760   3.736   5.421  13.630 -0.7154 -0.6256  1.4825
 3757TIP3   OH232761   3.692   1.670   2.913 -0.3835 -0.7506  0.4014
 3757TIP3    H132762   3.696   1.760   2.945 -0.6405 -1.0395  1.2567
 3757TIP3    H232763   3.721   1.676   2.822 -2.6210  0.5210 -0.2566
 3758TIP3   OH232764   2.228   6.739   5.711 -0.0003  0.1662 -0.2092
 3758TIP3    H132765   2.244   6.730   5.805 -0.0121  0.2837 -0.1962
 3758TIP3    H232766   2.301   6.793   5.680  1.6237 -2.2742 -0.7635
 3759TIP3   OH232767   1.120   4.257  13.307  0.0652 -0.0176 -0.1790
 3759TIP3    H132768   1.136   4.195  13.236  2.0241  0.6560 -0.3496
 3759TIP3    H232769   1.197   4.315  13.306  0.1960 -0.1055  2.5888
 3760TIP3   OH232770   0.978   4.282   4.175 -0.5000  0.3962 -0.1979
 3760TIP3    H132771   1.047   4.339   4.140 -0.1422  0.5045  0.6771
 3760TIP3    H232772   0.904   4.340   4.189 -1.2462  0.0412 -2.4227
 3761TIP3   OH232773   5.938   5.789   5.204  0.3868  0.1397  0.1356
 3761TIP3    H132774   5.878   5.771   5.132 -1.2618 -2.6113  2.0660
 3761TIP3    H232775   6.025   5.777   5.167 -0.4478 -1.6598 -1.3102
 3762TIP3   OH232776   3.532   1.717   4.623 -0.3986  0.0669 -0.0914
 3762TIP3    H132777   3.568   1.754   4.703  1.2897  0.3283 -0.9245
 3762TIP3    H232778   3.439   1.740   4.624 -0.5046 -0.4009  2.0191
 3763TIP3   OH232779   6.379   6.159   1.979  0.0053  0.0268 -0.0860
 3763TIP3    H132780   6.379   6.255   1.979 -0.7907  0.0334  0.0775
 3763TIP3    H232781   6.395   6.135   1.888  0.5195  0.3136 -0.0726
 3764TIP3   OH232782   0.423   2.105   5.095 -0.0786 -0.1168  0.1973
 3764TIP3    H132783   0.387   2.193   5.086  0.6798  0.2216  0.4707
 3764TIP3    H232784   0.431   2.073   5.005  0.2695  0.3405  0.0699
 3765TIP3   OH232785   5.536   3.354  14.168  0.1013 -0.3428 -0.5051
 3765TIP3    H132786   5.620   3.311  14.154 -0.1047 -0.8697 -0.1665
 3765TIP3    H232787   5.497   3.359  14.080  1.0200  1.0635 -0.8578
 3766TIP3   OH232788   3.649   2.494  17.014  0.1587 -0.3731 -0.3652
 3766TIP3    H132789   3.562   2.530  17.031  0.6949  0.3838  0.8210
 3766TIP3    H232790   3.635   2.427  16.947 -1.3281 -0.2334 -0.1987
 3767TIP3   OH232791   3.960   1.116  15.257  0.2022 -0.7603  0.0596
 3767TIP3    H132792   4.023   1.106  15.185  1.3707 -0.8363  1.0880
 3767TIP3    H232793   4.000   1.181  15.315 -0.2420 -1.4647  1.1678
 3768TIP3   OH232794   6.479   6.246  11.541 -0.4383  0.8045  0.0444
 3768TIP3    H132795   6.449   6.195  11.466 -3.9199  0.2805  1.7190
 3768TIP3    H232796   6.532   6.316  11.502 -0.4523 -0.6335 -2.7089
 3769TIP3   OH232797   0.537   1.879   2.978  0.5049 -0.1305  0.0068
 3769TIP3    H132798   0.487   1.924   2.910 -1.4435 -2.2610 -0.0409
 3769TIP3    H232799   0.574   1.803   2.934 -1.4369 -1.9784  1.4275
 3770TIP3   OH232800   4.668   5.146  17.067  0.2426  0.5143 -0.6652
 3770TIP3    H132801   4.743   5.200  17.094 -0.1561  0.6833  0.1086
 3770TIP3    H232802   4.612   5.142  17.144 -0.6778  0.6057 -1.3247
 3771TIP3   OH232803   1.601   4.065   3.747  0.0841  0.8267 -0.0275
 3771TIP3    H132804   1.530   4.105   3.697  1.0786  2.2082 -0.3672
 3771TIP3    H232805   1.623   4.131   3.813 -1.0628 -0.8673  2.1263
 3772TIP3   OH232806   4.995   2.390   4.214  0.4840 -0.2339  0.2740
 3772TIP3    H132807   4.904   2.398   4.185  0.6183 -0.5680 -0.2433
 3772TIP3    H232808   5.044   2.444   4.152  0.4139  1.5663  1.7296
 3773TIP3   OH232809   1.437   1.068   0.695  0.0775 -0.6701  0.3688
 3773TIP3    H132810   1.412   1.102   0.781  0.8917 -0.8770  0.6935
 3773TIP3    H232811   1.533   1.068   0.696  0.1030 -2.4028  0.1541
 3774TIP3   OH232812   4.343   4.581  11.651  0.0140  0.5455 -0.6402
 3774TIP3    H132813   4.359   4.489  11.627 -1.5773 -0.2557  1.2417
 3774TIP3    H232814   4.287   4.615  11.581 -0.2898 -0.2315 -0.7781
 3775TIP3   OH232815   6.004   0.669  11.074 -0.2611 -0.1398  0.0187
 3775TIP3    H132816   6.041   0.606  11.011 -1.7890  0.0325 -1.0775
 3775TIP3    H232817   6.016   0.754  11.032 -2.9140 -0.1788 -0.8976
 3776TIP3   OH232818   3.226   3.390   5.320  0.0758 -0.6035  0.4424
 3776TIP3    H132819   3.231   3.419   5.412 -1.8498 -0.0365  0.3808
 3776TIP3    H232820   3.132   3.387   5.301  0.5038  0.8267 -1.9967
 3777TIP3   OH232821   4.876   2.005  16.551  0.1780  0.1464  0.5721
 3777TIP3    H132822   4.933   2.009  16.627 -0.3146  1.0732  0.8929
 3777TIP3    H232823   4.889   1.917  16.516  0.3571 -0.3037  1.7613
 3778TIP3   OH232824   0.771   6.286   0.821 -0.0354  0.0060 -0.1281
 3778TIP3    H132825   0.710   6.213   0.813 -1.1854  1.0403 -0.9480
 3778TIP3    H232826   0.812   6.293   0.735 -0.7482  1.0271 -0.3918
 3779TIP3   OH232827   5.167   0.146  15.026 -0.2270 -0.3611 -0.1283
 3779TIP3    H132828   5.125   0.193  15.098  0.4845  2.0102 -1.1985
 3779TIP3    H232829   5.099   0.140  14.959 -0.2650 -0.6729 -0.0591
 3780TIP3   OH232830   1.988   2.390   4.268 -0.1060 -0.0303 -0.3722
 3780TIP3    H132831   1.922   2.321   4.269 -0.2365  0.0961 -0.2565
 3780TIP3    H232832   2.024   2.390   4.357  1.4360 -1.4309 -0.9847
 3781TIP3   OH232833   5.654   5.229  13.118 -0.2818 -0.0678  0.5774
 3781TIP3    H132834   5.617   5.281  13.048  0.4292  1.8012  1.5607
 3781TIP3    H232835   5.741   5.204  13.086 -0.1582  0.3460  0.5990
 3782TIP3   OH232836   5.170   1.965  15.200 -0.0345 -0.4409 -0.3427
 3782TIP3    H132837   5.137   1.900  15.263 -1.1056  0.4299  0.0129
 3782TIP3    H232838   5.112   2.040  15.211 -0.4270 -0.3887 -2.5982
 3783TIP3   OH232839   4.220   0.922   0.187  0.3872  0.0903  0.2831
 3783TIP3    H132840   4.312   0.906   0.166 -0.2912 -1.8952 -1.2715
 3783TIP3    H232841   4.191   0.841   0.230 -0.9509  0.2545 -0.3065
 3784TIP3   OH232842   5.867   0.934   2.870  0.1989 -0.0821  0.4434
 3784TIP3    H132843   5.902   0.909   2.956 -3.7457 -1.1652  1.8418
 3784TIP3    H232844   5.842   0.852   2.829 -1.7494  0.6880  0.0242
 3785TIP3   OH232845   3.362   5.288   2.799  0.0057  0.4323  0.0303
 3785TIP3    H132846   3.342   5.376   2.768 -1.4025  0.3997  0.8513
 3785TIP3    H232847   3.390   5.300   2.889 -1.6798 -0.1174  0.6421
 3786TIP3   OH232848   5.333   0.076   4.590 -0.2772  0.0415 -0.0552
 3786TIP3    H132849   5.293   0.135   4.526  1.4174  0.9850 -0.2617
 3786TIP3    H232850   5.322   0.121   4.674  0.3311  0.2929 -0.1100
 3787TIP3   OH232851   1.400   6.443   1.648 -0.5061  0.5278  0.0989
 3787TIP3    H132852   1.307   6.423   1.646 -0.4782  0.4979 -1.6451
 3787TIP3    H232853   1.411   6.512   1.583  0.6715  0.6123  0.3799
 3788TIP3   OH232854   2.433   4.843   3.293  0.2803  0.3080 -0.1256
 3788TIP3    H132855   2.368   4.892   3.345 -0.2660 -1.4749  0.9315
 3788TIP3    H232856   2.408   4.751   3.305  1.8157 -0.2857 -1.3541
 3789TIP3   OH232857   4.665   4.584  14.694 -0.2411 -0.0074  0.1622
 3789TIP3    H132858   4.631   4.530  14.765 -0.6610  0.4361  0.2959
 3789TIP3    H232859   4.636   4.673  14.714  0.8799  0.3480  0.2032
 3790TIP3   OH232860   2.831   6.277   4.480  0.2234 -0.2668  0.0474
 3790TIP3    H132861   2.794   6.356   4.518  1.6719  0.5050 -0.0964
 3790TIP3    H232862   2.890   6.243   4.547 -0.6822 -1.4362  0.2552
 3791TIP3   OH232863   1.637   1.406  16.563 -0.4271  0.4415 -0.0366
 3791TIP3    H132864   1.579   1.475  16.595  0.3481  1.7863 -1.4612
 3791TIP3    H232865   1.612   1.394  16.471  1.9445  1.5507 -0.8908
 3792TIP3   OH232866   0.925   2.949   4.780 -0.2128 -0.3648 -0.2829
 3792TIP3    H132867   0.891   2.972   4.866 -1.0031 -1.1845 -0.3722
 3792TIP3    H232868   1.015   2.983   4.780 -1.4614  3.1564 -0.6089
 3793TIP3   OH232869   0.834   6.353  10.848  0.4897  0.3268 -0.2095
 3793TIP3    H132870   0.738   6.348  10.853  0.3900  0.9059 -1.4858
 3793TIP3    H232871   0.863   6.276  10.896 -0.4965  2.4209  3.9328
 3794TIP3   OH232872   4.971   0.275  16.250 -0.2864 -0.4940  0.2429
 3794TIP3    H132873   4.916   0.350  16.230 -0.7731 -0.8948  0.0824
 3794TIP3    H232874   5.061   0.309  16.246 -0.5532  0.3811  1.4164
 3795TIP3   OH232875   6.248   0.461  16.086 -0.2886 -0.2704 -0.1167
 3795TIP3    H132876   6.192   0.406  16.031  0.7360 -1.7493  0.2827
 3795TIP3    H232877   6.188   0.520  16.131 -1.2827 -0.1364 -1.6103
 3796TIP3   OH232878   1.935   3.424   2.664 -0.2044  0.0402  0.4442
 3796TIP3    H132879   1.883   3.445   2.586  1.3043 -0.3865 -0.7090
 3796TIP3    H232880   1.954   3.331   2.656  1.3023  0.3295  0.4718
 3797TIP3   OH232881   3.723   4.102   5.435  0.1208 -0.1357  0.5140
 3797TIP3    H132882   3.745   4.010   5.418 -0.0730 -0.2645  0.9605
 3797TIP3    H232883   3.633   4.100   5.467 -0.6729  0.4289 -1.6127
 3798TIP3   OH232884   0.015   0.387  16.536 -0.1896  0.3362 -0.1861
 3798TIP3    H132885   0.069   0.404  16.459 -1.0531 -1.9454 -1.3471
 3798TIP3    H232886   0.068   0.330  16.591 -1.3913 -2.0287 -1.3941
 3799TIP3   OH232887   1.447   1.145   1.530  0.5819  0.3746  0.4326
 3799TIP3    H132888   1.480   1.055   1.534 -0.1699 -0.0887 -2.6376
 3799TIP3    H232889   1.360   1.140   1.568 -0.3256 -0.6929 -1.6970
 3800TIP3   OH232890   4.107   6.176   4.597  0.5248 -0.0627 -0.1997
 3800TIP3    H132891   4.129   6.260   4.639  1.0451 -0.2759 -0.0428
 3800TIP3    H232892   4.029   6.146   4.643  0.5300  0.1712 -0.0335
 3801TIP3   OH232893   4.809   3.105   5.921  0.1193  0.5876  0.1849
 3801TIP3    H132894   4.886   3.158   5.940  0.0827  0.8472 -0.3747
 3801TIP3    H232895   4.819   3.079   5.830 -0.2200  0.2242  0.2469
 3802TIP3   OH232896   5.122   2.952  13.925 -0.2695  0.2430  0.6273
 3802TIP3    H132897   5.123   2.856  13.924  1.6366  0.2695 -0.4416
 3802TIP3    H232898   5.149   2.975  14.014  1.3074 -0.2081  0.2798
 3803TIP3   OH232899   0.282   2.183  13.141  0.6184 -0.1554 -0.3116
 3803TIP3    H132900   0.341   2.180  13.065  0.5504 -0.0390 -0.3700
 3803TIP3    H232901   0.322   2.247  13.199 -0.1805  0.9715 -0.9737
 3804TIP3   OH232902   4.076   1.180   3.716  0.0287 -0.6012 -0.0303
 3804TIP3    H132903   4.049   1.264   3.754 -1.3920 -0.9445 -0.2767
 3804TIP3    H232904   4.090   1.198   3.624 -1.2401 -0.8518 -0.2754
 3805TIP3   OH232905   1.908   3.306  15.078  0.3514  0.1515 -0.1788
 3805TIP3    H132906   1.879   3.231  15.130  1.8073 -0.8561 -0.7972
 3805TIP3    H232907   1.874   3.382  15.126  0.1771 -0.8249  1.2954
 3806TIP3   OH232908   4.850   3.644  17.270 -0.6573  0.4226 -0.0651
 3806TIP3    H132909   4.802   3.639  17.353 -1.3627  0.7189 -0.4585
 3806TIP3    H232910   4.936   3.607  17.291 -0.9878  0.0600  0.6837
 3807TIP3   OH232911   3.286   1.537  17.221 -0.8188 -0.0756  0.3177
 3807TIP3    H132912   3.365   1.484  17.213  1.0990  2.4157  1.8124
 3807TIP3    H232913   3.245   1.507  17.302 -1.5002 -1.4832 -0.5405
 3808TIP3   OH232914   1.014   2.034   4.716 -0.3836 -0.4041  0.7438
 3808TIP3    H132915   1.002   2.125   4.690  0.4977 -0.3412  0.5310
 3808TIP3    H232916   0.933   2.011   4.761 -2.2432 -0.7101 -2.6069
 3809TIP3   OH232917   3.800   5.456   5.590 -0.2216  0.6345 -0.0012
 3809TIP3    H132918   3.775   5.385   5.531 -1.5113  1.4832 -0.5051
 3809TIP3    H232919   3.796   5.535   5.536 -1.1724  1.3818  1.1410
 3810TIP3   OH232920   3.184   1.808   4.400  0.7400 -0.3978 -0.3765
 3810TIP3    H132921   3.164   1.844   4.314  2.9770  2.8404  0.4026
 3810TIP3    H232922   3.127   1.731   4.407 -1.9233  1.2079 -3.3420
 3811TIP3   OH232923   4.573   4.328   2.605 -0.0821 -0.6777 -0.3853
 3811TIP3    H132924   4.492   4.339   2.655 -0.8063 -2.6891 -1.0737
 3811TIP3    H232925   4.592   4.234   2.611  0.6402 -0.6948 -2.6432
 3812TIP3   OH232926   4.788   1.810  14.014 -0.3650 -0.5440  0.1117
 3812TIP3    H132927   4.834   1.775  13.937 -0.5961 -1.6082  0.4375
 3812TIP3    H232928   4.835   1.772  14.089 -0.7144 -0.2592  0.4744
 3813TIP3   OH232929   5.222   1.797   1.610  0.1516 -0.1345 -0.3751
 3813TIP3    H132930   5.283   1.814   1.682 -0.0618  1.8326 -0.6379
 3813TIP3    H232931   5.197   1.705   1.621  3.1157 -0.9802 -0.2490
 3814TIP3   OH232932   5.100   3.552   2.041  0.5830  0.3432 -0.4756
 3814TIP3    H132933   5.066   3.558   1.951  0.4319 -1.7707 -0.5932
 3814TIP3    H232934   5.048   3.615   2.090 -0.9059 -0.0978 -1.4359
 3815TIP3   OH232935   5.927   0.500   4.689  0.0436  0.4367  0.3912
 3815TIP3    H132936   5.922   0.414   4.647  0.9609 -0.0577  1.2764
 3815TIP3    H232937   6.019   0.511   4.712  0.2292  2.3104 -1.0366
 3816TIP3   OH232938   1.643   4.645   1.899 -0.3373 -0.0050 -0.0222
 3816TIP3    H132939   1.707   4.714   1.881 -1.8170  1.4780  0.2710
 3816TIP3    H232940   1.591   4.639   1.818 -0.4354 -0.5334  0.0782
 3817TIP3   OH232941   0.206   4.180  14.915  0.8914 -0.1420  0.1422
 3817TIP3    H132942   0.220   4.238  14.840  0.1502 -0.3125 -0.1359
 3817TIP3    H232943   0.150   4.230  14.974  0.0733 -0.6483 -0.1942
 3818TIP3   OH232944   5.918   5.517   2.737 -0.7421 -0.3245  0.1350
 3818TIP3    H132945   5.902   5.423   2.723 -1.0713 -0.1952 -0.3870
 3818TIP3    H232946   5.879   5.536   2.822  0.8302 -1.0224  1.0383
 3819TIP3   OH232947   4.819   1.592  10.640  0.0160  0.3686 -0.2710
 3819TIP3    H132948   4.884   1.522  10.632  0.8033  0.9003  1.2891
 3819TIP3    H232949   4.778   1.596  10.554  0.9118 -1.0823 -0.7902
 3820TIP3   OH232950   5.737   1.505   1.766  0.1159 -0.2963  0.0351
 3820TIP3    H132951   5.756   1.435   1.703 -0.0059 -0.8096  0.5588
 3820TIP3    H232952   5.732   1.460   1.851  0.1293  0.3625  0.3912
 3821TIP3   OH232953   1.291   2.453  12.700  0.1658 -0.9863 -0.3003
 3821TIP3    H132954   1.282   2.428  12.792 -1.2297 -0.6973 -0.3552
 3821TIP3    H232955   1.285   2.371  12.652 -0.1371 -1.0182 -0.2046
 3822TIP3   OH232956   2.683   4.486   0.020 -0.2664 -0.3539 -1.0705
 3822TIP3    H132957   2.632   4.409   0.045  0.2249 -0.1670  0.5692
 3822TIP3    H232958   2.636   4.560   0.059  0.7025 -0.0925 -0.3700
 3823TIP3   OH232959   3.683   0.694  14.233  0.0450  0.0341  0.6181
 3823TIP3    H132960   3.649   0.775  14.194  1.1564  0.7731  1.1716
 3823TIP3    H232961   3.638   0.687  14.317 -0.7912 -0.4560  0.1379
 3824TIP3   OH232962   5.667   2.237  12.464 -0.3060 -0.2742 -0.4837
 3824TIP3    H132963   5.722   2.305  12.502 -1.3758  0.0924  0.4111
 3824TIP3    H232964   5.661   2.260  12.371  0.9498 -0.2621 -0.5784
 3825TIP3   OH232965   1.775   0.066   2.788  0.0305 -0.0562  0.4243
 3825TIP3    H132966   1.758  -0.009   2.731 -0.5981  1.4578 -1.4356
 3825TIP3    H232967   1.697   0.121   2.779  1.0058  1.4105  0.7866
 3826TIP3   OH232968   3.557   3.165   1.294  0.0902  0.2086  0.1061
 3826TIP3    H132969   3.650   3.189   1.292 -0.4277  2.2901  0.5462
 3826TIP3    H232970   3.546   3.107   1.218  2.5955 -3.3490  2.3059
 3827TIP3   OH232971   0.811   1.910   4.877 -0.3869 -0.3822 -0.3751
 3827TIP3    H132972   0.890   1.882   4.923 -1.6026 -2.3911  0.5415
 3827TIP3    H232973   0.799   1.844   4.808  1.0626  2.2402 -3.2652
 3828TIP3   OH232974   3.210   2.686   4.957 -0.4456  0.0066  0.1487
 3828TIP3    H132975   3.182   2.678   4.866  2.1694 -1.4395 -0.5853
 3828TIP3    H232976   3.305   2.698   4.952  0.1387 -2.7928  2.7300
 3829TIP3   OH232977   4.314   5.037   0.879  0.1913  0.4150 -0.0573
 3829TIP3    H132978   4.281   5.065   0.964  2.6710  2.9963  0.1397
 3829TIP3    H232979   4.281   5.104   0.818  1.3475  0.5426 -0.5469
 3830TIP3   OH232980   4.233   0.380   2.486  0.1911 -0.3440  0.0420
 3830TIP3    H132981   4.158   0.434   2.513 -1.4879 -1.7369 -1.6508
 3830TIP3    H232982   4.309   0.424   2.523 -1.5466  0.6146  2.6264
 3831TIP3   OH232983   4.261   5.993  14.387  0.3334 -0.7859  0.2850
 3831TIP3    H132984   4.322   6.066  14.378 -1.6671  0.9257  0.1921
 3831TIP3    H232985   4.230   5.977  14.298 -0.7624 -0.3948  0.5972
 3832TIP3   OH232986   5.839   1.373  16.495 -0.2171  0.8863 -0.2699
 3832TIP3    H132987   5.857   1.286  16.530 -1.2141  1.7430  2.5565
 3832TIP3    H232988   5.746   1.371  16.473 -0.0531  0.9962 -0.9879
 3833TIP3   OH232989   4.415   2.483  14.895 -0.0287  0.2567 -0.0292
 3833TIP3    H132990   4.493   2.524  14.932 -0.2727 -0.5893  1.4628
 3833TIP3    H232991   4.441   2.394  14.875 -0.2770  0.3232 -0.6800
 3834TIP3   OH232992   1.916   1.512  15.209 -0.0633 -0.6560 -0.4440
 3834TIP3    H132993   1.956   1.457  15.276 -2.1920  1.0537  2.3756
 3834TIP3    H232994   1.972   1.590  15.204 -0.0445 -0.6700 -0.4474
 3835TIP3   OH232995   4.485   2.600   2.831 -0.0783 -0.5316 -0.4249
 3835TIP3    H132996   4.559   2.542   2.847 -0.2469 -1.0904 -1.6587
 3835TIP3    H232997   4.423   2.578   2.900  0.8381 -0.1511  0.5380
 3836TIP3   OH232998   6.019   6.486   3.489  0.5068 -0.0752 -0.2147
 3836TIP3    H132999   6.055   6.452   3.571 -0.2956 -1.1952 -0.3037
 3836TIP3    H233000   5.966   6.414   3.455 -1.5584  1.3909 -0.2247
 3837TIP3   OH233001   1.611   6.470  13.325 -0.0807  0.4998  0.4115
 3837TIP3    H133002   1.640   6.423  13.403 -0.8948 -0.0732  0.3788
 3837TIP3    H233003   1.678   6.536  13.310  1.8924 -1.6671 -0.4689
 3838TIP3   OH233004   5.496   4.767  15.677 -0.4043  0.4849 -0.5754
 3838TIP3    H133005   5.406   4.759  15.646 -1.0965  1.3398  1.1243
 3838TIP3    H233006   5.487   4.798  15.767  1.5747 -0.2970 -0.0957
 3839TIP3   OH233007   4.055   4.801   2.529 -0.6856  0.0918 -0.3032
 3839TIP3    H133008   4.039   4.786   2.622  2.8018 -1.4357  0.1191
 3839TIP3    H233009   4.102   4.885   2.526  0.0424 -0.3209 -0.5816
 3840TIP3   OH233010   0.614   4.001   0.594 -0.0610  0.3376 -0.2607
 3840TIP3    H133011   0.560   4.060   0.647  1.0612  2.1124 -1.0481
 3840TIP3    H233012   0.699   4.001   0.638  0.3762  0.4903 -1.1072
 3841TIP3   OH233013   3.066   6.639   0.031  0.0162 -0.8120  0.9907
 3841TIP3    H133014   3.002   6.710   0.026  0.6547 -0.2571  0.5872
 3841TIP3    H233015   3.147   6.682   0.060 -0.1661 -1.7434  3.0020
 3842TIP3   OH233016   3.559   5.033  12.480  0.3352  0.9063  0.6434
 3842TIP3    H133017   3.508   4.973  12.425  1.4135  0.8830 -0.3530
 3842TIP3    H233018   3.576   4.984  12.560  0.8140  0.0377  0.0173
 3843TIP3   OH233019   2.745   4.938  10.451 -0.4988  0.1537  0.1602
 3843TIP3    H133020   2.747   4.882  10.529 -1.0554  1.1123  0.8670
 3843TIP3    H233021   2.653   4.961  10.440 -0.3387  0.5297 -0.4193
 3844TIP3   OH233022   4.936   3.441  12.553 -0.4680  0.1938  0.7888
 3844TIP3    H133023   4.933   3.480  12.466 -0.8181 -0.7164  0.3878
 3844TIP3    H233024   5.025   3.458  12.584 -0.6102  1.2670  0.6046
 3845TIP3   OH233025   2.031   0.763   3.548  0.5581 -0.2922  0.1976
 3845TIP3    H133026   1.937   0.783   3.556  0.0364 -2.5837  0.1944
 3845TIP3    H233027   2.069   0.841   3.509 -1.0641  1.3557  1.8090
 3846TIP3   OH233028   0.059   1.409  14.857  0.0513  0.0356 -0.0410
 3846TIP3    H133029   0.058   1.497  14.896 -2.2793 -0.3068  0.7549
 3846TIP3    H233030   0.008   1.418  14.777 -0.9127 -0.7736  0.4781
 3847TIP3   OH233031   1.885   3.357   1.460  0.1006  0.3179 -0.0454
 3847TIP3    H133032   1.793   3.360   1.485  0.0628  0.0296 -0.1582
 3847TIP3    H233033   1.915   3.448   1.470  0.1269  0.1812  1.2044
 3848TIP3   OH233034   2.037   0.769   3.223  0.3578 -0.6126 -0.4075
 3848TIP3    H133035   2.007   0.843   3.170 -0.5399  0.6686  1.7809
 3848TIP3    H233036   1.963   0.748   3.279  1.4939 -1.4527  0.8222
 3849TIP3   OH233037   2.956   4.083   3.896 -0.3589  0.3952 -0.1373
 3849TIP3    H133038   2.957   4.081   3.991 -1.0795 -0.4929 -0.1473
 3849TIP3    H233039   2.987   3.997   3.869 -2.4624 -0.2137 -0.6923
 3850TIP3   OH233040   3.426   2.677  12.499  0.1217 -0.4944  0.0262
 3850TIP3    H133041   3.479   2.651  12.575  0.9955  1.4707  0.1217
 3850TIP3    H233042   3.472   2.753  12.463 -1.7533  0.2435 -0.8793
 3851TIP3   OH233043   2.953   1.030   4.535  0.6406  0.1692  0.6944
 3851TIP3    H133044   2.876   1.050   4.481  1.3255  1.6556  0.2476
 3851TIP3    H233045   2.951   0.934   4.545 -0.5883  0.0782 -0.3232
 3852TIP3   OH233046   0.318   4.361   4.869 -0.4964  0.3496  0.3710
 3852TIP3    H133047   0.363   4.381   4.951 -0.5996  0.9732  0.2755
 3852TIP3    H233048   0.376   4.396   4.801  0.0185 -0.9399  0.1286
 3853TIP3   OH233049   5.470   6.074  15.080  0.1697  0.6212  0.2790
 3853TIP3    H133050   5.483   6.146  15.018 -0.0134  0.2016 -0.2486
 3853TIP3    H233051   5.376   6.058  15.079  0.4082 -0.7917 -0.9351
 3854TIP3   OH233052   5.314   0.979  11.343  0.3085  0.1506  0.0330
 3854TIP3    H133053   5.381   1.000  11.278  0.3105 -0.7526 -0.2705
 3854TIP3    H233054   5.353   1.002  11.427  1.2483 -0.9577 -0.0864
 3855TIP3   OH233055   0.808   2.810  13.973  0.8845  0.1746 -0.3800
 3855TIP3    H133056   0.792   2.899  14.006  0.7141  0.7673 -2.0227
 3855TIP3    H233057   0.748   2.801  13.899 -0.2629 -1.9121  0.7708
 3856TIP3   OH233058   6.698   6.708   5.367  0.0628  0.3127  0.4067
 3856TIP3    H133059   6.652   6.624   5.378  1.2700 -0.2229  1.5655
 3856TIP3    H233060   6.757   6.712   5.443  2.5796  0.5460 -1.5270
 3857TIP3   OH233061   5.686   1.737   0.304  0.2172 -0.2914 -1.0055
 3857TIP3    H133062   5.753   1.694   0.357  0.6088  1.1749 -0.2922
 3857TIP3    H233063   5.721   1.735   0.215  2.0886  2.0482 -0.3886
 3858TIP3   OH233064   1.007   0.244   0.913  0.2697 -0.3028  0.8078
 3858TIP3    H133065   0.977   0.331   0.943  2.1866 -0.1280  2.3561
 3858TIP3    H233066   0.975   0.238   0.823 -1.2586  1.3477  1.1834
 3859TIP3   OH233067   1.512   3.132  11.579 -0.4453  0.2075 -0.4044
 3859TIP3    H133068   1.498   3.101  11.668  0.4833 -0.2878 -0.4222
 3859TIP3    H233069   1.602   3.165  11.579 -0.2783 -0.2423 -1.2810
 3860TIP3   OH233070   4.042   6.694  17.119 -0.2306 -0.1681  0.2031
 3860TIP3    H133071   4.105   6.759  17.088  0.8491 -1.9365 -1.4090
 3860TIP3    H233072   4.077   6.665  17.204  0.9355 -0.8443 -0.4944
 3861TIP3   OH233073   0.477   3.413   0.573  0.5128 -0.5055  0.2341
 3861TIP3    H133074   0.541   3.441   0.508  1.1399  0.4878  1.2762
 3861TIP3    H233075   0.407   3.478   0.566  1.1092  0.2595  1.3493
 3862TIP3   OH233076   3.822   0.761   5.954 -0.3533 -0.5232 -0.1063
 3862TIP3    H133077   3.806   0.729   5.866  0.9990  2.6404 -1.5901
 3862TIP3    H233078   3.738   0.796   5.983 -0.7634 -1.4296 -0.1888
 3863TIP3   OH233079   2.405   0.437   4.478 -0.1301 -0.2679 -0.6059
 3863TIP3    H133080   2.376   0.432   4.569 -1.8918  0.6611 -1.1048
 3863TIP3    H233081   2.332   0.477   4.431  1.4508  0.9166 -2.1209
 3864TIP3   OH233082   4.605   2.546   1.734  0.0797 -0.1339 -0.4455
 3864TIP3    H133083   4.599   2.567   1.641  0.0339  0.2624 -0.3560
 3864TIP3    H233084   4.620   2.451   1.737  1.4604  0.0474 -0.9088
 3865TIP3   OH233085   1.714   4.000   2.749 -0.4980  0.5589 -0.1957
 3865TIP3    H133086   1.626   4.031   2.728 -0.9004  0.6727  1.5695
 3865TIP3    H233087   1.729   4.030   2.839  0.1428 -2.0964  0.6352
 3866TIP3   OH233088   3.684   3.528  14.815 -0.0388 -0.0681  0.3465
 3866TIP3    H133089   3.685   3.516  14.910 -1.2512 -0.1687  0.3569
 3866TIP3    H233090   3.652   3.444  14.781  1.8553 -0.5742 -0.2513
 3867TIP3   OH233091   2.309   0.918  12.041  0.2594  0.6429  0.0413
 3867TIP3    H133092   2.238   0.871  12.084  0.5856  1.4911  1.5265
 3867TIP3    H233093   2.383   0.857  12.042  0.1034  0.4579  0.1705
 3868TIP3   OH233094   2.271   5.474  10.567 -0.9216 -0.2412 -0.0746
 3868TIP3    H133095   2.216   5.418  10.621 -0.3110 -0.2640  0.5330
 3868TIP3    H233096   2.320   5.528  10.629  1.8204 -2.1945 -0.4330
 3869TIP3   OH233097   6.301   6.305  13.196 -0.4086 -0.2034  1.2242
 3869TIP3    H133098   6.371   6.251  13.233 -0.0528 -0.2028  0.5645
 3869TIP3    H233099   6.293   6.275  13.105  0.3154  1.3778  0.6172
 3870TIP3   OH233100   0.335   0.133  16.364  0.0573  0.3489 -1.0312
 3870TIP3    H133101   0.263   0.150  16.303 -0.3750  3.1407  0.1725
 3870TIP3    H233102   0.414   0.157  16.315 -0.1159  0.5864 -1.1987
 3871TIP3   OH233103   1.802   4.664   3.815 -0.7355 -0.0417 -0.3606
 3871TIP3    H133104   1.737   4.631   3.753 -0.3124 -2.1034  0.2348
 3871TIP3    H233105   1.861   4.590   3.829 -0.3593  0.6418  1.8772
 3872TIP3   OH233106   3.180   6.268   2.402  0.1121  0.1511 -0.4619
 3872TIP3    H133107   3.203   6.231   2.317 -1.0746 -1.1359 -0.2375
 3872TIP3    H233108   3.248   6.334   2.419  0.9935 -0.3791 -1.8815
 3873TIP3   OH233109   4.605   4.247   6.358 -0.1258 -0.6231 -0.0441
 3873TIP3    H133110   4.629   4.169   6.409 -0.3410  0.6533  2.0621
 3873TIP3    H233111   4.663   4.244   6.282  0.6003 -2.2654  0.5353
 3874TIP3   OH233112   1.294   4.654  15.301 -0.0550  0.3955  0.1000
 3874TIP3    H133113   1.234   4.711  15.349  1.1431  0.1753  1.8720
 3874TIP3    H233114   1.245   4.572  15.291 -1.2431  1.2452 -1.2458
 3875TIP3   OH233115   3.542   5.992   5.470  0.0187  0.4455  0.0510
 3875TIP3    H133116   3.570   6.078   5.502  2.9902 -0.6104  0.4700
 3875TIP3    H233117   3.528   6.005   5.376  0.7357  1.3102  0.0564
 3876TIP3   OH233118   0.599   1.928  16.648  0.3378  0.2094 -0.8869
 3876TIP3    H133119   0.647   2.010  16.640  1.3474 -0.4625 -1.8849
 3876TIP3    H233120   0.510   1.949  16.622  0.6538  0.9249 -1.3991
 3877TIP3   OH233121   0.395   3.427  13.094  0.0095  0.1006  0.0729
 3877TIP3    H133122   0.455   3.478  13.040 -0.1206  0.2393  0.0562
 3877TIP3    H233123   0.433   3.339  13.097 -0.7094 -0.2816 -1.4085
 3878TIP3   OH233124   2.600   4.119   3.632  0.0053  0.0548  0.0771
 3878TIP3    H133125   2.680   4.142   3.585  0.1502 -1.0046 -0.2258
 3878TIP3    H233126   2.594   4.023   3.623  0.4389 -0.2620  2.8931
 3879TIP3   OH233127   1.547   1.745  15.387 -0.6816 -0.5258  0.3876
 3879TIP3    H133128   1.471   1.702  15.425 -0.0369 -1.6101  0.4730
 3879TIP3    H233129   1.622   1.698  15.423  0.0609  0.9650  0.8253
 3880TIP3   OH233130   0.421   4.492   0.837 -0.2074 -0.2314  0.0991
 3880TIP3    H133131   0.349   4.520   0.893  1.9298 -0.8670  3.2833
 3880TIP3    H233132   0.490   4.557   0.852  1.6327 -2.2938  0.9006
 3881TIP3   OH233133   2.299   0.392  12.311  0.1928 -0.3221 -0.1861
 3881TIP3    H133134   2.365   0.348  12.364  1.9851  0.4928 -1.6989
 3881TIP3    H233135   2.271   0.326  12.247 -0.0903 -0.4960  0.1127
 3882TIP3   OH233136   2.820   1.727  17.123  0.7206 -0.5459 -0.0963
 3882TIP3    H133137   2.899   1.737  17.177 -0.4160 -1.8887  1.8756
 3882TIP3    H233138   2.839   1.654  17.065  1.4625  0.0717 -0.6435
 3883TIP3   OH233139   1.965   4.970   3.498 -0.0243  0.1959 -0.0878
 3883TIP3    H133140   1.905   5.008   3.563 -1.3443 -0.8469 -0.6792
 3883TIP3    H233141   2.052   4.989   3.533 -0.6722  2.6197  0.2763
 3884TIP3   OH233142   1.512   5.230   4.299  0.2733  0.3657  0.1485
 3884TIP3    H133143   1.544   5.284   4.227  2.6291 -0.0398  0.8479
 3884TIP3    H233144   1.440   5.281   4.337  0.8998  1.9068 -0.6913
 3885TIP3   OH233145   0.559   5.935   5.612  0.3185  0.9177 -0.3383
 3885TIP3    H133146   0.498   6.009   5.608 -0.5339  0.1384 -2.9408
 3885TIP3    H233147   0.508   5.861   5.578  1.8940 -0.3308 -0.0037
 3886TIP3   OH233148   4.427   6.523  11.501  0.1668  0.0718  0.7121
 3886TIP3    H133149   4.510   6.541  11.544 -0.1951  0.2077  1.3546
 3886TIP3    H233150   4.389   6.609  11.485 -0.2946 -0.0173  1.2962
 3887TIP3   OH233151   0.505   4.573   1.295 -0.1129  0.5254 -0.1504
 3887TIP3    H133152   0.424   4.522   1.301 -0.1745  0.7131  0.7356
 3887TIP3    H233153   0.574   4.508   1.311 -0.0992  0.4051 -0.6962
 3888TIP3   OH233154   2.922   3.944   1.762 -0.3164  0.2392  0.5489
 3888TIP3    H133155   2.917   4.028   1.806  2.8363  0.6181  0.2808
 3888TIP3    H233156   2.960   3.885   1.827 -0.6482 -0.5019  0.0831
 3889TIP3   OH233157   1.245   5.033   2.725 -0.2585  0.2943 -0.2682
 3889TIP3    H133158   1.218   5.092   2.654 -0.5048  1.9603  1.1580
 3889TIP3    H233159   1.340   5.040   2.727 -0.3512  1.4622  0.5587
 3890TIP3   OH233160   3.079   0.550   0.940 -0.1727  0.2306 -0.0070
 3890TIP3    H133161   3.117   0.635   0.915  0.8060 -0.5421 -1.1780
 3890TIP3    H233162   3.152   0.502   0.980 -0.6280 -0.2032  0.3074
 3891TIP3   OH233163   0.375   4.268  13.861  0.3372 -0.0616  0.1453
 3891TIP3    H133164   0.341   4.286  13.773  0.2728 -0.7875  0.0150
 3891TIP3    H233165   0.464   4.236  13.846  0.9070  1.3507  0.4579
 3892TIP3   OH233166   4.933   3.797   1.871  0.1409  0.2177 -0.4262
 3892TIP3    H133167   4.915   3.779   1.963  1.7564  0.4599 -0.0586
 3892TIP3    H233168   4.848   3.787   1.828 -0.5778 -0.1281  1.0460
 3893TIP3   OH233169   5.708   0.258  12.008 -0.5592  0.3611  0.2724
 3893TIP3    H133170   5.638   0.313  11.973 -1.4155 -0.7600  0.1833
 3893TIP3    H233171   5.663   0.180  12.040  0.4997  0.2593  1.5525
 3894TIP3   OH233172   5.342   3.440   3.612  0.5976 -0.1660  0.1309
 3894TIP3    H133173   5.344   3.418   3.519 -0.5492 -2.2212  0.5633
 3894TIP3    H233174   5.250   3.459   3.630  0.8030  0.1410  0.8785
 3895TIP3   OH233175   0.630   4.837  13.730 -0.3901 -0.0944  0.2429
 3895TIP3    H133176   0.561   4.857  13.793 -1.5948 -0.3645 -0.9660
 3895TIP3    H233177   0.651   4.920  13.689  2.2701  0.5938  2.7908
 3896TIP3   OH233178   3.808   2.211  15.173  0.0045  0.3732 -0.4115
 3896TIP3    H133179   3.754   2.217  15.094 -0.8424  0.4163  0.1558
 3896TIP3    H233180   3.876   2.277  15.160  0.4140 -0.2493 -1.5082
 3897TIP3   OH233181   3.098   5.881   5.426  0.1822  0.1470  0.2823
 3897TIP3    H133182   3.152   5.805   5.447 -0.5217 -0.0995  1.2438
 3897TIP3    H233183   3.024   5.875   5.487 -0.2377  1.2096 -0.1171
 3898TIP3   OH233184   3.175   2.830   0.161 -0.1044 -0.1008 -0.5476
 3898TIP3    H133185   3.238   2.773   0.118  0.1130 -0.4412  0.2148
 3898TIP3    H233186   3.096   2.824   0.107  0.2963 -0.1929 -1.1281
 3899TIP3   OH233187   6.247   3.713  13.839 -0.1905 -0.2572  0.5047
 3899TIP3    H133188   6.180   3.656  13.877  0.5823 -1.6301 -0.1383
 3899TIP3    H233189   6.227   3.800  13.874 -2.5468 -0.5553 -0.0062
 3900TIP3   OH233190   3.659   4.115  11.675  0.1707  0.2574 -0.3643
 3900TIP3    H133191   3.592   4.065  11.628  0.9243  0.5195 -1.7458
 3900TIP3    H233192   3.739   4.100  11.625  1.1592 -0.0627  1.2868
 3901TIP3   OH233193   3.235   5.402   3.298 -0.1743  0.6901  0.1635
 3901TIP3    H133194   3.300   5.376   3.233 -1.5305  0.8201 -1.2989
 3901TIP3    H233195   3.156   5.353   3.274 -1.2202  2.1124  0.5940
 3902TIP3   OH233196   6.373   5.273  11.945  0.2370 -0.0636 -0.3448
 3902TIP3    H133197   6.406   5.246  11.859  0.3510 -0.6545 -0.1195
 3902TIP3    H233198   6.362   5.191  11.993 -1.5768  0.1172 -0.4189
 3903TIP3   OH233199   5.298   6.774  11.770 -0.7515 -0.3091  0.2831
 3903TIP3    H133200   5.217   6.774  11.822 -0.9511 -3.0149  0.0916
 3903TIP3    H233201   5.273   6.731  11.688  0.6397 -0.2305 -0.1937
 3904TIP3   OH233202   0.029   3.605  15.285 -0.3382  0.2281  0.7874
 3904TIP3    H133203   0.114   3.631  15.250  1.0037 -1.2667  2.8320
 3904TIP3    H233204  -0.002   3.538  15.224  0.2734  0.2606  0.4362
 3905TIP3   OH233205   1.364   3.489  14.678  0.0863  0.3622  0.1902
 3905TIP3    H133206   1.302   3.513  14.747 -0.1374 -0.9970  0.4749
 3905TIP3    H233207   1.356   3.559  14.613 -2.5855 -0.3629 -0.3299
 3906TIP3   OH233208   2.181   5.599   0.782 -0.0100  0.3676 -0.0671
 3906TIP3    H133209   2.209   5.636   0.698  1.5596  0.2551  0.3970
 3906TIP3    H233210   2.105   5.651   0.807  1.0888  2.1056 -0.3008
 3907TIP3   OH233211   1.323   2.627   4.111  0.3026  0.3820  0.4686
 3907TIP3    H133212   1.271   2.605   4.033 -0.3434 -0.9960  1.2611
 3907TIP3    H233213   1.365   2.710   4.089  1.4329 -0.7837 -1.9858
 3908TIP3   OH233214   4.936   5.213  10.433  0.2194  0.5728  0.6410
 3908TIP3    H133215   4.858   5.224  10.488  1.5859 -1.3310  3.0651
 3908TIP3    H233216   4.949   5.118  10.429  3.2071  0.9028  1.4667
 3909TIP3   OH233217   5.962   3.195   5.543 -0.1079  0.1361 -0.7331
 3909TIP3    H133218   5.925   3.223   5.459  2.9895  0.5996 -2.0224
 3909TIP3    H233219   5.982   3.277   5.588 -0.3521 -0.1088 -0.1716
 3910TIP3   OH233220   4.063   0.756  13.767  0.3727 -0.0186 -0.1248
 3910TIP3    H133221   4.119   0.832  13.748  1.9386 -0.7203  1.4612
 3910TIP3    H233222   3.975   0.785  13.744  1.2102  1.5731 -1.4811
 3911TIP3   OH233223   6.411   3.993   4.492 -0.2230 -0.2296  0.0166
 3911TIP3    H133224   6.503   3.986   4.520 -0.0963 -0.7217 -0.5042
 3911TIP3    H233225   6.376   3.905   4.505  0.1148 -0.7384 -2.2923
 3912TIP3   OH233226   1.608   0.394  15.353 -0.3437  0.0781  0.1186
 3912TIP3    H133227   1.632   0.465  15.293 -1.8382  0.3982 -0.1275
 3912TIP3    H233228   1.598   0.437  15.438 -0.3569 -0.0032  0.1578
 3913TIP3   OH233229   4.295   2.340  12.855  0.0783  0.0675  0.5088
 3913TIP3    H133230   4.266   2.312  12.942  0.2994  0.0428  0.5748
 3913TIP3    H233231   4.387   2.314  12.851  0.2453  0.6372  0.5125
 3914TIP3   OH233232   0.602   3.598   3.485  0.5760  0.1986  0.1201
 3914TIP3    H133233   0.575   3.576   3.396  2.0294  0.1103 -0.3070
 3914TIP3    H233234   0.642   3.518   3.519 -0.2392  0.1354  0.9760
 3915TIP3   OH233235   1.632   3.463   6.894 -0.2839  0.1525  0.5143
 3915TIP3    H133236   1.604   3.374   6.873 -0.4231  0.1543  0.6974
 3915TIP3    H233237   1.576   3.490   6.966 -1.5222  1.0796 -0.7894
 3916TIP3   OH233238   4.292   3.090   2.942  0.1113  0.5776  0.2302
 3916TIP3    H133239   4.354   3.117   3.010 -0.7008 -0.7870  1.5390
 3916TIP3    H233240   4.290   2.994   2.948 -0.5348  0.4820 -1.2243
 3917TIP3   OH233241   0.772   1.103   2.715 -0.1965  0.5677  0.1389
 3917TIP3    H133242   0.743   1.171   2.654 -0.7083 -0.2117 -0.5017
 3917TIP3    H233243   0.750   1.137   2.802 -1.6675  0.6448 -0.2493
 3918TIP3   OH233244   6.538   1.226  11.422  0.5348  0.2573  0.1908
 3918TIP3    H133245   6.510   1.149  11.373  0.8241  0.2463  0.0385
 3918TIP3    H233246   6.562   1.290  11.354  2.0675 -0.1702  0.3101
 3919TIP3   OH233247   3.268   6.420   2.860  0.8026 -0.1021  0.4263
 3919TIP3    H133248   3.307   6.360   2.924  3.0292  1.2813  0.4298
 3919TIP3    H233249   3.271   6.505   2.904  1.3149  0.6684 -1.0712
 3920TIP3   OH233250   4.735   0.753  13.713  0.5989  0.1288  0.1214
 3920TIP3    H133251   4.645   0.760  13.745  0.8063  2.4326  0.3197
 3920TIP3    H233252   4.732   0.791  13.625  1.3914  0.3404  0.1819
 3921TIP3   OH233253   3.831   1.230  13.841  0.0910 -0.2379 -0.2728
 3921TIP3    H133254   3.757   1.181  13.876 -0.2105  0.7397  0.5058
 3921TIP3    H233255   3.846   1.299  13.906  1.4048 -0.1738 -0.6418
 3922TIP3   OH233256   5.654   1.949   5.162  0.2452 -0.1759  0.0520
 3922TIP3    H133257   5.617   1.994   5.086  0.4122 -1.4748 -0.8189
 3922TIP3    H233258   5.667   2.018   5.227 -1.8610  0.6026 -0.3311
 3923TIP3   OH233259   1.295   4.144   3.054  0.2624  0.1478 -0.5304
 3923TIP3    H133260   1.353   4.080   3.095 -3.1365 -2.3189  0.6730
 3923TIP3    H233261   1.315   4.227   3.098  0.1705 -1.4501  2.6408
 3924TIP3   OH233262   3.722   5.838   1.568  0.3583 -0.5404 -0.5904
 3924TIP3    H133263   3.747   5.751   1.599  1.5468  0.0025  0.0323
 3924TIP3    H233264   3.694   5.824   1.477  1.3934 -1.4477 -0.7841
 3925TIP3   OH233265   6.674   2.468   5.354 -0.3948  0.0426 -0.6869
 3925TIP3    H133266   6.677   2.462   5.449 -0.8888 -0.2585 -0.6886
 3925TIP3    H233267   6.757   2.508   5.330  1.0786 -2.7377 -0.3828
 3926TIP3   OH233268   6.727   1.402  16.610  0.7163  0.5533 -0.1963
 3926TIP3    H133269   6.666   1.447  16.552 -1.6488  0.0623  1.8584
 3926TIP3    H233270   6.807   1.455  16.607 -0.8094  2.8702 -0.6003
 3927TIP3   OH233271   0.278   6.650  11.579 -0.7791  0.2491 -0.2052
 3927TIP3    H133272   0.267   6.734  11.535  1.1577  0.9334  0.5557
 3927TIP3    H233273   0.196   6.637  11.627 -0.7667  2.1224  0.3569
 3928TIP3   OH233274   4.342   2.780   1.033 -0.0842  0.2752 -0.3438
 3928TIP3    H133275   4.250   2.752   1.040  0.2426 -1.0062 -0.8930
 3928TIP3    H233276   4.371   2.746   0.948  0.3075  2.4979 -1.1201
 3929TIP3   OH233277   6.602   5.199  15.842 -0.7053  0.2439 -0.1262
 3929TIP3    H133278   6.584   5.218  15.750  0.2863 -0.8168 -0.5509
 3929TIP3    H233279   6.556   5.117  15.859 -0.2653  0.0505  0.1214
 3930TIP3   OH233280   1.597   1.239   4.555 -0.0094  0.2600 -0.1958
 3930TIP3    H133281   1.593   1.209   4.464 -0.1655 -2.9792  0.8222
 3930TIP3    H233282   1.690   1.238   4.577 -0.0514  0.0318 -0.0214
 3931TIP3   OH233283   1.944   1.501  11.586  0.4935  0.2430 -0.4170
 3931TIP3    H133284   1.905   1.513  11.499 -3.1155  0.7129  1.2234
 3931TIP3    H233285   1.906   1.570  11.640  0.5479 -1.7381  2.2385
 3932TIP3   OH233286   5.100   2.023   1.522  0.4204  0.1448  0.1493
 3932TIP3    H133287   5.170   1.959   1.534  1.3342  0.8995 -1.2017
 3932TIP3    H233288   5.020   1.969   1.516  1.2411 -0.9246 -1.5520
 3933TIP3   OH233289   0.744   0.024  14.962  0.3210 -0.0683 -0.3802
 3933TIP3    H133290   0.813  -0.021  15.010 -0.2714  0.3969  0.9286
 3933TIP3    H233291   0.781   0.109  14.939 -0.0736  0.4879  1.0055
 3934TIP3   OH233292   5.572   2.507   5.633 -0.3107  0.2021 -0.0367
 3934TIP3    H133293   5.549   2.415   5.649 -3.2998  0.8510 -0.2982
 3934TIP3    H233294   5.509   2.536   5.566  0.8492  2.3357 -0.2426
 3935TIP3   OH233295   1.556   1.069   5.274  0.5262  0.2016  0.3005
 3935TIP3    H133296   1.535   1.154   5.236 -1.3885 -0.7410 -0.8638
 3935TIP3    H233297   1.492   1.009   5.236  1.4382 -1.6586  1.5696
 3936TIP3   OH233298   1.561   3.439   3.555 -0.3092  0.3011  0.1492
 3936TIP3    H133299   1.558   3.477   3.643 -0.8154 -0.7115  0.5744
 3936TIP3    H233300   1.472   3.409   3.539 -0.1072  0.0606 -0.5211
 3937TIP3   OH233301   0.467   1.342   2.833 -0.2728  0.0944  0.7471
 3937TIP3    H133302   0.383   1.342   2.878 -0.4406  0.4096  0.4371
 3937TIP3    H233303   0.479   1.433   2.804 -0.6302 -0.3042 -0.6975
 3938TIP3   OH233304   4.627   0.794  14.624  0.0469 -0.0483  0.0584
 3938TIP3    H133305   4.653   0.731  14.691  0.6701  0.9184  0.7447
 3938TIP3    H233306   4.643   0.749  14.541 -0.3002 -1.0871  0.5532
 3939TIP3   OH233307   4.639   4.943  10.158  0.1220 -0.0674 -0.2508
 3939TIP3    H133308   4.709   4.887  10.193  1.2969  1.3738 -0.2105
 3939TIP3    H233309   4.678   5.031  10.156 -1.0751  0.4489 -2.0100
 3940TIP3   OH233310   6.174   3.885  12.100 -0.2709 -0.0107 -0.2542
 3940TIP3    H133311   6.259   3.887  12.056 -0.3298  1.1446 -0.3284
 3940TIP3    H233312   6.184   3.942  12.176 -1.1180  0.5274 -0.5370
 3941TIP3   OH233313   6.672   2.118   6.417  0.0681 -0.3766  0.7438
 3941TIP3    H133314   6.630   2.198   6.388  1.5248  0.3147  0.4870
 3941TIP3    H233315   6.606   2.073   6.469 -0.8015  0.9129  0.7660
 3942TIP3   OH233316   0.557   3.186  15.170  0.5191 -0.4415 -0.1591
 3942TIP3    H133317   0.535   3.130  15.096  0.6413 -0.0683 -0.4803
 3942TIP3    H233318   0.536   3.274  15.140 -0.9466 -0.4513  0.8322
 3943TIP3   OH233319   2.832   2.178  14.092 -0.1532 -0.0408 -0.1851
 3943TIP3    H133320   2.907   2.238  14.094 -0.0305 -0.1934 -0.1364
 3943TIP3    H233321   2.848   2.124  14.014 -0.9030  0.8006 -0.9388
 3944TIP3   OH233322   4.765   4.839  16.310 -0.6981 -0.2770  0.6808
 3944TIP3    H133323   4.670   4.825  16.311 -0.5358 -1.3648  1.7632
 3944TIP3    H233324   4.786   4.851  16.218 -1.7555 -1.0130  0.3318
 3945TIP3   OH233325   1.332   5.157  11.395 -0.2799  0.3881 -0.2509
 3945TIP3    H133326   1.416   5.204  11.393  1.2565 -2.2127  0.6857
 3945TIP3    H233327   1.314   5.135  11.304  1.5505 -1.5332 -0.1831
 3946TIP3   OH233328   6.778   0.492   4.036 -0.1644  0.8041 -0.0474
 3946TIP3    H133329   6.777   0.513   3.942  0.4872  1.2543  0.0386
 3946TIP3    H233330   6.686   0.493   4.062 -0.2572  1.8906 -0.4138
 3947TIP3   OH233331   5.739   2.024  16.817  0.1207 -0.6126  0.3943
 3947TIP3    H133332   5.810   2.016  16.752 -0.5009 -2.4692 -0.0722
 3947TIP3    H233333   5.784   2.052  16.897  1.2853 -0.9831 -0.1094
 3948TIP3   OH233334   0.796   4.988  13.194 -0.5230  0.5341 -0.0243
 3948TIP3    H133335   0.761   4.934  13.264 -0.0349 -0.1589 -0.3132
 3948TIP3    H233336   0.874   5.030  13.232 -2.6543  3.5256  1.2185
 3949TIP3   OH233337   0.550   5.530   2.048  0.0087 -0.2493  0.6469
 3949TIP3    H133338   0.613   5.476   2.096 -0.4856 -0.4410  1.0937
 3949TIP3    H233339   0.478   5.544   2.111 -0.9394 -1.0372 -0.2485
 3950TIP3   OH233340   0.524   4.443  12.346 -0.6765  0.0133 -0.4881
 3950TIP3    H133341   0.606   4.454  12.394  0.2728  0.6465 -2.1813
 3950TIP3    H233342   0.547   4.383  12.274 -1.6837  0.2101 -0.9786
 3951TIP3   OH233343   3.669   5.091   2.757 -0.6142  0.9280 -0.1016
 3951TIP3    H133344   3.692   5.175   2.719 -3.5571  1.6316 -0.4299
 3951TIP3    H233345   3.678   5.028   2.685  1.6398  0.9008  0.1606
 3952TIP3   OH233346   3.731   2.916   5.373 -0.1539  0.4110  0.0879
 3952TIP3    H133347   3.775   2.998   5.354  0.5846  0.2387  1.0326
 3952TIP3    H233348   3.707   2.922   5.465  0.2445 -0.5871  0.2652
 3953TIP3   OH233349   5.628   6.148   3.981  0.2896  0.4219  0.6846
 3953TIP3    H133350   5.596   6.227   3.939 -1.3697  0.0487  1.1983
 3953TIP3    H233351   5.676   6.101   3.912  1.0511  1.7267  0.3137
 3954TIP3   OH233352   4.833   1.471   6.061 -0.3007 -0.4245 -0.1849
 3954TIP3    H133353   4.800   1.404   6.120  0.4636 -0.9423 -0.3304
 3954TIP3    H233354   4.761   1.533   6.051 -0.6797 -0.7203  0.7078
 3955TIP3   OH233355   5.847   1.586  14.923 -0.4653  0.3555 -0.0081
 3955TIP3    H133356   5.830   1.493  14.940  0.3559  0.2841  0.4519
 3955TIP3    H233357   5.942   1.592  14.913 -0.5527  1.0823 -0.4518
 3956TIP3   OH233358   1.460   1.912  12.581 -0.6173  0.2971 -0.1355
 3956TIP3    H133359   1.481   2.005  12.565  2.2063 -0.1653  0.5025
 3956TIP3    H233360   1.383   1.895  12.528  0.3740  2.3612 -2.3488
 3957TIP3   OH233361   0.314   5.404  16.917 -0.4445 -0.1081  0.2370
 3957TIP3    H133362   0.389   5.379  16.972 -0.2112  0.3108  0.1109
 3957TIP3    H233363   0.265   5.466  16.971 -1.6898 -1.7438  1.0346
 3958TIP3   OH233364   4.115   1.181  14.035 -0.6649  0.0911 -0.0064
 3958TIP3    H133365   4.040   1.129  14.066 -0.7988  1.2097  1.6669
 3958TIP3    H233366   4.076   1.262  14.002 -0.5628 -1.3100 -3.7752
 3959TIP3   OH233367   4.704   2.698   1.018  0.3570  0.2548 -0.8147
 3959TIP3    H133368   4.780   2.721   0.965  1.1148 -0.6061 -0.1163
 3959TIP3    H233369   4.731   2.620   1.067 -0.6447  0.4950  0.1544
 3960TIP3   OH233370   3.540   2.897  13.869  0.5774  0.3534  0.4801
 3960TIP3    H133371   3.563   2.882  13.960  1.6528 -2.7206 -0.2264
 3960TIP3    H233372   3.601   2.842  13.819 -2.3030 -0.8464 -1.8872
 3961TIP3   OH233373   0.425   1.169   1.760 -0.0045 -0.3831 -0.8669
 3961TIP3    H133374   0.389   1.099   1.706 -1.1441  0.7884 -1.6402
 3961TIP3    H233375   0.474   1.224   1.699  2.1570 -1.3116 -0.0162
 3962TIP3   OH233376   3.585   3.313   1.641  0.1590 -0.2898  0.3332
 3962TIP3    H133377   3.603   3.382   1.705  1.6729  0.4937 -0.8778
 3962TIP3    H233378   3.669   3.299   1.597 -0.6482 -1.4070 -0.9044
 3963TIP3   OH233379   3.943   4.946  15.346 -0.3836  0.1421  0.1392
 3963TIP3    H133380   3.975   5.033  15.371 -1.7450  0.3023  1.3802
 3963TIP3    H233381   3.971   4.936  15.255  0.8078  1.3886  0.3348
 3964TIP3   OH233382   6.731   3.423   3.485 -0.1387  0.3278 -0.3497
 3964TIP3    H133383   6.812   3.394   3.529 -0.5488 -1.2115 -0.5782
 3964TIP3    H233384   6.661   3.392   3.542 -0.5879  1.6337 -0.1708
 3965TIP3   OH233385   3.088   5.288   1.512  0.0261 -0.6081 -0.0568
 3965TIP3    H133386   3.182   5.281   1.502  0.2578  0.6811  1.0494
 3965TIP3    H233387   3.056   5.310   1.424  0.9185  0.4372 -0.1318
 3966TIP3   OH233388   2.957   1.693   0.063 -0.2502  0.1563  0.3764
 3966TIP3    H133389   2.943   1.598   0.055  0.1644  0.2558 -2.1414
 3966TIP3    H233390   3.052   1.702   0.070 -0.0017  0.5103 -2.6875
 3967TIP3   OH233391   5.949   6.290  14.296 -0.0989  0.2604  0.3859
 3967TIP3    H133392   5.938   6.368  14.350  0.8193  0.2174  0.6279
 3967TIP3    H233393   5.985   6.322  14.213  1.6611 -0.0755  1.0110
 3968TIP3   OH233394   0.702   4.076  15.781 -0.0788 -0.5066 -0.2316
 3968TIP3    H133395   0.751   4.138  15.836 -1.7306  0.3435  0.3126
 3968TIP3    H233396   0.726   4.098  15.692 -2.2555  2.3745 -0.1734
 3969TIP3   OH233397   2.613   6.130   0.463 -0.0916  0.3121 -0.0245
 3969TIP3    H133398   2.547   6.195   0.486 -0.3727 -0.7693  2.3314
 3969TIP3    H233399   2.695   6.180   0.462 -0.6744  1.2712 -1.0983
 3970TIP3   OH233400   4.071   5.152   4.073  0.3894  0.8754  0.1714
 3970TIP3    H133401   4.135   5.122   4.136 -1.2731 -1.3066  0.8991
 3970TIP3    H233402   4.120   5.208   4.013  2.4749  1.0470  1.9884
 3971TIP3   OH233403   6.133   5.822  14.362 -0.0397  0.2726  0.4267
 3971TIP3    H133404   6.173   5.748  14.317  1.8929  0.5410  1.6612
 3971TIP3    H233405   6.039   5.802  14.361  0.3725 -1.7724  0.0068
 3972TIP3   OH233406   4.066   6.386  15.941 -0.2455  0.2180 -0.0146
 3972TIP3    H133407   3.973   6.411  15.939  0.0289  1.3858  1.2357
 3972TIP3    H233408   4.069   6.302  15.895 -2.0407 -0.1793  0.5531
 3973TIP3   OH233409   1.246   6.324  13.250  0.4675 -0.2590 -0.4539
 3973TIP3    H133410   1.332   6.291  13.276  0.2431 -0.0752  0.5314
 3973TIP3    H233411   1.233   6.402  13.304 -0.7386 -0.8427  0.1259
 3974TIP3   OH233412   6.166   3.811  13.401  0.3261  0.7030  0.7138
 3974TIP3    H133413   6.243   3.787  13.453  0.1766  0.2165  0.7104
 3974TIP3    H233414   6.188   3.896  13.364  1.0923  0.2976  0.2394
 3975TIP3   OH233415   0.246   5.127  13.274 -0.3757 -0.4973 -0.6287
 3975TIP3    H133416   0.305   5.195  13.306 -3.3532  1.4594  0.9030
 3975TIP3    H233417   0.181   5.174  13.221 -1.7560 -2.2998 -0.5890
 3976TIP3   OH233418   4.903   2.428   5.553  0.2478 -0.5836  0.3231
 3976TIP3    H133419   4.869   2.355   5.501  0.6391 -1.0301  0.6838
 3976TIP3    H233420   4.830   2.453   5.609  0.1190 -0.7179  0.2193
 3977TIP3   OH233421   0.693   0.611  12.503  0.0509 -0.4196 -0.1051
 3977TIP3    H133422   0.760   0.624  12.570 -0.9115  3.0246  0.2680
 3977TIP3    H233423   0.737   0.634  12.421 -1.1316  3.9176  0.3579
 3978TIP3   OH233424   5.964   4.207   4.668  0.7207 -0.7121  0.8848
 3978TIP3    H133425   5.904   4.263   4.618 -0.3179 -1.6410  1.0863
 3978TIP3    H233426   6.017   4.268   4.719  1.9119  0.2798 -1.4428
 3979TIP3   OH233427   2.354   4.811   4.298 -0.2653 -0.3995 -0.0656
 3979TIP3    H133428   2.317   4.839   4.381 -1.2360 -1.1591 -0.2257
 3979TIP3    H233429   2.300   4.854   4.232  0.8348  0.6229 -0.3113
 3980TIP3   OH233430   4.885   1.138   3.397 -0.3964  0.5997 -0.2432
 3980TIP3    H133431   4.908   1.160   3.488  0.6546  2.3164 -0.8933
 3980TIP3    H233432   4.895   1.043   3.392  1.4051  0.6920  0.9692
 3981TIP3   OH233433   6.000   0.393  11.715 -0.2485  0.5140  0.4691
 3981TIP3    H133434   6.075   0.417  11.769  1.0781 -1.2176 -0.5669
 3981TIP3    H233435   6.010   0.445  11.635  0.0228  0.0279  0.1901
 3982TIP3   OH233436   3.944   1.267   3.006 -0.2369  0.0095  0.2153
 3982TIP3    H133437   3.875   1.333   3.002 -0.2241 -0.0872 -2.4800
 3982TIP3    H233438   3.944   1.238   3.097 -0.6729  3.2608  1.3383
 3983TIP3   OH233439   1.750   1.329  13.848  0.0084 -0.2605 -0.0394
 3983TIP3    H133440   1.717   1.303  13.934 -0.0668 -0.4965 -0.1391
 3983TIP3    H233441   1.843   1.306  13.850 -0.6753 -3.3212 -1.1965
 3984TIP3   OH233442   4.431   5.260  16.134 -0.0374  0.4511 -0.1841
 3984TIP3    H133443   4.418   5.330  16.198 -0.9185  0.0972  0.0400
 3984TIP3    H233444   4.368   5.192  16.159 -0.1515  0.1621 -1.2121
 3985TIP3   OH233445   0.207   1.656  12.220 -0.0685 -0.0315  0.2860
 3985TIP3    H133446   0.300   1.673  12.237 -0.0535 -1.0438  1.2167
 3985TIP3    H233447   0.162   1.729  12.263  0.3785  1.7351 -2.0882
 3986TIP3   OH233448   5.182   3.924  12.097 -0.4455  0.9429  0.6486
 3986TIP3    H133449   5.277   3.935  12.084 -0.3076 -0.8970 -0.0689
 3986TIP3    H233450   5.170   3.925  12.191  0.7574 -2.0458  0.9013
 3987TIP3   OH233451   4.097   3.165   2.278  0.1356 -0.3960 -0.5528
 3987TIP3    H133452   4.180   3.147   2.234  0.6364  1.6130 -0.4669
 3987TIP3    H233453   4.113   3.245   2.328 -1.7422 -0.1947 -0.2453
 3988TIP3   OH233454   3.059   4.182   3.285 -0.0334  0.4974 -0.0536
 3988TIP3    H133455   3.116   4.191   3.361 -2.4746 -0.1702  1.9338
 3988TIP3    H233456   3.026   4.270   3.269  0.0864  0.5502 -0.0111
 3989TIP3   OH233457   4.892   0.689  13.937  0.1424  0.0251 -0.1202
 3989TIP3    H133458   4.866   0.725  13.852  2.3174 -0.9458 -1.2390
 3989TIP3    H233459   4.827   0.723  13.999 -1.6663  0.4698 -2.2196
 3990TIP3   OH233460   6.644   6.751   2.681 -0.2303 -0.1738  0.0379
 3990TIP3    H133461   6.723   6.697   2.687 -0.3956 -0.6399 -1.7940
 3990TIP3    H233462   6.676   6.840   2.692 -0.1461 -0.6251  4.7465
 3991TIP3   OH233463   2.963   3.493  15.439  0.3892 -0.7023 -0.8329
 3991TIP3    H133464   2.994   3.412  15.398  1.2984 -1.5849  1.4922
 3991TIP3    H233465   3.036   3.521  15.494 -0.8456  0.3290  0.3105
 3992TIP3   OH233466   4.203   6.323  16.715 -0.2645 -0.1088  0.2566
 3992TIP3    H133467   4.287   6.297  16.754 -0.6536 -1.0792  0.4676
 3992TIP3    H233468   4.221   6.332  16.622  0.5139  1.5467  0.5455
 3993TIP3   OH233469   0.325   4.816   4.525  0.1101 -0.1301 -0.9749
 3993TIP3    H133470   0.348   4.775   4.608 -0.7355 -0.6658 -1.0032
 3993TIP3    H233471   0.262   4.884   4.549  1.5162  1.1915 -0.9226
 3994TIP3   OH233472   1.753   6.689  13.250  0.2087  0.0354 -0.9757
 3994TIP3    H133473   1.789   6.668  13.164 -1.5718  1.8321 -2.2148
 3994TIP3    H233474   1.767   6.783  13.259 -2.2735  0.4053 -0.6282
 3995TIP3   OH233475   5.576   3.387   2.471  0.3394  0.2572  0.9604
 3995TIP3    H133476   5.620   3.307   2.443  1.6676  1.7740 -1.4415
 3995TIP3    H233477   5.508   3.402   2.404  1.6305  2.3614  0.0851
 3996TIP3   OH233478   0.654   3.443   5.614 -0.4562  0.2788 -0.2384
 3996TIP3    H133479   0.687   3.445   5.525 -0.1951  0.7071 -0.1290
 3996TIP3    H233480   0.604   3.361   5.619  0.7944 -0.5034 -0.3204
 3997TIP3   OH233481   0.941   3.775  14.798  0.3081  0.2032 -0.3976
 3997TIP3    H133482   0.944   3.731  14.713  0.1618  0.0624 -0.3313
 3997TIP3    H233483   0.947   3.704  14.862  1.1702  0.3699 -0.2934
 3998TIP3   OH233484   3.666   5.712   4.143  0.1958  0.7092  0.4257
 3998TIP3    H133485   3.761   5.725   4.148  0.6851 -2.9231  1.8277
 3998TIP3    H233486   3.655   5.638   4.084 -1.6522  0.0780  1.5207
 3999TIP3   OH233487   5.580   0.292  12.803 -0.2571  0.1558 -0.8022
 3999TIP3    H133488   5.606   0.360  12.740 -0.9785  3.0459  1.8923
 3999TIP3    H233489   5.485   0.301  12.810 -0.1054  0.4063  1.2429
 4000TIP3   OH233490   5.123   2.943   1.781 -0.2360  0.4486 -0.0927
 4000TIP3    H133491   5.054   2.927   1.717  1.0393  0.7996 -1.5848
 4000TIP3    H233492   5.200   2.900   1.745  0.0632 -0.9460  2.1337
 4001TIP3   OH233493   0.951   2.969   3.861 -0.7298 -0.4471 -0.5532
 4001TIP3    H133494   0.886   3.039   3.853  0.5624  0.7823 -0.4216
 4001TIP3    H233495   0.971   2.945   3.770 -0.1163  0.3493 -0.6323
 4002TIP3   OH233496   0.821   3.488   2.469  0.2328  0.1898 -0.8048
 4002TIP3    H133497   0.728   3.464   2.468  0.1843  0.3332 -0.0552
 4002TIP3    H233498   0.827   3.560   2.407 -0.3320  0.7876 -0.1825
 4003TIP3   OH233499   4.268   2.953  14.021  0.1155 -0.8570 -0.1293
 4003TIP3    H133500   4.267   3.046  14.041 -1.3708 -0.6818 -1.0011
 4003TIP3    H233501   4.258   2.948  13.926  0.3688 -1.9013 -0.1134
 4004TIP3   OH233502   1.102   1.115   2.080 -0.3025  0.3474 -0.4441
 4004TIP3    H133503   1.147   1.047   2.131  1.5956 -0.0159 -2.5115
 4004TIP3    H233504   1.025   1.071   2.045 -0.1263 -0.1966 -0.1606
 4005TIP3   OH233505   3.021   3.138   0.161  0.5508 -0.1505  0.1908
 4005TIP3    H133506   2.939   3.093   0.178  0.8060 -0.6128  0.2036
 4005TIP3    H233507   3.001   3.231   0.174 -0.3400 -0.1259 -1.2628
 4006TIP3   OH233508   4.916   5.892  13.479 -0.4139 -0.5662 -0.1441
 4006TIP3    H133509   4.838   5.945  13.494 -0.1136 -0.3700  0.7432
 4006TIP3    H233510   4.929   5.844  13.561  0.6983 -0.1984 -0.1065
 4007TIP3   OH233511   6.208   5.374   0.112 -0.0744 -0.0085  0.5869
 4007TIP3    H133512   6.265   5.298   0.101 -0.7470 -0.5846  1.0793
 4007TIP3    H233513   6.163   5.359   0.194  1.5592  2.1011  1.9260
 4008TIP3   OH233514   5.595   3.686  15.590  0.0013  0.2337  0.1898
 4008TIP3    H133515   5.534   3.754  15.618  1.1554  1.2712  0.2472
 4008TIP3    H233516   5.677   3.708  15.635  0.6211 -0.7080 -0.4658
 4009TIP3   OH233517   4.832   1.712  15.382 -0.3523 -0.4918 -0.2848
 4009TIP3    H133518   4.913   1.696  15.334  0.7806  1.6692  0.8444
 4009TIP3    H233519   4.810   1.804  15.363 -0.7994 -0.1074  1.9449
 4010TIP3   OH233520   2.356   4.821   1.181  0.4547 -0.0068 -0.4445
 4010TIP3    H133521   2.337   4.788   1.093 -1.9470  0.9095 -0.2947
 4010TIP3    H233522   2.340   4.746   1.239  3.7271 -1.1291 -0.8940
 4011TIP3   OH233523   6.576   0.913  11.185 -0.0714 -0.0271 -0.4328
 4011TIP3    H133524   6.654   0.964  11.207  0.5530 -1.1813  0.0726
 4011TIP3    H233525   6.567   0.851  11.258 -1.3512 -0.0257 -0.5861
 4012TIP3   OH233526   2.445   3.110   2.091 -0.4544 -0.5045  0.3002
 4012TIP3    H133527   2.502   3.045   2.132  0.5365  1.2002  1.6719
 4012TIP3    H233528   2.449   3.186   2.148 -2.1623  0.5399 -0.9073
 4013TIP3   OH233529   5.000   5.411   0.599  0.3932 -0.1991  0.0670
 4013TIP3    H133530   4.925   5.370   0.640  0.9778 -1.0015  0.3420
 4013TIP3    H233531   5.057   5.338   0.574  1.1117  0.4002 -0.0670
 4014TIP3   OH233532   4.159   3.374   3.137 -0.0058 -0.0723  0.0822
 4014TIP3    H133533   4.155   3.280   3.154  0.9925 -0.2568 -0.6156
 4014TIP3    H233534   4.158   3.382   3.042  0.3885  0.5921  0.1244
 4015TIP3   OH233535   6.713   4.002   1.687 -0.9521  0.0250  0.2039
 4015TIP3    H133536   6.661   3.991   1.766 -0.0390  1.1601  0.9772
 4015TIP3    H233537   6.777   4.070   1.709 -0.2536 -0.1224 -1.2840
 4016TIP3   OH233538   4.743   2.128   0.586  0.6470  0.4425  0.0563
 4016TIP3    H133539   4.663   2.076   0.579  1.0201 -0.0465 -0.6832
 4016TIP3    H233540   4.795   2.102   0.510  0.6929  2.1786 -0.5246
 4017TIP3   OH233541   4.581   5.644  14.492  0.4726 -0.1982  0.4646
 4017TIP3    H133542   4.540   5.719  14.536 -0.7187 -0.4417 -0.2094
 4017TIP3    H233543   4.665   5.677  14.461  1.5700 -0.1477  3.3154
 4018TIP3   OH233544   4.822   5.965   2.436  0.5095  0.3136 -0.0434
 4018TIP3    H133545   4.881   6.022   2.387 -0.5525  0.0227 -1.7030
 4018TIP3    H233546   4.872   5.884   2.448  0.8843  0.4900 -0.4082
 4019TIP3   OH233547   0.231   5.713   5.278  0.2208  0.0399 -0.1897
 4019TIP3    H133548   0.290   5.711   5.203  0.1498 -1.2364 -0.2324
 4019TIP3    H233549   0.184   5.629   5.273 -0.8389  0.5871  0.4325
 4020TIP3   OH233550   2.141   1.924  12.300 -0.0612 -0.1886  0.0009
 4020TIP3    H133551   2.168   2.006  12.258 -0.3108  0.0161  0.2367
 4020TIP3    H233552   2.046   1.928  12.302 -0.0996 -0.7824 -0.5685
 4021TIP3   OH233553   3.302   1.519   2.288 -0.2544 -0.8364  0.3912
 4021TIP3    H133554   3.362   1.458   2.330 -0.2890 -2.4666 -1.8427
 4021TIP3    H233555   3.221   1.511   2.338  0.5447 -0.6048  1.7619
 4022TIP3   OH233556   4.017   5.970   0.257  0.0218  0.2843 -0.1841
 4022TIP3    H133557   4.108   5.996   0.243  0.0716  0.3561  0.2506
 4022TIP3    H233558   3.977   5.972   0.170  0.3591  0.5427 -0.3323
 4023TIP3   OH233559   4.780   3.933   5.400 -0.2890  0.2794  0.1737
 4023TIP3    H133560   4.813   3.861   5.454  0.8595  1.2392  0.7549
 4023TIP3    H233561   4.773   3.895   5.312  2.4941  0.0672 -0.0033
 4024TIP3   OH233562   2.356   4.250  14.331  0.3452 -0.0340  0.4403
 4024TIP3    H133563   2.271   4.258  14.287 -0.4879  0.1669  2.0239
 4024TIP3    H233564   2.341   4.186  14.400  0.6738  2.0566  2.5290
 4025TIP3   OH233565   3.714   5.318   2.595  0.3060  0.4169  0.0238
 4025TIP3    H133566   3.650   5.349   2.530 -0.7865 -0.2125  0.7913
 4025TIP3    H233567   3.739   5.397   2.643  0.1047  0.6699 -0.2781
 4026TIP3   OH233568   3.077   1.920  14.629  0.1969  0.3180 -0.7394
 4026TIP3    H133569   3.164   1.959  14.632  0.8039 -1.0959  0.7215
 4026TIP3    H233570   3.092   1.828  14.605 -0.8741  0.0245 -0.3364
 4027TIP3   OH233571   4.668   4.721   4.065  0.1358  0.1981 -0.3004
 4027TIP3    H133572   4.723   4.683   3.996 -1.3559  1.3022 -2.1233
 4027TIP3    H233573   4.717   4.799   4.094  0.6489 -0.1390 -0.2400
 4028TIP3   OH233574   5.819   5.358  16.514  0.1262 -0.1339 -0.0193
 4028TIP3    H133575   5.891   5.318  16.563 -1.1353 -0.0431  1.9249
 4028TIP3    H233576   5.862   5.397  16.437  1.8356 -2.1426 -0.1307
 4029TIP3   OH233577   5.945   2.147   6.097 -0.0227 -0.2055 -0.1401
 4029TIP3    H133578   5.920   2.056   6.114  4.2737 -1.6952 -1.1946
 4029TIP3    H233579   5.982   2.178   6.179  1.5059 -0.5309 -0.6858
 4030TIP3   OH233580   3.619   2.091   5.081  0.5141  0.1930  0.0507
 4030TIP3    H133581   3.570   2.161   5.125  3.2154  1.1325  1.6408
 4030TIP3    H233582   3.599   2.013   5.132  0.8784  0.6253  0.8638
 4031TIP3   OH233583   0.756   5.736  15.489  0.4276 -0.5524 -0.6593
 4031TIP3    H133584   0.680   5.690  15.455  0.1063 -0.3913 -0.1614
 4031TIP3    H233585   0.813   5.667  15.523  0.0903 -0.6090 -0.2041
 4032TIP3   OH233586   5.937   4.137   5.724 -0.5077 -0.4404 -0.1679
 4032TIP3    H133587   5.910   4.188   5.648  0.0902 -0.8622 -0.6622
 4032TIP3    H233588   5.890   4.177   5.798  1.4920  2.1229 -0.2221
 4033TIP3   OH233589   6.702   1.942   5.672 -0.3121 -0.0062  0.2716
 4033TIP3    H133590   6.781   1.911   5.717  0.4909  1.9267  0.2591
 4033TIP3    H233591   6.735   2.005   5.608 -1.7651 -0.2199 -0.7113
 4034TIP3   OH233592   5.185   1.910   1.917  0.4932  0.1535  0.0823
 4034TIP3    H133593   5.251   1.932   1.851  1.4620 -0.6016  0.7788
 4034TIP3    H233594   5.113   1.872   1.867 -0.0562  2.3256 -0.8459
 4035TIP3   OH233595   1.515   3.833   2.454 -0.0242 -0.2171 -0.1797
 4035TIP3    H133596   1.605   3.806   2.469  0.1929  1.0010  0.8034
 4035TIP3    H233597   1.462   3.760   2.488  0.5757 -0.6471 -0.1572
 4036TIP3   OH233598   0.148   2.202  14.106 -0.3517  0.8908  0.7682
 4036TIP3    H133599   0.151   2.245  14.191  0.9007 -0.7698  1.6060
 4036TIP3    H233600   0.224   2.237  14.059 -0.1633  0.6956  0.9202
 4037TIP3   OH233601   6.622   4.019  12.270  0.1252  0.1950 -0.2580
 4037TIP3    H133602   6.580   3.947  12.224  2.5416 -1.6847  0.3677
 4037TIP3    H233603   6.628   3.989  12.361  0.6772  1.3916  0.1111
 4038TIP3   OH233604   4.013   0.689   3.787 -0.2776  0.2905  0.0899
 4038TIP3    H133605   4.095   0.714   3.744  0.3218 -0.2765  0.8886
 4038TIP3    H233606   4.013   0.738   3.870 -0.3238 -0.3697  0.4858
 4039TIP3   OH233607   4.698   1.144  12.863 -0.6529 -0.5219 -0.3517
 4039TIP3    H133608   4.639   1.118  12.933  1.0072 -1.1109  0.8691
 4039TIP3    H233609   4.661   1.106  12.783 -1.7605 -1.0874  0.4367
 4040TIP3   OH233610   6.510   0.822   2.376  0.0853  0.2722  0.1274
 4040TIP3    H133611   6.551   0.747   2.332 -1.1442  0.0967 -0.7640
 4040TIP3    H233612   6.421   0.793   2.394 -0.4534  1.5823 -0.3911
 4041TIP3   OH233613   2.955   2.582   5.057  0.0300  0.2081 -0.7220
 4041TIP3    H133614   3.038   2.618   5.088 -0.4232  2.1029 -1.5981
 4041TIP3    H233615   2.895   2.594   5.132 -0.0287  1.0181 -0.8861
 4042TIP3   OH233616   4.004   2.366  13.507 -0.3449 -0.0451 -0.0144
 4042TIP3    H133617   4.010   2.350  13.601  0.5510 -0.2119 -0.0898
 4042TIP3    H233618   4.022   2.460  13.497 -0.3833 -0.0386 -0.0212
 4043TIP3   OH233619   3.405   4.455   4.862  0.0417  0.3065 -0.1117
 4043TIP3    H133620   3.452   4.529   4.902 -0.3866  0.2189  0.5664
 4043TIP3    H233621   3.315   4.464   4.892 -0.1056 -0.2475 -0.3748
 4044TIP3   OH233622   4.672   2.182  11.869 -0.2443  0.2586  0.2394
 4044TIP3    H133623   4.741   2.133  11.913 -2.1160 -1.1388  1.6699
 4044TIP3    H233624   4.638   2.122  11.803 -1.3135  0.2808  0.7647
 4045TIP3   OH233625   6.345   5.823  12.677 -0.0143  0.0201  0.0295
 4045TIP3    H133626   6.269   5.784  12.720 -0.4760  1.0357  0.1509
 4045TIP3    H233627   6.380   5.883  12.742  2.0745 -1.8657  0.7155
 4046TIP3   OH233628   5.386   3.532   4.884  0.1445  0.8691 -0.0157
 4046TIP3    H133629   5.481   3.534   4.899  0.4792 -0.0145 -1.8368
 4046TIP3    H233630   5.351   3.598   4.944  1.9548  1.4724  0.4188
 4047TIP3   OH233631   4.735   0.001  10.974 -0.0369  0.0250  0.0065
 4047TIP3    H133632   4.681  -0.004  10.895 -0.2920 -0.0116  0.1855
 4047TIP3    H233633   4.807  -0.060  10.957 -0.0038  0.1383 -0.2653
 4048TIP3   OH233634   5.627   1.988  17.270 -0.5325  0.4280 -0.1608
 4048TIP3    H133635   5.666   1.901  17.280 -0.4812  0.5475  0.7505
 4048TIP3    H233636   5.535   1.976  17.296 -0.2693  0.8626  1.0138
 4049TIP3   OH233637   1.704   0.017  16.391  0.4529 -0.3621  0.0913
 4049TIP3    H133638   1.727   0.108  16.413 -2.1724  0.3838 -0.0693
 4049TIP3    H233639   1.744   0.003  16.305  0.1705  0.9454 -0.2731
 4050TIP3   OH233640   2.028   5.888  11.889 -0.0443  0.2044  0.2464
 4050TIP3    H133641   2.107   5.838  11.911  0.9463  1.4635 -0.3937
 4050TIP3    H233642   2.026   5.889  11.794 -2.4030 -2.2204  0.1960
 4051TIP3   OH233643   4.833   3.109  10.703  0.0410 -0.4578 -0.4808
 4051TIP3    H133644   4.924   3.137  10.718 -0.3086 -0.1520  1.1257
 4051TIP3    H233645   4.801   3.167  10.634  0.1497  1.4037  0.9940
 4052TIP3   OH233646   1.482   4.155   0.668  0.1443 -0.4051  0.2760
 4052TIP3    H133647   1.543   4.136   0.596  0.0623  2.4222 -0.6233
 4052TIP3    H233648   1.395   4.134   0.632  0.2173 -0.2398  0.0013
 4053TIP3   OH233649   2.563   5.120   5.345  0.2925  0.2529 -0.0525
 4053TIP3    H133650   2.522   5.207   5.341  0.7479  0.4355 -0.7759
 4053TIP3    H233651   2.489   5.060   5.357 -0.0374  0.7208  0.3212
 4054TIP3   OH233652   1.448   2.466  15.347  0.0419 -0.1606 -0.8057
 4054TIP3    H133653   1.501   2.469  15.426  2.2630  0.9310 -2.3064
 4054TIP3    H233654   1.455   2.376  15.316  0.3597 -0.2279 -0.5349
 4055TIP3   OH233655   5.850   5.342   5.376  0.1968 -0.4448 -0.2202
 4055TIP3    H133656   5.867   5.427   5.335 -0.3211  0.1600  0.7949
 4055TIP3    H233657   5.905   5.281   5.328 -0.8478  0.1437 -2.2415
 4056TIP3   OH233658   5.888   5.859   6.493  0.6634  0.4573 -0.1505
 4056TIP3    H133659   5.952   5.895   6.431 -0.0066 -0.6663 -1.5426
 4056TIP3    H233660   5.808   5.910   6.477  0.5393  0.2767 -0.1097
 4057TIP3   OH233661   2.138   6.218   0.476  0.2785  0.1822 -0.1055
 4057TIP3    H133662   2.064   6.173   0.517 -0.2412  1.6525  0.6170
 4057TIP3    H233663   2.100   6.298   0.440  0.9949 -0.4301 -2.2559
 4058TIP3   OH233664   2.853   2.982   3.757 -0.2394  0.2078  0.9192
 4058TIP3    H133665   2.911   2.970   3.681 -0.7425  1.5446  0.3085
 4058TIP3    H233666   2.825   2.893   3.779  2.0117 -0.4683  1.2248
 4059TIP3   OH233667   3.967   5.879   3.209 -0.6551  0.2702 -0.1163
 4059TIP3    H133668   4.019   5.838   3.140 -1.4504 -0.2027 -0.4408
 4059TIP3    H233669   3.933   5.959   3.169  0.1684  0.8138  0.2373
 4060TIP3   OH233670   3.320   2.000  13.694  0.0503  0.4705  0.5240
 4060TIP3    H133671   3.372   2.044  13.627 -0.5278  0.1299 -0.1584
 4060TIP3    H233672   3.326   2.057  13.770 -0.4029  1.5553 -0.2457
 4061TIP3   OH233673   2.203   6.743  12.930  0.4154 -0.0662  0.2546
 4061TIP3    H133674   2.208   6.798  12.852  2.5498  0.2520  0.6001
 4061TIP3    H233675   2.211   6.654  12.897  1.3007  0.0669  0.1063
 4062TIP3   OH233676   5.504   1.283   6.493 -0.5300 -0.4232  0.4470
 4062TIP3    H133677   5.579   1.229   6.519 -0.0997  0.7037  1.5822
 4062TIP3    H233678   5.457   1.229   6.430  0.2337 -1.8731  1.0878
 4063TIP3   OH233679   4.075   6.633  16.806  0.0251  0.6123 -0.3710
 4063TIP3    H133680   4.099   6.719  16.771 -0.4167 -0.3945 -3.3242
 4063TIP3    H233681   4.158   6.595  16.835  0.4840  1.3034 -0.7802
 4064TIP3   OH233682   3.341   2.353  12.213  0.4088  0.2122 -0.0959
 4064TIP3    H133683   3.252   2.322  12.197  0.3078 -0.4804  1.7708
 4064TIP3    H233684   3.330   2.443  12.243  0.1065 -0.8016  2.9864
 4065TIP3   OH233685   4.606   3.266   1.051 -0.4728  0.2463  0.4925
 4065TIP3    H133686   4.511   3.268   1.040 -0.2839  0.8141 -1.3427
 4065TIP3    H233687   4.639   3.313   0.974  1.3364 -1.1826  0.3671
 4066TIP3   OH233688   3.917   4.211  16.756  0.0361 -0.6529  0.5190
 4066TIP3    H133689   3.849   4.271  16.725  0.9740  0.4296  0.5095
 4066TIP3    H233690   3.926   4.231  16.849 -1.2593 -2.4014  1.0423
 4067TIP3   OH233691   3.156   5.628  15.603 -0.1901 -0.4804  0.4946
 4067TIP3    H133692   3.213   5.553  15.589 -1.3388 -1.2116 -0.2797
 4067TIP3    H233693   3.067   5.594  15.594 -0.7714  0.6382  1.7530
 4068TIP3   OH233694   5.196   6.185   1.214 -0.4414 -0.5589  0.0533
 4068TIP3    H133695   5.113   6.183   1.262 -0.4054  0.0130  0.1478
 4068TIP3    H233696   5.176   6.143   1.130 -0.5923 -1.2572  0.4342
 4069TIP3   OH233697   3.153   3.204   4.916 -0.5544 -0.3105 -0.5695
 4069TIP3    H133698   3.220   3.165   4.972 -0.5614  1.6774  0.8485
 4069TIP3    H233699   3.176   3.296   4.910 -2.3896  0.1349 -1.1891
 4070TIP3   OH233700   6.623   0.419  12.504  0.1621  0.2372 -0.0403
 4070TIP3    H133701   6.551   0.467  12.546 -0.2237  0.7492 -1.2516
 4070TIP3    H233702   6.660   0.481  12.442  1.5961 -0.0654  0.5031
 4071TIP3   OH233703   6.739   1.061   1.755  0.3773 -0.2504  0.1144
 4071TIP3    H133704   6.784   1.145   1.754 -1.0708  0.5266 -1.0747
 4071TIP3    H233705   6.806   0.998   1.727  0.4378  1.0763 -3.0195
 4072TIP3   OH233706   4.133   6.720   5.466  0.6050 -0.5644  0.5193
 4072TIP3    H133707   4.038   6.709   5.476  0.1127 -0.1890 -3.0745
 4072TIP3    H233708   4.168   6.632   5.477 -0.5629 -1.3373 -1.6782
 4073TIP3   OH233709   6.726   3.180  14.357 -0.4500 -0.3300  0.8060
 4073TIP3    H133710   6.755   3.234  14.284 -0.6162 -0.0007  0.9857
 4073TIP3    H233711   6.802   3.174  14.414 -0.5107 -0.0732  0.9134
 4074TIP3   OH233712   1.744   6.746   1.225 -0.2197  0.4230 -0.0599
 4074TIP3    H133713   1.752   6.829   1.271  0.1375  1.2873 -1.6658
 4074TIP3    H233714   1.805   6.687   1.270  1.0248  1.5986 -0.1831
 4075TIP3   OH233715   6.170   4.848  14.840  0.0916  0.1030 -0.1688
 4075TIP3    H133716   6.224   4.846  14.919  0.8774  2.2740 -0.6048
 4075TIP3    H233717   6.234   4.859  14.769 -0.7416 -0.0701 -0.9466
 4076TIP3   OH233718   2.882   4.698  14.452  0.1535  0.2811  0.2655
 4076TIP3    H133719   2.844   4.773  14.408 -0.8713  0.0170  0.6812
 4076TIP3    H233720   2.819   4.677  14.521  1.1257 -0.0736  1.0531
 4077TIP3   OH233721   0.294   6.677  17.146 -0.3874 -0.2584 -0.4819
 4077TIP3    H133722   0.358   6.695  17.215 -0.4494 -0.9474 -0.2428
 4077TIP3    H233723   0.332   6.716  17.067 -0.7666  1.3933  0.1225
 4078TIP3   OH233724   2.896   6.505  11.762 -0.0520  0.1525 -0.7066
 4078TIP3    H133725   2.822   6.562  11.783 -0.1199  0.4133 -1.6409
 4078TIP3    H233726   2.945   6.498  11.844  0.6600  2.5878 -0.8925
 4079TIP3   OH233727   1.369   6.425  15.987  0.0040 -0.7115  0.2835
 4079TIP3    H133728   1.423   6.382  16.054 -0.0692 -1.7748 -0.3309
 4079TIP3    H233729   1.308   6.478  16.037  1.3350  0.1711  1.0089
 4080TIP3   OH233730   4.842   4.103  12.598  0.0226 -0.2374  0.3021
 4080TIP3    H133731   4.926   4.056  12.597  1.2689  1.8189  2.8406
 4080TIP3    H233732   4.793   4.064  12.671 -1.3098 -1.4915 -1.2265
 4081TIP3   OH233733   1.774   1.186   5.391  0.1217 -0.7345  0.2530
 4081TIP3    H133734   1.692   1.149   5.358  0.1480  0.8759 -1.7182
 4081TIP3    H233735   1.842   1.136   5.346  0.1717  0.0869 -0.6066
 4082TIP3   OH233736   6.421   5.358   1.143 -0.6736  0.1443 -0.2060
 4082TIP3    H133737   6.330   5.363   1.114 -0.9435 -1.1658  0.3550
 4082TIP3    H233738   6.415   5.344   1.238  0.0967 -0.5953 -0.2584
 4083TIP3   OH233739   3.221   4.882   1.497 -0.0968  0.2902 -0.2784
 4083TIP3    H133740   3.194   4.818   1.432  1.4076 -0.4936 -0.1550
 4083TIP3    H233741   3.144   4.893   1.553 -1.0373  0.1461 -1.5146
 4084TIP3   OH233742   3.352   3.800  15.910 -0.4247 -0.3290 -0.3100
 4084TIP3    H133743   3.310   3.801  15.824  0.9447  1.3282 -0.9991
 4084TIP3    H233744   3.290   3.755  15.967 -3.4158  2.4924 -1.1759
 4085TIP3   OH233745   0.489   2.182   2.275  0.7258 -0.3671 -0.1894
 4085TIP3    H133746   0.457   2.199   2.186  0.3618  1.5076  0.2674
 4085TIP3    H233747   0.469   2.090   2.291  0.8560 -0.7364 -2.0719
 4086TIP3   OH233748   3.530   5.234  14.848  0.5022 -0.5150  0.0730
 4086TIP3    H133749   3.537   5.146  14.810  0.5349 -1.8233  3.0206
 4086TIP3    H233750   3.438   5.243  14.873  1.1027 -0.8771  2.4695
 4087TIP3   OH233751   5.431   1.097  11.593 -0.6131  0.0234  0.4040
 4087TIP3    H133752   5.340   1.110  11.620 -0.7883 -0.4338  0.0258
 4087TIP3    H233753   5.479   1.166  11.639 -1.0547 -0.1388  1.1295
 4088TIP3   OH233754   2.664   6.253  15.641 -0.2853  0.3123  0.2199
 4088TIP3    H133755   2.635   6.167  15.670 -0.4756  0.0718 -0.6644
 4088TIP3    H233756   2.759   6.253  15.654 -0.4608  0.4649  1.4873
 4089TIP3   OH233757   4.352   3.202   0.814 -0.0058  0.1036 -0.1691
 4089TIP3    H133758   4.347   3.276   0.875  0.4913  0.6416 -0.7662
 4089TIP3    H233759   4.407   3.138   0.859  0.6774  0.6557 -0.2043
 4090TIP3   OH233760   1.139   4.134   0.115  0.5172 -0.4323  0.0740
 4090TIP3    H133761   1.199   4.143   0.189  0.7734 -1.8875  0.0519
 4090TIP3    H233762   1.060   4.094   0.152  0.6729 -1.2321 -0.4563
 4091TIP3   OH233763   1.983   5.081   2.920 -0.2270 -0.1413  0.0563
 4091TIP3    H133764   2.040   5.058   2.993 -1.2943 -1.4898  0.5096
 4091TIP3    H233765   2.028   5.048   2.843  1.2449  1.9303  0.0191
 4092TIP3   OH233766   0.752   0.750   4.651  0.2193  0.3582 -0.3205
 4092TIP3    H133767   0.805   0.672   4.668  0.9832  0.8468 -0.4285
 4092TIP3    H233768   0.759   0.765   4.557  0.8006  1.0597 -0.1753
 4093TIP3   OH233769   6.013   5.367  11.978 -0.0735 -0.3132 -0.2198
 4093TIP3    H133770   6.082   5.388  11.915 -0.8726 -0.3115 -1.0989
 4093TIP3    H233771   6.026   5.274  11.997  0.4918 -0.1906  0.0185
 4094TIP3   OH233772   4.581   4.423  16.898  0.4220  0.4491  0.2605
 4094TIP3    H133773   4.634   4.501  16.879  3.5351 -1.1830  1.8439
 4094TIP3    H233774   4.624   4.352  16.851 -0.8597 -0.7994  0.9103
 4095TIP3   OH233775   1.876   6.420  14.293 -0.2115 -0.6756  0.4641
 4095TIP3    H133776   1.948   6.372  14.333  0.5519  1.0670  1.2802
 4095TIP3    H233777   1.871   6.501  14.344 -1.4971  0.0665 -0.8041
 4096TIP3   OH233778   4.787   0.120   0.059  0.0887  0.0557 -0.3725
 4096TIP3    H133779   4.802   0.203   0.105 -0.1430  0.1800 -0.5221
 4096TIP3    H233780   4.770   0.057   0.129 -2.1540  0.6376 -0.3740
 4097TIP3   OH233781   0.393   3.031  16.231  0.3233  0.0623 -0.9148
 4097TIP3    H133782   0.362   3.073  16.311  1.2560 -2.1745  0.6611
 4097TIP3    H233783   0.379   3.096  16.162 -2.8825  1.0625  0.6238
 4098TIP3   OH233784   2.450   2.237  11.713  0.2671  0.3606 -0.4726
 4098TIP3    H133785   2.523   2.221  11.653  0.2480 -0.5518 -0.2528
 4098TIP3    H233786   2.417   2.150  11.735 -0.3552  0.7331  0.0902
 4099TIP3   OH233787   2.288   5.215   0.811  0.0733  0.2806 -0.4596
 4099TIP3    H133788   2.212   5.273   0.803 -0.2554 -0.1137 -0.2358
 4099TIP3    H233789   2.360   5.264   0.770 -0.2986  0.6561 -0.6752
 4100TIP3   OH233790   0.176   5.557  11.806  0.3915 -0.1707 -0.1935
 4100TIP3    H133791   0.094   5.606  11.801 -0.6268 -1.3496  3.2210
 4100TIP3    H233792   0.243   5.624  11.822 -0.6381  0.4223  1.9150
 4101TIP3   OH233793   0.163   3.133   0.134  0.1574 -0.5164 -0.5616
 4101TIP3    H133794   0.129   3.104   0.218  0.0507 -0.4653 -0.5875
 4101TIP3    H233795   0.241   3.185   0.156  0.2402 -0.6652 -0.5055
 4102TIP3   OH233796   3.755   2.307   4.035 -0.0429  0.4828  0.3602
 4102TIP3    H133797   3.811   2.306   3.958  0.7501 -0.1125  0.9356
 4102TIP3    H233798   3.666   2.302   4.000  0.3051  0.3323 -0.5168
 4103TIP3   OH233799   0.555   5.402  10.476  0.1710 -0.1287 -0.1986
 4103TIP3    H133800   0.537   5.308  10.489 -1.8725  0.1398 -0.8806
 4103TIP3    H233801   0.486   5.446  10.525  0.3383  1.0108 -0.9775
 4104TIP3   OH233802   5.892   2.069  13.103  0.2324 -0.3305  0.3256
 4104TIP3    H133803   5.918   2.006  13.035  1.0490 -0.7729  1.0393
 4104TIP3    H233804   5.800   2.087  13.085 -0.0797 -1.9465  0.2785
 4105TIP3   OH233805   3.095   0.478  16.094 -0.3788 -0.5386 -0.0003
 4105TIP3    H133806   3.146   0.401  16.068 -0.3290  0.3753 -2.8477
 4105TIP3    H233807   3.057   0.455  16.179 -0.7483 -3.8839 -0.9959
 4106TIP3   OH233808   0.396   4.735  11.163 -0.1869 -0.8856  0.1801
 4106TIP3    H133809   0.491   4.723  11.161 -0.0336  0.3168 -0.6067
 4106TIP3    H233810   0.381   4.810  11.104 -1.6929 -1.5521 -0.2915
 4107TIP3   OH233811   2.942   6.809  13.899 -0.1642  0.0803  0.0257
 4107TIP3    H133812   2.967   6.726  13.857  1.1328  0.2513  0.4337
 4107TIP3    H233813   2.876   6.846  13.841 -0.6525 -1.1712 -0.2336
 4108TIP3   OH233814   6.809   0.458   3.100  0.2239  0.6064 -0.0447
 4108TIP3    H133815   6.829   0.548   3.077  1.8079  0.7274  1.6955
 4108TIP3    H233816   6.892   0.411   3.089  0.0439 -0.1135  1.4963
 4109TIP3   OH233817   4.479   0.518  13.069 -0.4657 -0.3877 -0.4040
 4109TIP3    H133818   4.549   0.579  13.046 -1.8966  1.4392 -0.0119
 4109TIP3    H233819   4.419   0.522  12.994 -0.3080 -1.7406 -0.6199
 4110TIP3   OH233820   6.608   2.208   3.867  0.3510 -0.1667 -0.9223
 4110TIP3    H133821   6.574   2.147   3.802 -0.2550 -1.5618  0.6951
 4110TIP3    H233822   6.695   2.176   3.887 -0.0342 -0.6113  0.0579
 4111TIP3   OH233823   4.519   3.618   1.262 -0.5132  0.1023  0.1932
 4111TIP3    H133824   4.466   3.653   1.191 -0.3324  0.8350  0.4077
 4111TIP3    H233825   4.575   3.691   1.288  1.8014 -1.1204 -1.1525
 4112TIP3   OH233826   5.235   5.425  15.229 -0.2006  0.2149  0.0069
 4112TIP3    H133827   5.294   5.494  15.260 -0.2397 -0.4095  1.5220
 4112TIP3    H233828   5.156   5.471  15.204  0.3149  0.8834 -0.4168
 4113TIP3   OH233829   6.767   2.955   1.301  0.5836 -0.2364 -0.2732
 4113TIP3    H133830   6.767   3.025   1.236  2.4706 -1.7386 -1.9682
 4113TIP3    H233831   6.679   2.955   1.337 -0.7081  0.2594 -3.2789
 4114TIP3   OH233832   2.686   0.704  16.631  0.1138 -0.8271 -0.0577
 4114TIP3    H133833   2.680   0.782  16.687 -1.0569 -1.1755  0.3188
 4114TIP3    H233834   2.605   0.656  16.648  0.1028 -1.3297 -1.4747
 4115TIP3   OH233835   6.608   1.739  13.921  0.1024  0.0986  0.1125
 4115TIP3    H133836   6.692   1.724  13.965  0.0293  1.7830  0.8566
 4115TIP3    H233837   6.561   1.799  13.979 -0.8458  0.6958 -1.2638
 4116TIP3   OH233838   3.449   4.698  11.379  0.6724  0.2678 -0.1265
 4116TIP3    H133839   3.531   4.722  11.422  1.1084  1.4842 -1.5876
 4116TIP3    H233840   3.427   4.775  11.327 -1.5452  0.0538  0.4503
 4117TIP3   OH233841   0.170   0.460  10.951  0.4704  0.7319 -0.1423
 4117TIP3    H133842   0.159   0.389  10.887 -0.5151  1.2542 -0.5606
 4117TIP3    H233843   0.244   0.432  11.005  0.4872 -0.3250 -0.6960
 4118TIP3   OH233844   4.434   5.454  14.623 -0.4321  0.1702  0.4107
 4118TIP3    H133845   4.356   5.448  14.568 -0.4075 -0.0930  0.4055
 4118TIP3    H233846   4.494   5.509  14.573 -1.1670  1.5907  1.0638
 4119TIP3   OH233847   3.627   1.124   6.536  0.6698  0.0219 -0.5042
 4119TIP3    H133848   3.615   1.063   6.463 -1.0117 -0.8527  0.4657
 4119TIP3    H233849   3.623   1.069   6.615 -1.2593  1.3964  0.4000
 4120TIP3   OH233850   1.716   3.812  16.983 -0.2289 -0.2348 -0.1744
 4120TIP3    H133851   1.626   3.803  17.012 -0.5581  3.2445  0.0291
 4120TIP3    H233852   1.762   3.853  17.056  1.1037 -0.2239 -0.9856
 4121TIP3   OH233853   1.387   1.647   1.726 -0.1653 -0.0305 -0.1682
 4121TIP3    H133854   1.367   1.672   1.816  1.0895 -0.3869  0.2181
 4121TIP3    H233855   1.303   1.622   1.688 -0.2353 -3.0253  1.8870
 4122TIP3   OH233856   6.313   1.281  17.156 -0.1705 -0.1343  0.0944
 4122TIP3    H133857   6.237   1.295  17.100 -0.2442 -1.7749 -0.2418
 4122TIP3    H233858   6.305   1.347  17.225 -1.9647 -0.3948  0.1453
 4123TIP3   OH233859   6.021   6.134   1.075  0.6613  0.3354 -0.8263
 4123TIP3    H133860   5.952   6.080   1.037 -1.0354  1.2439  0.8758
 4123TIP3    H233861   6.027   6.210   1.018  1.1689 -0.3504 -1.6996
 4124TIP3   OH233862   1.358   5.831   6.088 -0.2404  0.1388  0.4104
 4124TIP3    H133863   1.363   5.926   6.076 -0.4290 -0.0597 -1.4281
 4124TIP3    H233864   1.419   5.812   6.159  1.9941  1.3009 -1.1355
 4125TIP3   OH233865   1.487   6.279   3.592  0.0456  0.5520 -0.0742
 4125TIP3    H133866   1.416   6.259   3.653  1.4465 -0.0704  1.4057
 4125TIP3    H233867   1.470   6.224   3.516 -1.8111  1.4336 -0.3254
 4126TIP3   OH233868   1.834   0.779   4.769 -0.1852 -0.5091 -0.1144
 4126TIP3    H133869   1.768   0.801   4.835 -0.0208 -0.5347  0.0600
 4126TIP3    H233870   1.786   0.777   4.687 -0.4977 -0.9867  0.0733
 4127TIP3   OH233871   5.358   3.050  16.076  0.4364  0.4130 -0.2821
 4127TIP3    H133872   5.433   3.103  16.046  0.1507  1.0589  0.1511
 4127TIP3    H233873   5.330   3.091  16.157  0.2381 -0.4366  0.0847
 4128TIP3   OH233874   6.526   2.190   6.762  0.0744  0.0364 -0.2877
 4128TIP3    H133875   6.494   2.153   6.680  0.9573  0.6045 -0.8929
 4128TIP3    H233876   6.581   2.122   6.800 -1.5141 -0.7996  0.5695
 4129TIP3   OH233877   0.732   3.197   5.976  0.7207  0.0078 -0.2920
 4129TIP3    H133878   0.650   3.177   6.020  0.2249 -1.3307 -1.7699
 4129TIP3    H233879   0.798   3.145   6.022  0.1865 -1.4879 -1.1771
 4130TIP3   OH233880   4.902   6.785  11.371  0.3068 -0.2963 -0.5955
 4130TIP3    H133881   4.905   6.729  11.293 -0.3193 -4.0661  1.9462
 4130TIP3    H233882   4.994   6.789  11.400  0.6393  1.6372 -1.8103
 4131TIP3   OH233883   4.412   5.359   0.944 -0.5387 -0.0620  0.0190
 4131TIP3    H133884   4.506   5.360   0.960 -0.2824  2.7511 -1.4323
 4131TIP3    H233885   4.377   5.304   1.014  2.3909 -3.2673 -0.9086
 4132TIP3   OH233886   3.914   1.676  15.193 -0.3922 -0.6929 -0.2222
 4132TIP3    H133887   3.861   1.716  15.262  1.1270 -0.4848  0.8751
 4132TIP3    H233888   3.984   1.630  15.240 -0.4437 -2.1944 -1.5756
 4133TIP3   OH233889   1.920   2.541  14.198 -0.2728 -0.4154  0.0560
 4133TIP3    H133890   1.985   2.483  14.238 -0.6190 -0.3350  0.7374
 4133TIP3    H233891   1.897   2.602  14.268 -0.6193 -0.0530 -0.3760
 4134TIP3   OH233892   5.514   6.725  16.931 -0.4481 -0.9041 -0.2568
 4134TIP3    H133893   5.460   6.794  16.969  1.1415  0.1654  0.1107
 4134TIP3    H233894   5.519   6.658  16.999 -0.8752 -0.7803 -0.1019
 4135TIP3   OH233895   5.138   2.923   1.281  0.1298 -0.3845  0.0681
 4135TIP3    H133896   5.143   2.848   1.340  1.2531  2.1819  3.4356
 4135TIP3    H233897   5.226   2.961   1.281 -0.3762  0.9040 -1.6145
 4136TIP3   OH233898   6.709   0.577   3.779  0.0577 -0.5220 -0.0694
 4136TIP3    H133899   6.767   0.542   3.712 -0.4864 -0.2094 -0.7170
 4136TIP3    H233900   6.654   0.639   3.732  0.0224  0.0926  0.7756
 4137TIP3   OH233901   3.736   3.673  12.548  0.0264 -0.4643 -0.0180
 4137TIP3    H133902   3.801   3.672  12.478 -0.5371 -0.0809 -0.5574
 4137TIP3    H233903   3.786   3.690  12.627  0.6823 -0.9989 -0.3177
 4138TIP3   OH233904   4.648   4.068  14.891 -0.2649  0.4697 -0.5190
 4138TIP3    H133905   4.735   4.053  14.928 -0.7457 -1.5221 -0.1165
 4138TIP3    H233906   4.663   4.075  14.796  0.3550  0.2683 -0.4402
 4139TIP3   OH233907   1.402   3.741  11.430 -0.1443  0.6619 -0.1561
 4139TIP3    H133908   1.394   3.763  11.523  1.9226  0.3548  0.1189
 4139TIP3    H233909   1.406   3.646  11.428 -1.8985  0.5768 -0.7355
 4140TIP3   OH233910   2.421   3.463  14.961 -0.3846 -0.0116  0.1286
 4140TIP3    H133911   2.416   3.437  15.053 -0.4350 -0.2539  0.0575
 4140TIP3    H233912   2.502   3.514  14.956 -0.2885 -0.1470  0.2718
 4141TIP3   OH233913   3.328   4.566  12.343  0.0724  0.0950 -0.2142
 4141TIP3    H133914   3.268   4.496  12.318  0.5199 -0.1511 -0.6022
 4141TIP3    H233915   3.415   4.530  12.326  0.4220 -0.3340  2.3165
 4142TIP3   OH233916   3.734   5.648  14.377 -0.1846  0.4330 -0.3882
 4142TIP3    H133917   3.705   5.681  14.292 -1.9840 -0.0169  0.0410
 4142TIP3    H233918   3.791   5.574  14.356 -2.4792 -1.1783 -1.1986
 4143TIP3   OH233919   6.372   2.543  13.332 -0.0906 -0.1850  0.1323
 4143TIP3    H133920   6.361   2.545  13.237  0.4736  1.1051  0.0858
 4143TIP3    H233921   6.448   2.598  13.349  1.7645 -2.9079  1.0682
 4144TIP3   OH233922   1.481   1.467   4.657 -0.1062  0.3318 -0.8225
 4144TIP3    H133923   1.491   1.377   4.626  1.2501  0.1898 -0.0012
 4144TIP3    H233924   1.552   1.479   4.720 -1.5012  1.3018  0.6112
 4145TIP3   OH233925   1.147   3.206   0.032 -0.0451 -0.4215 -0.6703
 4145TIP3    H133926   1.196   3.276  -0.012  0.2228  0.6267  1.2453
 4145TIP3    H233927   1.092   3.168  -0.037  1.5455  0.1093 -2.2617
 4146TIP3   OH233928   5.325   0.391  12.293 -0.4171  0.1042  0.1014
 4146TIP3    H133929   5.339   0.450  12.219 -0.2112  0.5427  0.4872
 4146TIP3    H233930   5.235   0.361  12.284 -0.2982 -0.0833 -0.5003
 4147TIP3   OH233931   3.186   4.974   4.617 -0.2832 -0.6085  0.9197
 4147TIP3    H133932   3.281   4.981   4.630 -0.4373 -1.0217  2.4764
 4147TIP3    H233933   3.155   5.065   4.617  0.1616 -0.4592  0.0317
 4148TIP3   OH233934   5.266   4.449   2.494  0.2234  0.6441 -0.4020
 4148TIP3    H133935   5.189   4.406   2.456 -0.5710  1.7721 -0.1297
 4148TIP3    H233936   5.271   4.414   2.583  0.5730 -0.1300 -0.7342
 4149TIP3   OH233937   0.269   4.470  13.185  0.2756 -0.4427  0.1270
 4149TIP3    H133938   0.176   4.481  13.168 -0.0248 -0.2228  1.7998
 4149TIP3    H233939   0.275   4.387  13.232  0.9078 -0.3896  0.1445
 4150TIP3   OH233940   2.881   5.389   0.302 -0.0904 -0.2058 -0.7122
 4150TIP3    H133941   2.894   5.473   0.258  0.1862 -0.8206 -1.8216
 4150TIP3    H233942   2.964   5.342   0.289 -0.5991 -1.0486 -1.0053
 4151TIP3   OH233943   3.510   2.934  11.576  0.2679 -0.1275 -0.5222
 4151TIP3    H133944   3.572   2.861  11.582 -0.0859 -0.3903  0.0483
 4151TIP3    H233945   3.564   3.011  11.560  0.7600 -0.3254  0.1695
 4152TIP3   OH233946   5.118   1.854   4.978 -0.1565  0.1132  0.0001
 4152TIP3    H133947   5.042   1.887   4.930  0.9177 -2.7555 -3.9939
 4152TIP3    H233948   5.083   1.785   5.033 -0.7118 -0.1353 -0.6497
 4153TIP3   OH233949   0.777   5.566  17.150  0.1874  0.4341 -0.4838
 4153TIP3    H133950   0.845   5.578  17.084 -0.4291  0.8454 -1.0529
 4153TIP3    H233951   0.725   5.647  17.146 -0.5189 -0.0017 -0.2725
 4154TIP3   OH233952   5.255   6.314  16.791  0.2031 -0.7162 -0.2524
 4154TIP3    H133953   5.245   6.219  16.799 -0.5096 -0.4596  2.3822
 4154TIP3    H233954   5.186   6.340  16.730 -0.3788 -1.7615 -0.0524
 4155TIP3   OH233955   1.254   0.834  12.027  0.1369  0.6191  0.1756
 4155TIP3    H133956   1.290   0.818  11.939 -1.2582 -0.1897 -0.2708
 4155TIP3    H233957   1.219   0.923  12.023  0.0602  0.5768 -0.0863
 4156TIP3   OH233958   5.378   1.811  13.580  0.2375 -0.2033 -1.4617
 4156TIP3    H133959   5.448   1.854  13.532 -0.2937  1.6033 -0.6979
 4156TIP3    H233960   5.301   1.866  13.565 -0.0388  0.1895  1.0678
 4157TIP3   OH233961   3.451   2.926   5.384  0.2366 -0.6028 -0.4040
 4157TIP3    H133962   3.458   3.022   5.386 -0.8009 -0.5080  2.9396
 4157TIP3    H233963   3.539   2.896   5.362  0.5502  1.1160 -1.6134
 4158TIP3   OH233964   0.185   2.948   0.382 -0.2605 -0.1882  0.2616
 4158TIP3    H133965   0.132   2.869   0.392 -1.0546  0.1710 -1.0120
 4158TIP3    H233966   0.266   2.918   0.342 -0.7015 -0.3182 -0.5445
 4159TIP3   OH233967   6.408   1.878  16.086 -0.1162  0.0421 -0.4713
 4159TIP3    H133968   6.381   1.787  16.073 -0.8784  0.2208 -0.1865
 4159TIP3    H233969   6.392   1.894  16.179  0.0204  0.4613 -0.5225
 4160TIP3   OH233970   1.391   3.092  13.465 -0.4515 -0.2111  0.0708
 4160TIP3    H133971   1.373   3.009  13.421  0.0272 -0.9664  1.2723
 4160TIP3    H233972   1.331   3.093  13.540 -0.9632  0.8631 -0.3373
 4161TIP3   OH233973   6.100   3.971   0.395  0.5936 -0.5886  0.7775
 4161TIP3    H133974   6.074   3.880   0.407 -3.1364  0.2543 -0.3347
 4161TIP3    H233975   6.056   4.018   0.466 -0.5643  0.8275 -0.8437
 4162TIP3   OH233976   0.102   6.209   0.765  0.0744 -0.4572 -0.1307
 4162TIP3    H133977   0.174   6.184   0.708  0.9748 -0.1067  0.8444
 4162TIP3    H233978   0.103   6.305   0.765  0.3014 -0.4530  0.7390
 4163TIP3   OH233979   1.590   0.289   5.975  0.2200 -0.0840  0.4668
 4163TIP3    H133980   1.607   0.203   5.937 -0.3617  0.0965 -0.2275
 4163TIP3    H233981   1.617   0.281   6.067  2.0381 -0.3907 -0.0860
 4164TIP3   OH233982   3.909   1.187  13.137 -0.1344  0.2917 -0.0967
 4164TIP3    H133983   3.836   1.239  13.103 -0.5984 -0.4388 -0.2127
 4164TIP3    H233984   3.911   1.109  13.082 -0.0421 -0.2677  0.6972
 4165TIP3   OH233985   1.518   0.942  10.949 -0.5980 -0.1119  0.0859
 4165TIP3    H133986   1.496   0.992  11.027  0.4514 -1.6496  1.3929
 4165TIP3    H233987   1.604   0.905  10.967  0.0601  0.2228 -2.1672
 4166TIP3   OH233988   3.760   2.912  14.421 -0.5296  0.1868 -0.7195
 4166TIP3    H133989   3.822   2.846  14.451 -0.5299  0.7115  0.4617
 4166TIP3    H233990   3.754   2.898  14.327  0.5070 -0.6138 -0.6759
 4167TIP3   OH233991   5.023   6.334  15.681  0.6989  0.0536 -0.0094
 4167TIP3    H133992   4.984   6.412  15.642 -1.8031 -1.0162  0.2936
 4167TIP3    H233993   5.046   6.279  15.606  2.2080  0.9203 -0.2116
 4168TIP3   OH233994   0.564   2.147  13.475 -0.4363  0.2905  0.0663
 4168TIP3    H133995   0.549   2.227  13.524 -0.0161 -0.3793  1.3165
 4168TIP3    H233996   0.635   2.103  13.522  0.8770  0.2524 -1.9095
 4169TIP3   OH233997   0.748   3.237  14.419 -0.2050 -0.2891 -0.3427
 4169TIP3    H133998   0.737   3.315  14.364  1.5035  1.1134  1.2526
 4169TIP3    H233999   0.787   3.172  14.360 -2.0761 -0.1227 -1.8147
 4170TIP3   OH234000   3.516   4.290  12.678 -0.6064 -0.2498 -0.3436
 4170TIP3    H134001   3.441   4.348  12.670  1.0431  1.8642 -0.7772
 4170TIP3    H234002   3.575   4.316  12.607  2.6475  1.3200  2.7603
 4171TIP3   OH234003   6.245   1.070   5.260 -0.2005  0.3011  0.1189
 4171TIP3    H134004   6.235   1.101   5.170  4.0228  0.6596 -0.3317
 4171TIP3    H234005   6.212   1.141   5.314 -1.9696  0.4439 -1.1088
 4172TIP3   OH234006   2.899   1.397  14.620 -0.1018 -0.4271 -0.7537
 4172TIP3    H134007   2.812   1.358  14.616 -0.6821  0.8499 -0.8113
 4172TIP3    H234008   2.959   1.322  14.627 -1.1344 -1.3457 -1.6727
 4173TIP3   OH234009   5.093   5.279  12.191  0.2234  0.0586  0.4533
 4173TIP3    H134010   5.135   5.205  12.148  1.6983  0.9278  0.3276
 4173TIP3    H234011   5.014   5.243  12.231 -0.1434 -1.1506 -1.3132
 4174TIP3   OH234012   0.065   1.509  13.778 -0.0022  0.0286 -0.3847
 4174TIP3    H134013   0.073   1.564  13.856 -0.9334 -2.1730  1.3246
 4174TIP3    H234014   0.134   1.443  13.788 -0.1686 -0.3084 -1.4130
 4175TIP3   OH234015   4.948   3.699   4.814 -0.1159  0.2485 -0.5268
 4175TIP3    H134016   4.862   3.730   4.787 -0.8421 -1.2104  0.0440
 4175TIP3    H234017   4.932   3.651   4.895  0.8433 -2.1995 -1.7386
 4176TIP3   OH234018   2.608   5.470   4.543 -0.1485 -0.0297 -0.8767
 4176TIP3    H134019   2.657   5.548   4.569 -2.5990  1.2200  0.2155
 4176TIP3    H234020   2.649   5.399   4.592  1.1531  0.8333 -0.6891
 4177TIP3   OH234021   1.202   1.825   1.208  0.2357  0.2070  0.5172
 4177TIP3    H134022   1.268   1.757   1.212 -0.3912 -0.3301  2.4258
 4177TIP3    H234023   1.186   1.849   1.300 -1.0385  1.4626 -0.0001
 4178TIP3   OH234024   2.683   3.424  16.280 -0.4229  0.0470 -0.4277
 4178TIP3    H134025   2.639   3.508  16.272 -1.8822 -0.5425  1.1962
 4178TIP3    H234026   2.644   3.369  16.212 -1.7674 -0.2879  0.6081
 4179TIP3   OH234027   5.661   6.489  14.532 -1.3069  0.1685 -0.5467
 4179TIP3    H134028   5.612   6.551  14.586 -0.4468 -0.6021  1.1230
 4179TIP3    H234029   5.745   6.533  14.516 -0.7030 -0.5579  0.6261
 4180TIP3   OH234030   6.100   2.387  11.646 -0.3411 -0.3018 -0.6354
 4180TIP3    H134031   6.123   2.295  11.662  1.8989  0.4340  0.6533
 4180TIP3    H234032   6.119   2.400  11.553  0.1219 -0.9424 -0.6411
 4181TIP3   OH234033   4.237   0.386  17.059 -0.0918  0.5519  0.4776
 4181TIP3    H134034   4.313   0.438  17.084  0.6210  0.1665 -0.8923
 4181TIP3    H234035   4.164   0.430  17.103  0.9958  0.4846  2.3942
 4182TIP3   OH234036   0.885   2.395  15.047 -0.0270  0.3392 -0.1342
 4182TIP3    H134037   0.847   2.312  15.019 -1.1198  0.7966 -0.0187
 4182TIP3    H234038   0.979   2.382  15.038 -0.1676 -1.0462  0.2523
 4183TIP3   OH234039   6.510   4.239  12.126 -0.1524 -0.2523 -0.6065
 4183TIP3    H134040   6.520   4.146  12.147 -1.8803 -0.4585 -0.6138
 4183TIP3    H234041   6.573   4.283  12.183  0.4285 -1.3986 -0.3409
 4184TIP3   OH234042   1.791   2.429  11.959 -0.3451 -0.0911 -0.3528
 4184TIP3    H134043   1.769   2.446  12.050 -0.5362  1.6950 -0.6998
 4184TIP3    H234044   1.837   2.345  11.960 -3.1356 -1.6706  0.9646
 4185TIP3   OH234045   6.570   0.607   6.423 -0.2006  0.1276  0.0652
 4185TIP3    H134046   6.517   0.686   6.423  0.7770  0.7980  1.3056
 4185TIP3    H234047   6.536   0.556   6.497  1.4495  0.9816  1.4652
 4186TIP3   OH234048   5.148   6.029  10.544 -0.2718 -0.0494  0.3552
 4186TIP3    H134049   5.152   6.118  10.509 -0.5605 -0.6175 -1.1718
 4186TIP3    H234050   5.055   6.006  10.539 -0.1852 -0.4685  0.6521
 4187TIP3   OH234051   1.085   4.936   3.581  0.3824  0.1815  0.2559
 4187TIP3    H134052   1.077   4.870   3.650 -1.7017  0.9212  0.7671
 4187TIP3    H234053   1.077   4.887   3.499  1.3432 -0.5086  0.5712
 4188TIP3   OH234054   2.717   3.116   3.537 -0.0783  0.2434 -0.5956
 4188TIP3    H134055   2.806   3.099   3.506  0.0491  0.0301 -0.1176
 4188TIP3    H234056   2.728   3.136   3.630 -0.4399  0.9993 -0.7088
 4189TIP3   OH234057   6.075   2.973   5.398  0.0686  0.0668  0.3080
 4189TIP3    H134058   6.131   3.002   5.327  1.2317 -1.6227  0.5096
 4189TIP3    H234059   6.048   3.053   5.442  0.1309  1.0644 -1.4280
 4190TIP3   OH234060   3.684   0.198  13.536 -0.1156 -0.1857  0.7443
 4190TIP3    H134061   3.779   0.203  13.521  0.0756 -0.1919  1.8868
 4190TIP3    H234062   3.654   0.289  13.530 -0.0602 -0.1967  0.2657
 4191TIP3   OH234063   2.613   0.166  10.614 -0.3766  0.6417 -0.5479
 4191TIP3    H134064   2.664   0.086  10.597  0.8262  1.4117 -0.6115
 4191TIP3    H234065   2.529   0.134  10.648  0.0489 -0.6539 -0.6891
 4192TIP3   OH234066   0.994   0.373   6.699  0.1838  0.0380 -0.0814
 4192TIP3    H134067   0.995   0.465   6.727  0.9851  0.1553 -0.4804
 4192TIP3    H234068   1.052   0.370   6.623  1.0948 -1.0199  0.6327
 4193TIP3   OH234069   4.670   5.245   3.833  0.0802  0.5437  0.2683
 4193TIP3    H134070   4.605   5.238   3.903  0.2198 -1.1676  0.2548
 4193TIP3    H234071   4.739   5.182   3.859  0.7931  0.9233 -0.6975
 4194TIP3   OH234072   0.285   0.468   1.156 -0.4592  0.1596  0.2070
 4194TIP3    H134073   0.248   0.485   1.069 -0.7512 -0.2588  0.2494
 4194TIP3    H234074   0.304   0.375   1.156 -1.2088  0.0030  0.8795
 4195TIP3   OH234075   0.238   2.849  11.954  0.4477 -0.0548  0.7875
 4195TIP3    H134076   0.165   2.900  11.991  0.1026  0.8967 -1.1512
 4195TIP3    H234077   0.288   2.821  12.030 -1.4787 -0.0067  2.1146
 4196TIP3   OH234078   1.121   1.324  13.030 -0.2145 -0.2860  0.0574
 4196TIP3    H134079   1.027   1.339  13.034 -0.5299 -2.2036  0.5401
 4196TIP3    H234080   1.133   1.271  12.951  0.5178  0.2672 -0.2089
 4197TIP3   OH234081   4.461   5.935  12.441 -0.5001 -0.8830 -0.5192
 4197TIP3    H134082   4.502   6.013  12.403 -0.8558 -1.2986 -1.7863
 4197TIP3    H234083   4.434   5.962  12.529  2.0046 -0.4371  0.1667
 4198TIP3   OH234084   2.621   3.608  13.108 -0.0833  0.2547 -0.5071
 4198TIP3    H134085   2.558   3.582  13.040 -1.4595  1.1447  0.4016
 4198TIP3    H234086   2.698   3.554  13.091 -1.2094 -1.1003 -1.4438
 4199TIP3   OH234087   4.951   4.147  10.722 -0.7831  0.3343  0.0160
 4199TIP3    H134088   4.993   4.068  10.687  2.3860  0.7511  2.6966
 4199TIP3    H234089   4.982   4.217  10.664 -0.0275  0.2415  0.3044
 4200TIP3   OH234090   1.675   5.611  16.420  0.7204 -0.0755  0.1956
 4200TIP3    H134091   1.720   5.663  16.354 -1.4079  3.0173  1.0612
 4200TIP3    H234092   1.703   5.648  16.504  0.7399 -1.6701  0.9106
 4201TIP3   OH234093   0.135   6.785   3.834  0.0700  0.1257 -0.4017
 4201TIP3    H134094   0.197   6.712   3.840  0.6081  0.5340 -1.0293
 4201TIP3    H234095   0.066   6.752   3.776  0.6260  0.3361 -1.1905
 4202TIP3   OH234096   1.675   1.280  14.099  0.0721  0.2042  0.3685
 4202TIP3    H134097   1.737   1.208  14.107  1.3362  1.3303  0.7672
 4202TIP3    H234098   1.656   1.306  14.189 -0.2065  0.5309  0.2168
 4203TIP3   OH234099   0.973   1.630   2.445  0.0633  0.3922  0.3887
 4203TIP3    H134100   0.884   1.663   2.450 -1.1175 -2.6406  0.3796
 4203TIP3    H234101   0.979   1.589   2.359  1.4651  0.5547  0.3943
 4204TIP3   OH234102   0.501   1.499  16.472  0.4718 -0.2617  0.7200
 4204TIP3    H134103   0.481   1.547  16.392  1.2365  0.5949  1.0419
 4204TIP3    H234104   0.496   1.564  16.542  1.0278 -0.7505  1.2219
 4205TIP3   OH234105   5.091   0.212  12.265 -0.2571  0.6099  0.2952
 4205TIP3    H134106   5.042   0.163  12.332 -0.9242 -0.6424 -1.0871
 4205TIP3    H234107   5.034   0.286  12.244 -0.5684  0.3743  0.2956
 4206TIP3   OH234108   6.189   2.177   1.332 -0.6770 -0.0709  0.2728
 4206TIP3    H134109   6.255   2.226   1.283  0.4469 -1.0831  0.7514
 4206TIP3    H234110   6.180   2.095   1.284 -0.8790 -0.3352  0.7646
 4207TIP3   OH234111   6.021   5.671  13.414  0.4342  0.5224 -0.1548
 4207TIP3    H134112   6.081   5.708  13.479 -0.4162  0.8876  0.4217
 4207TIP3    H234113   5.981   5.596  13.459 -0.4230  0.9929 -0.1381
 4208TIP3   OH234114   2.343   2.433   5.144  0.8777  0.2149 -0.6042
 4208TIP3    H134115   2.312   2.519   5.173  0.4838  0.1040 -0.6841
 4208TIP3    H234116   2.423   2.451   5.096 -0.1675  0.7418 -2.2060
 4209TIP3   OH234117   5.429   6.185   3.241  0.3046  0.2142 -0.0925
 4209TIP3    H134118   5.510   6.214   3.198 -0.1411  0.4076 -0.8295
 4209TIP3    H234119   5.453   6.173   3.332  0.9462  1.1917 -0.1161
 4210TIP3   OH234120   2.803   2.016  13.747 -0.0595 -0.3488  0.0337
 4210TIP3    H134121   2.769   2.050  13.664  0.5685 -2.4064 -1.1306
 4210TIP3    H234122   2.878   2.072  13.767 -1.9021  1.9503  0.7452
 4211TIP3   OH234123   1.928   0.734  13.177 -0.4639 -0.3314 -0.5026
 4211TIP3    H134124   1.963   0.771  13.258  0.9611 -0.2419 -1.1529
 4211TIP3    H234125   1.922   0.809  13.118 -0.1947 -0.6493 -0.9289
 4212TIP3   OH234126   0.742   2.543   4.241 -0.2918  0.0758 -0.2622
 4212TIP3    H134127   0.781   2.573   4.158 -2.7329  1.6007 -0.8890
 4212TIP3    H234128   0.770   2.451   4.248  1.5021  0.4580 -1.8069
 4213TIP3   OH234129   3.247   1.004  15.976 -0.6037 -0.2541  0.5089
 4213TIP3    H134130   3.161   1.033  15.945 -0.6031 -0.7888 -0.0122
 4213TIP3    H234131   3.244   0.909  15.966  1.0405 -0.0548 -2.0228
 4214TIP3   OH234132   1.999   2.683  12.894  0.3392 -0.1489 -0.6622
 4214TIP3    H134133   1.978   2.590  12.906 -1.0490 -0.0182 -1.9423
 4214TIP3    H234134   2.010   2.717  12.983 -0.5310 -1.2146 -0.1397
 4215TIP3   OH234135   4.190   2.762  15.583 -0.9026 -0.1137 -0.5543
 4215TIP3    H134136   4.281   2.759  15.613 -0.0109  0.3700 -3.0923
 4215TIP3    H234137   4.160   2.849  15.609 -0.1931  0.2323 -0.8466
 4216TIP3   OH234138   0.516   1.757  12.307  0.0192  0.4295 -0.0760
 4216TIP3    H134139   0.460   1.822  12.349 -0.0743 -0.1701  0.7261
 4216TIP3    H234140   0.575   1.809  12.252 -0.9463  1.0954 -0.4896
 4217TIP3   OH234141   3.365   2.069  12.735  0.0604  0.4975  0.1200
 4217TIP3    H134142   3.425   2.003  12.701  0.4198  1.8669 -1.9117
 4217TIP3    H234143   3.397   2.152  12.700 -2.0628  1.4309  0.3436
 4218TIP3   OH234144   5.605   1.245  10.631 -0.4783  0.4556 -0.0490
 4218TIP3    H134145   5.689   1.277  10.600 -1.5905  2.7660 -0.8045
 4218TIP3    H234146   5.589   1.296  10.711 -0.1524 -1.5648  1.3404
 4219TIP3   OH234147   2.024   0.682  16.291  0.0566  0.1950 -0.0028
 4219TIP3    H134148   2.050   0.683  16.199 -1.5405 -1.9763 -0.5441
 4219TIP3    H234149   1.928   0.689  16.289  0.0808  1.2060  1.5487
 4220TIP3   OH234150   1.292   4.335  12.863 -0.6028 -0.4698 -0.0223
 4220TIP3    H134151   1.328   4.418  12.833  2.2949 -0.3611  3.3712
 4220TIP3    H234152   1.200   4.353  12.880  0.0760  2.2124  1.0813
 4221TIP3   OH234153   6.499   0.551   5.590 -0.1236  0.7970  0.5148
 4221TIP3    H134154   6.588   0.558   5.556  0.8018 -0.1868  2.6185
 4221TIP3    H234155   6.455   0.630   5.560  1.2435  0.9435 -1.1551
 4222TIP3   OH234156   6.761   5.126  11.022  0.3739  0.0501  0.2460
 4222TIP3    H134157   6.763   5.040  10.980 -1.1220  0.6169 -1.0018
 4222TIP3    H234158   6.786   5.187  10.953  0.0590  0.7579  0.7583
 4223TIP3   OH234159   2.724   0.468  13.955  0.3929  0.7227  0.0063
 4223TIP3    H134160   2.668   0.420  13.893  0.6573 -0.3698  0.5996
 4223TIP3    H234161   2.698   0.560  13.943 -1.6009  0.2379  0.3225
 4224TIP3   OH234162   6.403   0.613  12.292 -0.1462 -0.5052 -0.5411
 4224TIP3    H134163   6.334   0.676  12.311 -1.4975 -2.5266  1.6395
 4224TIP3    H234164   6.377   0.572  12.209  0.2824  1.1520 -1.5025
 4225TIP3   OH234165   4.840   5.052   1.977 -0.1686  0.1511 -0.2133
 4225TIP3    H134166   4.868   4.978   2.032  0.7603 -0.2916 -1.2627
 4225TIP3    H234167   4.749   5.067   2.002  0.1298 -0.2725  1.1976
 4226TIP3   OH234168   3.084   0.389   2.283 -0.0694  0.4017 -0.0337
 4226TIP3    H134169   3.175   0.379   2.313  0.0119 -0.5906 -0.5903
 4226TIP3    H234170   3.043   0.305   2.304 -1.5299  1.6886  2.4650
 4227TIP3   OH234171   0.119   5.654  12.618 -0.6373 -0.5695 -0.4299
 4227TIP3    H134172   0.190   5.702  12.576  0.0201 -1.9533 -0.9169
 4227TIP3    H234173   0.160   5.576  12.655 -2.0700 -2.0568 -1.8260
 4228TIP3   OH234174   2.142   6.370   5.988 -0.1085  0.4393  0.0974
 4228TIP3    H134175   2.074   6.303   5.979  2.1164 -1.8087 -0.4898
 4228TIP3    H234176   2.153   6.381   6.083  0.4629 -1.0272  0.2038
 4229TIP3   OH234177   5.944   1.463   4.361 -0.4799 -0.0591  0.0037
 4229TIP3    H134178   5.892   1.542   4.376  2.0967  1.4556  1.2708
 4229TIP3    H234179   5.882   1.391   4.375 -2.9490  1.7004 -1.4530
 4230TIP3   OH234180   0.924   0.651   1.509  0.8554  0.3919  0.0440
 4230TIP3    H134181   1.003   0.630   1.558  0.9684 -1.9445 -1.0252
 4230TIP3    H234182   0.888   0.565   1.485 -0.3394  1.4536 -2.0923
 4231TIP3   OH234183   3.772   3.504  13.096 -0.2332  0.0781 -0.5440
 4231TIP3    H134184   3.746   3.506  13.188  0.6555  2.1068 -0.3150
 4231TIP3    H234185   3.690   3.487  13.049 -0.4742 -2.3737  0.6720
 4232TIP3   OH234186   3.073   0.349  17.226 -0.4471  0.0317  0.5197
 4232TIP3    H134187   3.047   0.441  17.223 -0.0577  0.1629  1.1092
 4232TIP3    H234188   2.991   0.301  17.216 -0.8557  0.4458  1.7523
 4233TIP3   OH234189   0.983   2.876   3.612  0.7377  0.0060 -0.2055
 4233TIP3    H134190   1.053   2.839   3.559  0.4178  0.1786 -0.7462
 4233TIP3    H234191   0.925   2.919   3.550  1.0532  1.3562  0.4000
 4234TIP3   OH234192   6.609   6.818   4.815 -0.3801 -0.1663  0.3094
 4234TIP3    H134193   6.649   6.888   4.763  0.6272 -0.7424  0.2977
 4234TIP3    H234194   6.518   6.846   4.827  0.2047  1.5471  0.9696
 4235TIP3   OH234195   6.338   0.832   5.978 -0.1200 -0.1222 -0.0264
 4235TIP3    H134196   6.284   0.884   5.919  0.7213  0.5662 -0.2114
 4235TIP3    H234197   6.388   0.897   6.029 -1.3958 -0.6805  2.0017
 4236TIP3   OH234198   2.235   3.130  14.604  0.1737  0.1918  0.0374
 4236TIP3    H134199   2.239   3.206  14.662  1.5747 -0.4022  0.7427
 4236TIP3    H234200   2.298   3.149  14.535  1.0145 -0.6118  0.5724
 4237TIP3   OH234201   1.610   2.717   5.382 -0.6447 -1.1625  0.0430
 4237TIP3    H134202   1.567   2.694   5.299  1.0451  0.7546 -1.3992
 4237TIP3    H234203   1.559   2.790   5.416  1.5283  1.2602 -1.7807
 4238TIP3   OH234204   0.781   0.749   4.388 -0.4524 -0.0537 -0.9321
 4238TIP3    H134205   0.724   0.824   4.370  0.2293  0.4104 -1.1731
 4238TIP3    H234206   0.865   0.773   4.348 -0.0070 -0.6060 -0.3281
 4239TIP3   OH234207   5.713   4.457   3.638 -0.6978 -0.3414  0.1336
 4239TIP3    H134208   5.712   4.361   3.649  1.6567 -0.3486  0.7253
 4239TIP3    H234209   5.788   4.485   3.691  1.4036  1.3727 -3.5613
 4240TIP3   OH234210   2.081   1.523  17.144 -0.0142  0.5640  0.2483
 4240TIP3    H134211   2.019   1.476  17.089 -1.8305  0.1002  2.6151
 4240TIP3    H234212   2.064   1.615  17.125 -1.4799  0.4454  0.8748
 4241TIP3   OH234213   3.609   3.971  13.296  0.3572  0.1325 -0.6101
 4241TIP3    H134214   3.676   3.911  13.262  0.3998  0.4867 -1.1479
 4241TIP3    H234215   3.533   3.915  13.310 -0.0168  0.1743 -2.3471
 4242TIP3   OH234216   3.001   0.724   5.557  0.1600 -0.0761 -0.6593
 4242TIP3    H134217   3.024   0.781   5.483  0.0795  1.0128  0.1380
 4242TIP3    H234218   3.042   0.765   5.633 -2.1196  0.4254  0.3674
 4243TIP3   OH234219   6.663   4.912   4.826  0.7451  0.3264 -0.2048
 4243TIP3    H134220   6.617   4.993   4.803  0.3207  0.2908  0.5105
 4243TIP3    H234221   6.673   4.866   4.742 -0.5137  0.3415 -0.3771
 4244TIP3   OH234222   6.400   3.104   3.953  0.1907  0.4028  0.3899
 4244TIP3    H134223   6.337   3.151   3.898  1.7273  0.8920 -0.9715
 4244TIP3    H234224   6.365   3.015   3.958 -1.0592  0.8829  0.3502
 4245TIP3   OH234225   4.185   5.969   3.368 -0.2024 -0.6217 -1.0407
 4245TIP3    H134226   4.111   5.934   3.318 -0.9005 -0.9094  0.1906
 4245TIP3    H234227   4.149   5.987   3.455  0.7257  0.9802 -0.9752
 4246TIP3   OH234228   4.985   4.417   1.126 -0.0114  0.8678  0.4585
 4246TIP3    H134229   4.927   4.413   1.202  0.3285 -0.1025  0.6695
 4246TIP3    H234230   5.031   4.333   1.126  1.3442  1.5998  0.2545
 4247TIP3   OH234231   4.985   4.166   4.962 -0.3689 -0.2298 -0.1137
 4247TIP3    H134232   4.935   4.084   4.970  0.5674 -1.0074 -1.8325
 4247TIP3    H234233   5.076   4.138   4.954 -0.1402  0.9023 -1.7826
 4248TIP3   OH234234   4.615   0.109  11.881 -0.0613 -0.0555  0.7548
 4248TIP3    H134235   4.534   0.138  11.840  1.0289  3.3776  0.9192
 4248TIP3    H234236   4.604   0.131  11.974  0.4761 -0.9405  1.0362
 4249TIP3   OH234237   3.946   6.220  16.750 -0.7921  0.3722 -0.1854
 4249TIP3    H134238   3.922   6.249  16.838  0.9064 -2.6291  1.3293
 4249TIP3    H234239   4.040   6.233  16.745 -0.3523 -2.5688 -0.2977
 4250TIP3   OH234240   5.442   5.131   1.181 -0.0535 -0.4630 -0.9201
 4250TIP3    H134241   5.527   5.088   1.187 -0.2425 -0.7080  0.0515
 4250TIP3    H234242   5.417   5.150   1.271 -0.0003  1.6801 -1.3401
 4251TIP3   OH234243   4.127   1.636   3.511  0.5977 -0.1782  0.2660
 4251TIP3    H134244   4.191   1.701   3.539 -0.8843  0.0980  3.1445
 4251TIP3    H234245   4.058   1.639   3.577 -1.0042 -2.5189 -1.1997
 4252TIP3   OH234246   5.373   2.760  13.814  0.7881 -0.0354 -0.5174
 4252TIP3    H134247   5.432   2.835  13.819  1.3308 -0.6265  2.2041
 4252TIP3    H234248   5.286   2.799  13.807  1.0731  0.8583  0.8479
 4253TIP3   OH234249   2.668   1.572   1.203  0.1644  0.1015 -0.3531
 4253TIP3    H134250   2.728   1.597   1.274  2.0956 -1.3764 -1.4084
 4253TIP3    H234251   2.609   1.509   1.243 -0.3382  1.1150  0.5487
 4254TIP3   OH234252   3.010   4.827  10.445  0.2029 -0.1544  0.6130
 4254TIP3    H134253   2.921   4.845  10.417  0.2807 -0.2048  0.3288
 4254TIP3    H234254   3.005   4.740  10.484 -0.0212  0.1619  1.2914
 4255TIP3   OH234255   5.372   0.540   1.986 -0.3616 -0.2407 -0.8796
 4255TIP3    H134256   5.405   0.451   1.999 -0.3896  0.0769  1.4398
 4255TIP3    H234257   5.443   0.597   2.016 -1.2650  0.4913 -0.0992
 4256TIP3   OH234258   0.243   4.921  12.392 -0.3663  0.4189  0.2445
 4256TIP3    H134259   0.331   4.957  12.402 -1.3755  3.4189 -1.2061
 4256TIP3    H234260   0.248   4.864  12.315  0.9438 -1.7286  1.8546
 4257TIP3   OH234261   2.658   4.523  16.320 -0.1540  0.2452  0.6441
 4257TIP3    H134262   2.746   4.484  16.319 -0.2621 -0.0516  1.8505
 4257TIP3    H234263   2.665   4.598  16.260  0.1060 -1.4710 -1.5505
 4258TIP3   OH234264   5.239   3.598  10.821  0.1054 -0.6344 -0.0407
 4258TIP3    H134265   5.209   3.558  10.740 -1.1086  1.1832 -0.5211
 4258TIP3    H234266   5.292   3.530  10.864 -0.1537 -1.9776 -1.8123
 4259TIP3   OH234267   1.762   2.647   1.943 -0.0682 -0.1864 -0.2312
 4259TIP3    H134268   1.852   2.678   1.929 -0.4498  0.4938 -1.1964
 4259TIP3    H234269   1.735   2.691   2.024  0.0495  0.5539 -0.5875
 4260TIP3   OH234270   5.623   1.773  14.509 -0.0493  0.2479 -0.6821
 4260TIP3    H134271   5.698   1.787  14.451 -0.0549  0.2904 -0.6792
 4260TIP3    H234272   5.566   1.713  14.461  0.5845 -0.7963 -0.1543
 4261TIP3   OH234273   3.349   1.460  16.001 -0.1499 -0.1383 -0.6743
 4261TIP3    H134274   3.337   1.517  16.076 -3.4788 -1.4198 -0.1693
 4261TIP3    H234275   3.380   1.377  16.038  1.5945  0.2997 -1.0971
 4262TIP3   OH234276   6.741   4.861  16.251 -0.6397 -0.0634 -0.1211
 4262TIP3    H134277   6.827   4.902  16.245 -1.8594  2.2946 -2.5412
 4262TIP3    H234278   6.708   4.860  16.161 -4.1389  1.3654  1.0213
 4263TIP3   OH234279   5.225   6.505   0.305  0.3365  0.7264 -0.1203
 4263TIP3    H134280   5.276   6.546   0.374 -0.0491  0.5862  0.2493
 4263TIP3    H234281   5.250   6.553   0.226  3.8256 -1.7561 -0.6106
 4264TIP3   OH234282   6.637   6.063  13.840 -0.3439 -0.3025  0.1124
 4264TIP3    H134283   6.697   6.005  13.886  2.2121  0.9986 -1.4866
 4264TIP3    H234284   6.668   6.152  13.860 -0.3938  0.3296 -2.4372
 4265TIP3   OH234285   1.045   2.025  12.817  0.0732  0.6901  0.3053
 4265TIP3    H134286   1.127   1.987  12.849 -1.0566 -0.3263  2.0797
 4265TIP3    H234287   0.990   2.032  12.895 -2.3926 -0.8445 -1.2458
 4266TIP3   OH234288   4.693   6.255  12.456 -0.1707 -0.0671  0.1836
 4266TIP3    H134289   4.734   6.261  12.370 -1.6228  0.7876 -0.4743
 4266TIP3    H234290   4.735   6.324  12.508 -0.3694  0.4411 -0.3200
 4267TIP3   OH234291   3.395   4.719  14.207 -0.4517 -0.0750  0.4160
 4267TIP3    H134292   3.316   4.666  14.213 -0.1607 -0.5717 -0.0685
 4267TIP3    H234293   3.460   4.670  14.258  0.0259 -0.5809 -0.6676
 4268TIP3   OH234294   1.715   1.179   1.761  0.1914 -0.1420 -0.1291
 4268TIP3    H134295   1.629   1.220   1.748  0.4780  1.1294  1.8493
 4268TIP3    H234296   1.772   1.221   1.696 -0.4408 -0.3081 -0.8050
 4269TIP3   OH234297   1.681   1.686  12.133  0.1033  0.2813 -0.5957
 4269TIP3    H134298   1.591   1.719  12.135 -0.2524 -0.5876 -1.5221
 4269TIP3    H234299   1.692   1.642  12.217 -0.8117 -0.7781 -1.0063
 4270TIP3   OH234300   1.631   4.071  16.926 -0.1542 -0.1607  0.0435
 4270TIP3    H134301   1.562   4.115  16.876  0.0454  0.3272  0.1921
 4270TIP3    H234302   1.594   3.986  16.949  0.2382 -0.9664 -2.1333
 4271TIP3   OH234303   6.035   3.651  14.580 -0.3462  0.6595 -0.3092
 4271TIP3    H134304   6.111   3.669  14.635 -0.9537 -0.3538  0.8973
 4271TIP3    H234305   6.059   3.686  14.494  0.6279  2.2287  0.5785
 4272TIP3   OH234306   2.348   5.454  16.067 -0.0298  0.7040 -0.0627
 4272TIP3    H134307   2.410   5.413  16.006 -0.1623 -0.6810  0.7364
 4272TIP3    H234308   2.305   5.522  16.015  0.7565  0.3639 -1.1683
 4273TIP3   OH234309   1.814   1.083   2.463 -0.2576  0.0826 -0.1442
 4273TIP3    H134310   1.899   1.050   2.493  1.1081  3.5616  0.1173
 4273TIP3    H234311   1.750   1.025   2.504  1.8591  0.0152  3.3168
 4274TIP3   OH234312   6.025   4.005   3.244  0.4813  0.1145  0.8711
 4274TIP3    H134313   5.971   4.020   3.321  1.0249  0.2256  1.2336
 4274TIP3    H234314   5.977   3.939   3.193  0.1130  0.0583  1.2914
 4275TIP3   OH234315   1.582   2.549   0.199 -0.2205 -0.1702 -0.2110
 4275TIP3    H134316   1.662   2.584   0.238 -0.4514  0.6893 -0.4918
 4275TIP3    H234317   1.605   2.460   0.172 -0.6626 -1.5180  3.6804
 4276TIP3   OH234318   3.028   4.492   0.840 -0.2931  0.4308  0.3435
 4276TIP3    H134319   3.085   4.552   0.791 -0.7470  0.1590 -0.5422
 4276TIP3    H234320   2.943   4.536   0.842 -1.0920 -0.9108 -1.8124
 4277TIP3   OH234321   4.048   5.494  12.777 -0.5696 -0.3991  0.1881
 4277TIP3    H134322   4.105   5.425  12.742 -0.8538  0.6605 -2.4396
 4277TIP3    H234323   3.981   5.446  12.826 -0.6947 -2.0007 -1.4797
 4278TIP3   OH234324   1.270   3.657   3.421 -0.4790  0.5429  0.3523
 4278TIP3    H134325   1.177   3.637   3.422 -0.3908  0.0859 -0.2042
 4278TIP3    H234326   1.310   3.587   3.473 -0.5301  1.2283  1.3419
 4279TIP3   OH234327   6.538   1.708  15.400  0.5632  0.1775  0.2220
 4279TIP3    H134328   6.509   1.664  15.320 -2.6029  1.2966  0.6710
 4279TIP3    H234329   6.485   1.669  15.470  3.4974 -1.0112  1.8866
 4280TIP3   OH234330   1.375   5.880  15.753 -0.2732 -0.4155 -0.3761
 4280TIP3    H134331   1.287   5.857  15.722 -0.5632  0.2709 -0.0694
 4280TIP3    H234332   1.408   5.799  15.793 -1.8265  0.0665  1.9455
 4281TIP3   OH234333   1.806   5.355  17.028  0.3677 -0.4462  0.2312
 4281TIP3    H134334   1.890   5.316  17.054  0.3245 -0.8371 -0.1977
 4281TIP3    H234335   1.793   5.325  16.938  1.4016  2.3774 -0.8998
 4282TIP3   OH234336   3.751   3.440   3.708 -0.5679 -0.0398  0.4679
 4282TIP3    H134337   3.772   3.350   3.683 -0.7811  0.0031  0.1190
 4282TIP3    H234338   3.821   3.466   3.767  1.0217  0.4974 -1.5722
 4283TIP3   OH234339   2.661   6.588  13.455  0.4241 -0.0803  0.3950
 4283TIP3    H134340   2.728   6.570  13.389 -0.1406  0.6497 -0.3834
 4283TIP3    H234341   2.618   6.668  13.424 -2.0722 -1.5896 -0.1185
 4284TIP3   OH234342   5.487   2.265   1.113  0.0136  0.3641  0.2571
 4284TIP3    H134343   5.436   2.185   1.125  0.4006  0.1120  0.2196
 4284TIP3    H234344   5.543   2.270   1.190 -0.5145  0.9763  0.6050
 4285TIP3   OH234345   6.096   6.532   1.325  0.2724 -0.1051 -0.3923
 4285TIP3    H134346   6.045   6.593   1.378 -0.3021 -0.9140  0.0058
 4285TIP3    H234347   6.051   6.529   1.241  1.9619  2.2220 -1.4309
 4286TIP3   OH234348   2.134   4.197  15.487  0.2575  0.6007  0.1769
 4286TIP3    H134349   2.199   4.247  15.537 -0.2122  3.5817 -2.0292
 4286TIP3    H234350   2.164   4.204  15.396  0.2631 -3.4125 -0.2175
 4287TIP3   OH234351   4.310   3.225   3.612  0.5245  0.3743  0.5016
 4287TIP3    H134352   4.338   3.300   3.664  1.0072  0.2448  0.4261
 4287TIP3    H234353   4.370   3.223   3.537  0.0974  0.3100  0.1589
 4288TIP3   OH234354   4.134   1.361   3.519  0.3815  0.0032  0.2455
 4288TIP3    H134355   4.142   1.453   3.497 -0.1323  0.3180  1.3204
 4288TIP3    H234356   4.164   1.314   3.441 -2.1910  1.0480 -1.4242
 4289TIP3   OH234357   1.197   3.868  11.795 -0.4415 -0.0661 -0.1197
 4289TIP3    H134358   1.117   3.816  11.795  0.1204 -0.9392 -0.1500
 4289TIP3    H234359   1.170   3.953  11.759 -1.3388 -0.3656 -0.1753
 4290TIP3   OH234360   6.126   6.480   5.913  0.1826  0.2617  0.0747
 4290TIP3    H134361   6.050   6.513   5.962  0.0006  0.4484 -0.3338
 4290TIP3    H234362   6.194   6.470   5.979  0.5099  2.2765  0.0764
 4291TIP3   OH234363   3.440   6.341  12.475 -0.3050  0.2445 -0.0467
 4291TIP3    H134364   3.386   6.391  12.537 -0.4174  0.2284 -0.1307
 4291TIP3    H234365   3.519   6.394  12.465 -0.3146  0.2807  0.0586
 4292TIP3   OH234366   5.120   3.756   2.981 -0.5076  0.1439 -0.1118
 4292TIP3    H134367   5.074   3.676   3.006 -1.3620  1.2945  2.1225
 4292TIP3    H234368   5.072   3.788   2.904 -0.8601 -0.8803 -0.3238
 4293TIP3   OH234369   1.756   1.922   3.648  0.2843 -0.4263 -0.0773
 4293TIP3    H134370   1.809   1.989   3.692 -1.6544 -0.5261  2.5442
 4293TIP3    H234371   1.721   1.966   3.571 -0.9294  1.6140  1.5877
 4294TIP3   OH234372   2.576   0.244  11.193 -0.1646  0.0797 -0.3041
 4294TIP3    H134373   2.522   0.185  11.140 -0.5282  0.8398 -0.7926
 4294TIP3    H234374   2.588   0.322  11.138  1.2247  0.0232 -0.1037
 4295TIP3   OH234375   5.157   4.187   3.420  0.0958 -0.1173 -0.2541
 4295TIP3    H134376   5.165   4.149   3.507 -0.0712 -0.0999 -0.2317
 4295TIP3    H234377   5.195   4.274   3.429 -1.8115  0.6759  0.3153
 4296TIP3   OH234378   1.495   3.091   1.395 -0.1858 -0.5580  0.6569
 4296TIP3    H134379   1.434   3.056   1.460 -0.5620 -1.3300 -0.0991
 4296TIP3    H234380   1.453   3.073   1.311  0.1908  0.6186  0.1981
 4297TIP3   OH234381   4.206   5.176   3.774 -0.0848  0.0641  0.1590
 4297TIP3    H134382   4.223   5.083   3.760  2.3283  0.6213 -0.8631
 4297TIP3    H234383   4.246   5.195   3.860 -0.1593  0.2581  0.1505
 4298TIP3   OH234384   4.439   0.384  11.252  0.1179 -0.2207 -0.5820
 4298TIP3    H134385   4.444   0.319  11.182  2.4393 -0.7033 -0.0079
 4298TIP3    H234386   4.418   0.333  11.331  1.5016 -0.2136 -0.2102
 4299TIP3   OH234387   0.614   0.612  15.176 -0.1116 -0.3186  0.2263
 4299TIP3    H134388   0.622   0.671  15.251 -1.4536  1.2205 -0.8089
 4299TIP3    H234389   0.590   0.528  15.214 -0.0050  0.2465  1.5713
 4300TIP3   OH234390   3.089   4.443  12.294 -0.0853  0.0811  0.0635
 4300TIP3    H134391   3.095   4.356  12.256 -0.2550 -0.9005  2.1924
 4300TIP3    H234392   3.024   4.488  12.241 -0.4931 -1.3083 -0.6434
 4301TIP3   OH234393   6.151   1.458   4.918  0.3599  0.0931  0.0796
 4301TIP3    H134394   6.188   1.536   4.960  1.3771  1.0608 -2.5373
 4301TIP3    H234395   6.056   1.471   4.925  0.5227  1.6972 -0.5577
 4302TIP3   OH234396   5.465   5.755   2.606  0.1217  0.8553  0.2645
 4302TIP3    H134397   5.524   5.815   2.651  0.1605  0.5899  0.5650
 4302TIP3    H234398   5.520   5.708   2.543  0.0975  1.1098  0.0519
 4303TIP3   OH234399   5.649   3.013   4.096  0.2000 -0.0414 -0.2556
 4303TIP3    H134400   5.716   3.015   4.164 -0.1770 -2.1938  0.2127
 4303TIP3    H234401   5.574   3.058   4.136 -0.1294 -1.5736  0.9061
 4304TIP3   OH234402   1.663   6.179   0.152 -0.6280  0.1300  0.3377
 4304TIP3    H134403   1.682   6.270   0.130 -0.3218 -0.0279 -0.0616
 4304TIP3    H234404   1.685   6.172   0.245  0.7124  0.1184  0.0382
 4305TIP3   OH234405   3.828   4.191   2.027 -0.3009  0.4279  0.3861
 4305TIP3    H134406   3.912   4.187   1.981 -0.0781 -1.1781  0.8912
 4305TIP3    H234407   3.848   4.158   2.115 -1.4549  0.0704  0.5148
 4306TIP3   OH234408   1.600   2.252   3.784  0.1982 -0.4851  0.0165
 4306TIP3    H134409   1.650   2.224   3.708 -0.4350 -2.4206  0.2715
 4306TIP3    H234410   1.516   2.207   3.775 -0.4088  0.3996  1.1155
 4307TIP3   OH234411   0.169   2.785  15.832 -0.7457 -0.5812  0.9522
 4307TIP3    H134412   0.181   2.858  15.771 -2.1710 -0.1119  1.2113
 4307TIP3    H234413   0.227   2.716  15.800  1.1617  0.9088  1.1057
 4308TIP3   OH234414   4.386   1.444  17.097  0.1179 -0.3080  0.4158
 4308TIP3    H134415   4.448   1.513  17.123 -1.4152  0.5467  1.9385
 4308TIP3    H234416   4.324   1.489  17.039  1.0725 -1.2383 -1.3706
 4309TIP3   OH234417   0.413   0.565  12.777 -0.5523 -0.0634  0.8036
 4309TIP3    H134418   0.328   0.536  12.809 -0.3507 -1.5529  0.0692
 4309TIP3    H234419   0.422   0.523  12.691  1.9139 -1.8967  1.8967
 4310TIP3   OH234420   6.789   0.051  14.833 -0.6081 -0.3470  0.1595
 4310TIP3    H134421   6.828   0.022  14.750 -1.6391 -1.2615 -0.0218
 4310TIP3    H234422   6.793   0.146  14.829 -0.2038 -0.3912 -0.7259
 4311TIP3   OH234423   2.884   0.732  15.126  0.0140 -0.0915  0.7402
 4311TIP3    H134424   2.859   0.708  15.037  2.4167  0.5807 -0.1721
 4311TIP3    H234425   2.828   0.806  15.148  0.5932  0.8533 -0.8981
 4312TIP3   OH234426   6.039   5.689   2.044  0.2478  0.2371 -0.5757
 4312TIP3    H134427   6.048   5.628   1.971  1.0066 -0.6093  0.2265
 4312TIP3    H234428   6.085   5.648   2.117  2.6159  2.6851 -0.5942
 4313TIP3   OH234429   1.444   1.951  14.538 -0.0461  0.4529 -0.2822
 4313TIP3    H134430   1.392   1.996  14.471 -0.2682  0.4905 -0.0858
 4313TIP3    H234431   1.387   1.949  14.615  0.0771  0.0998 -0.2023
 4314TIP3   OH234432   1.562   2.373  11.830  0.6228  0.6990 -0.2747
 4314TIP3    H134433   1.644   2.405  11.868  1.3505 -0.0644 -1.1441
 4314TIP3    H234434   1.530   2.308  11.892  0.5617  1.1524  0.1711
 4315TIP3   OH234435   1.277   5.001  15.336 -0.1286  0.4172 -0.2589
 4315TIP3    H134436   1.196   4.950  15.341  0.1037 -0.0033 -0.8781
 4315TIP3    H234437   1.335   4.960  15.400  0.1338 -0.2229 -0.9104
 4316TIP3   OH234438   4.405   2.961   2.351  0.1291 -0.5405  0.1676
 4316TIP3    H134439   4.440   2.976   2.438 -0.1826  2.2027 -0.1492
 4316TIP3    H234440   4.312   2.944   2.365 -0.5053  2.6379  0.2170
 4317TIP3   OH234441   6.358   6.126   5.287  0.1014 -0.2889  0.0788
 4317TIP3    H134442   6.304   6.177   5.226 -0.6879  2.3177  2.8622
 4317TIP3    H234443   6.448   6.141   5.258 -0.2265  1.3288 -0.1512
 4318TIP3   OH234444   1.269   2.318  16.382  0.0639 -0.1223 -0.3007
 4318TIP3    H134445   1.363   2.309  16.395  0.1987  1.4994  0.0597
 4318TIP3    H234446   1.261   2.371  16.303 -0.4971  0.8412  0.3775
 4319TIP3   OH234447   4.474   1.442   4.208  0.0640  0.4707  0.3205
 4319TIP3    H134448   4.562   1.406   4.199 -0.0196  0.0520  1.1370
 4319TIP3    H234449   4.426   1.405   4.133  0.4583  0.3321  0.1329
 4320TIP3   OH234450   5.181   6.719   5.739  0.6216 -0.4050  0.1638
 4320TIP3    H134451   5.141   6.633   5.726 -0.8167  0.1104  1.1136
 4320TIP3    H234452   5.264   6.700   5.784 -0.2128 -1.2229  1.3801
 4321TIP3   OH234453   4.552   5.272  15.609  0.5441 -0.1620  0.0670
 4321TIP3    H134454   4.568   5.276  15.703  0.1930 -0.0699  0.1226
 4321TIP3    H234455   4.461   5.300  15.598  0.7980  0.5273 -0.3653
 4322TIP3   OH234456   6.491   3.183  13.217 -0.4914 -0.3037  0.7948
 4322TIP3    H134457   6.580   3.156  13.238 -0.3777 -0.0137  0.6745
 4322TIP3    H234458   6.477   3.263  13.267 -0.0166  0.7227 -0.6828
 4323TIP3   OH234459   5.566   6.131   1.136  0.1977 -0.1828  0.4666
 4323TIP3    H134460   5.637   6.177   1.092  0.1675  0.0875  0.7001
 4323TIP3    H234461   5.487   6.163   1.094  0.2145 -0.4804  0.2100
 4324TIP3   OH234462   4.859   5.315   1.225  0.2997  0.3006  0.8637
 4324TIP3    H134463   4.830   5.226   1.246 -0.9906  0.3066 -0.7953
 4324TIP3    H234464   4.950   5.304   1.198 -0.0540 -0.6320 -0.0128
 4325TIP3   OH234465   4.197   3.741   4.735  0.1871  0.5667  0.2524
 4325TIP3    H134466   4.106   3.734   4.764 -0.0867  0.8552 -0.5369
 4325TIP3    H234467   4.207   3.668   4.674  0.3106  0.9031 -0.1259
 4326TIP3   OH234468   3.331   4.451  15.223  0.4671 -0.0463 -0.0342
 4326TIP3    H134469   3.388   4.525  15.245  1.2200 -0.7516  0.4140
 4326TIP3    H234470   3.380   4.374  15.251  0.1404 -0.7885 -1.4804
 4327TIP3   OH234471   5.397   5.993   0.320 -0.5946 -0.1288 -0.1386
 4327TIP3    H134472   5.370   6.054   0.252  0.0379  2.4234  1.8403
 4327TIP3    H234473   5.485   5.965   0.294 -0.7441  0.0714 -0.8666
 4328TIP3   OH234474   3.062   5.293  15.753 -0.1816  0.0115  0.1513
 4328TIP3    H134475   3.103   5.207  15.759  0.2616  0.2415  0.4161
 4328TIP3    H234476   3.083   5.336  15.836 -0.1788  0.4769 -0.0857
 4329TIP3   OH234477   5.034   4.594   2.736 -0.3396 -0.0060 -0.5262
 4329TIP3    H134478   4.988   4.510   2.728 -1.0977  0.3117  0.3550
 4329TIP3    H234479   5.006   4.628   2.821  0.9396  0.5587 -0.3264
 4330TIP3   OH234480   5.397   5.556  11.560 -0.1787  0.3954 -0.7368
 4330TIP3    H134481   5.484   5.596  11.557  0.4942 -1.0241 -0.7959
 4330TIP3    H234482   5.415   5.464  11.578 -1.5811 -0.2100 -2.3490
 4331TIP3   OH234483   5.820   0.029   2.009 -0.8148 -0.1402 -0.3656
 4331TIP3    H134484   5.876   0.100   1.978 -1.1684  0.0888 -0.4870
 4331TIP3    H234485   5.777  -0.003   1.930  1.0140 -1.9764 -0.6568
 4332TIP3   OH234486   2.275   3.397  15.770  0.1613 -0.1083 -0.0619
 4332TIP3    H134487   2.321   3.382  15.687 -1.3925 -1.2953 -0.7249
 4332TIP3    H234488   2.320   3.339  15.832  0.6602  0.0139 -0.3005
 4333TIP3   OH234489   0.644   2.907  16.028  0.0186 -0.0948 -0.2484
 4333TIP3    H134490   0.578   2.905  15.959  0.9425  1.1970 -1.2152
 4333TIP3    H234491   0.640   2.997  16.062  1.2221 -0.0127 -0.2982
 4334TIP3   OH234492   1.172   2.008  11.734 -0.1637 -0.0674  0.5116
 4334TIP3    H134493   1.169   2.016  11.829 -0.4161 -1.5392  0.6341
 4334TIP3    H234494   1.090   2.047  11.704 -0.5542 -0.5218  0.9684
 4335TIP3   OH234495   6.638   0.382  17.020  0.3675 -0.0464  0.2601
 4335TIP3    H134496   6.674   0.430  17.094  0.0795  2.2783 -1.0673
 4335TIP3    H234497   6.551   0.353  17.049  0.4789  0.3877  1.0205
 4336TIP3   OH234498   3.623   4.199   1.165  0.3174  0.9474  0.1419
 4336TIP3    H134499   3.577   4.186   1.247 -1.9121  2.2596 -0.8401
 4336TIP3    H234500   3.706   4.240   1.189  0.6411 -0.6885  1.8802
 4337TIP3   OH234501   5.213   1.110  12.890  0.0873  0.2489  0.4733
 4337TIP3    H134502   5.167   1.067  12.962 -0.0923  0.9346  0.7635
 4337TIP3    H234503   5.169   1.194  12.879  1.3537  0.9708  0.8373
 4338TIP3   OH234504   3.543   2.931  12.443  0.6211  0.4531 -0.1778
 4338TIP3    H134505   3.542   2.991  12.518  2.4236  0.6244 -0.2652
 4338TIP3    H234506   3.452   2.927  12.414 -0.0682  0.5328  1.9051
 4339TIP3   OH234507   4.595   0.663  16.468 -0.0911 -0.0087 -0.4351
 4339TIP3    H134508   4.633   0.693  16.386  0.3349  0.0652 -0.2150
 4339TIP3    H234509   4.656   0.595  16.499 -0.5517 -0.4420 -0.4682
 4340TIP3   OH234510   6.681   5.293   6.728  0.4966  0.0170 -0.1559
 4340TIP3    H134511   6.655   5.252   6.645 -1.8570 -1.4427  1.2314
 4340TIP3    H234512   6.704   5.220   6.785  0.6374  0.9050  0.9539
 4341TIP3   OH234513   1.146   0.673  12.795 -0.6084 -0.0149  0.3667
 4341TIP3    H134514   1.133   0.641  12.885  1.4747  0.9608  1.0365
 4341TIP3    H234515   1.238   0.655  12.776 -0.8313  0.5382 -1.2763
 4342TIP3   OH234516   3.889   1.668  13.879 -0.3342 -0.4055  0.6091
 4342TIP3    H134517   3.941   1.744  13.853 -0.2311  0.3051  2.8189
 4342TIP3    H234518   3.809   1.675  13.828 -0.4761  1.3953  1.0615
 4343TIP3   OH234519   0.998   6.154   2.456  0.3799 -0.3651 -0.1615
 4343TIP3    H134520   0.981   6.230   2.401 -1.5605  0.5073  1.5802
 4343TIP3    H234521   0.938   6.087   2.424  0.8251 -0.5910 -0.5331
 4344TIP3   OH234522   0.867   2.269   5.287 -0.3607 -0.0384  0.5708
 4344TIP3    H134523   0.864   2.228   5.201  3.8560  0.2055  0.2382
 4344TIP3    H234524   0.883   2.197   5.348 -3.4297 -0.2265  1.2447
 4345TIP3   OH234525   0.695   4.458   2.968  0.3314  0.1654  0.6126
 4345TIP3    H134526   0.767   4.521   2.974 -0.3470  0.9972  0.0711
 4345TIP3    H234527   0.671   4.440   3.059  1.6305 -0.6003  0.8231
 4346TIP3   OH234528   6.369   0.780  14.719  0.1442 -0.2748 -0.5023
 4346TIP3    H134529   6.453   0.802  14.679 -0.4934  1.5513 -0.8766
 4346TIP3    H234530   6.352   0.690  14.689  0.4217  0.4945 -3.1098
 4347TIP3   OH234531   1.195   0.199  15.783  0.0553 -0.0385  0.2664
 4347TIP3    H134532   1.246   0.163  15.711 -1.5369 -0.8430 -0.4790
 4347TIP3    H234533   1.154   0.123  15.825 -1.5023  0.6838  0.0849
 4348TIP3   OH234534   6.103   3.786   2.454  0.2433  0.0986 -0.0558
 4348TIP3    H134535   6.129   3.701   2.419 -0.6580 -0.2841  0.1859
 4348TIP3    H234536   6.169   3.847   2.422  0.2582 -0.5020 -1.1686
 4349TIP3   OH234537   5.730   1.177   0.108 -0.6068  0.2496  0.5831
 4349TIP3    H134538   5.652   1.223   0.078 -0.3353  1.9270  2.4118
 4349TIP3    H234539   5.741   1.204   0.199  3.4979  1.9968 -0.3336
 4350TIP3   OH234540   6.239   0.244   4.570  0.2343  0.2445  0.2399
 4350TIP3    H134541   6.168   0.186   4.542 -0.5252  1.0770  0.4231
 4350TIP3    H234542   6.220   0.263   4.662  0.2601  1.0961  0.0731
 4351TIP3   OH234543   5.428   0.395   2.479 -0.4663 -0.0101 -0.5506
 4351TIP3    H134544   5.481   0.453   2.425 -0.1793 -1.6121 -2.0301
 4351TIP3    H234545   5.493   0.342   2.527 -0.6103 -3.3214 -3.8100
 4352TIP3   OH234546   3.416   0.606  14.010 -0.3234 -0.8010 -0.4277
 4352TIP3    H134547   3.356   0.674  13.979 -0.7472  0.0719  2.2134
 4352TIP3    H234548   3.365   0.556  14.074  0.3724 -2.8833 -1.4425
 4353TIP3   OH234549   1.831   2.634  13.478 -0.8099  0.0879 -0.4594
 4353TIP3    H134550   1.827   2.712  13.421 -2.7895  0.2701 -0.0925
 4353TIP3    H234551   1.804   2.666  13.564 -1.3443 -0.9443 -0.2400
 4354TIP3   OH234552   3.306   3.376  14.417  0.3067 -0.0301 -0.3118
 4354TIP3    H134553   3.229   3.339  14.460  0.4097  1.7369  1.4905
 4354TIP3    H234554   3.373   3.308  14.425 -0.7110 -1.1188 -0.8601
 4355TIP3   OH234555   3.920   6.426   4.217  0.5570 -0.5201  0.7729
 4355TIP3    H134556   3.983   6.354   4.220  1.9291  0.7035  3.3920
 4355TIP3    H234557   3.879   6.425   4.303  1.5072  2.5715  1.3344
 4356TIP3   OH234558   5.476   5.672   4.178  0.2692  0.2134  0.1329
 4356TIP3    H134559   5.510   5.692   4.091  1.4756 -0.1910  0.4983
 4356TIP3    H234560   5.537   5.608   4.214  0.0994  0.7843  1.4941
 4357TIP3   OH234561   0.527   6.398  17.221 -0.1944  0.1683 -0.5563
 4357TIP3    H134562   0.520   6.400  17.317 -2.0718  1.2088 -0.6917
 4357TIP3    H234563   0.620   6.411  17.204  0.3413 -1.2045  1.1578
 4358TIP3   OH234564   2.555   5.647  16.166 -0.0836 -0.1271 -0.0743
 4358TIP3    H134565   2.537   5.557  16.139  0.5374  0.0945 -1.2788
 4358TIP3    H234566   2.475   5.676  16.209  0.6784 -2.1774  2.8772
 4359TIP3   OH234567   1.193   5.829  17.263 -0.3213 -0.1571  0.1540
 4359TIP3    H134568   1.121   5.789  17.312  0.6889 -0.6198  1.3046
 4359TIP3    H234569   1.194   5.782  17.180  0.6765 -2.4011  1.3798
 4360TIP3   OH234570   5.181   3.492  12.667 -0.3722 -0.0646 -0.1569
 4360TIP3    H134571   5.171   3.401  12.697 -2.0475 -0.1947 -1.0671
 4360TIP3    H234572   5.262   3.492  12.616  0.7346 -0.5746  1.5277
 4361TIP3   OH234573   3.015   1.850   2.268  0.1857  0.1180 -0.1870
 4361TIP3    H134574   3.073   1.812   2.203 -0.6743  0.2922 -1.0680
 4361TIP3    H234575   2.928   1.816   2.246 -0.0073 -0.4264  1.3288
 4362TIP3   OH234576   1.868   3.524   1.691  0.6696 -0.0602  0.7105
 4362TIP3    H134577   1.951   3.515   1.646  0.1142 -1.5954 -0.0329
 4362TIP3    H234578   1.846   3.436   1.720 -1.9975 -0.1924 -1.4597
 4363TIP3   OH234579   4.751   6.075  13.819  0.7274 -0.1654  0.4398
 4363TIP3    H134580   4.775   6.052  13.729 -1.0753  0.1583 -0.1316
 4363TIP3    H234581   4.712   5.995  13.855  0.7990 -0.0784  0.7101
 4364TIP3   OH234582   5.455   3.760   0.552  0.3398  0.0453 -0.9423
 4364TIP3    H134583   5.410   3.684   0.589  1.1129 -0.1062 -0.2846
 4364TIP3    H234584   5.544   3.729   0.534  0.7884  0.8999 -0.2694
 4365TIP3   OH234585   3.515   6.032  16.519  0.1424  0.0582 -0.2900
 4365TIP3    H134586   3.580   6.101  16.533 -1.4164  1.5538 -0.3880
 4365TIP3    H234587   3.454   6.069  16.456 -1.5382 -0.8643  0.7742
 4366TIP3   OH234588   6.239   5.536   6.629 -0.2645 -0.1675  0.3188
 4366TIP3    H134589   6.175   5.464   6.621  0.5214 -0.6584 -2.0521
 4366TIP3    H234590   6.205   5.590   6.700 -1.7457 -2.0128  1.0722
 4367TIP3   OH234591   4.594   6.340   5.884  0.0459  0.0502 -0.6463
 4367TIP3    H134592   4.593   6.401   5.810  1.7124 -0.2347 -0.9339
 4367TIP3    H234593   4.647   6.384   5.950 -0.8581 -0.0012  0.1271
 4368TIP3   OH234594   4.734   6.472  15.356  0.5081  0.1739  0.0729
 4368TIP3    H134595   4.672   6.445  15.289  1.3825 -2.1322  0.1556
 4368TIP3    H234596   4.796   6.400  15.362  2.0752  1.5835  1.3754
 4369TIP3   OH234597   1.061   3.565  10.900  0.6915 -0.1342  0.4182
 4369TIP3    H134598   1.044   3.481  10.943  0.2454 -0.8555 -1.1143
 4369TIP3    H234599   1.013   3.559  10.818  1.9450  0.9977 -0.4102
 4370TIP3   OH234600   5.332   3.054  12.620  0.1397 -0.2787 -0.0204
 4370TIP3    H134601   5.260   3.118  12.614  0.4984  0.2790  1.5317
 4370TIP3    H234602   5.300   2.988  12.682  0.1453 -1.1433 -0.9155
 4371TIP3   OH234603   4.065   1.000   1.690  0.3168 -0.1034  0.0306
 4371TIP3    H134604   4.146   1.023   1.644 -0.2526 -0.2391 -1.0588
 4371TIP3    H234605   4.000   1.061   1.657  0.0639  0.2997  1.2405
 4372TIP3   OH234606   3.125   0.189   0.581  0.8167  0.1281  0.3048
 4372TIP3    H134607   3.169   0.214   0.662  2.3155  0.7568 -0.6702
 4372TIP3    H234608   3.065   0.261   0.563 -0.5983 -0.6999  1.6067
 4373TIP3   OH234609   3.235   0.598  12.544 -0.9419  0.3934  0.5894
 4373TIP3    H134610   3.214   0.565  12.632 -2.1824  1.8140  0.8584
 4373TIP3    H234611   3.163   0.658  12.524  0.5654  1.8878 -0.4333
 4374TIP3   OH234612   3.952   3.325   0.146  0.2739 -0.4316 -0.6522
 4374TIP3    H134613   3.991   3.374   0.073  0.5399  1.7982  0.9549
 4374TIP3    H234614   3.984   3.369   0.224 -1.9186 -1.3489  0.7916
 4375TIP3   OH234615   2.177   3.059  15.345  0.0679  0.5319  0.2405
 4375TIP3    H134616   2.257   3.030  15.300 -0.5088  1.6677 -1.5629
 4375TIP3    H234617   2.184   3.020  15.432  0.7154 -2.5860 -1.1422
 4376TIP3   OH234618   0.706   0.239   4.991  0.0122  0.8146 -0.5230
 4376TIP3    H134619   0.675   0.247   5.080  0.5668  0.7519 -0.3190
 4376TIP3    H234620   0.700   0.327   4.954  0.6779  1.0346 -0.1187
 4377TIP3   OH234621   3.027   6.665  16.023 -0.5505 -0.1579 -0.4093
 4377TIP3    H134622   3.121   6.651  16.010 -0.2574 -0.2540  1.6430
 4377TIP3    H234623   3.021   6.754  16.058 -1.2941  0.0808 -1.1116
 4378TIP3   OH234624   2.191   5.277  14.588  0.3784  0.9850 -0.0375
 4378TIP3    H134625   2.153   5.284  14.500  0.0674  0.4512  0.0593
 4378TIP3    H234626   2.276   5.320  14.580 -0.6585  3.1231  0.0064
 4379TIP3   OH234627   2.826   4.181   1.532 -0.4843 -0.2793 -0.3653
 4379TIP3    H134628   2.877   4.245   1.482 -2.7192  1.2325 -0.8028
 4379TIP3    H234629   2.888   4.143   1.594  1.2567  1.1853 -1.1889
 4380TIP3   OH234630   5.698   3.174  16.974 -0.1046 -0.5544  0.1996
 4380TIP3    H134631   5.744   3.090  16.975 -0.8512 -0.9719 -0.6511
 4380TIP3    H234632   5.759   3.234  16.930 -0.2530 -1.0482 -0.6945
 4381TIP3   OH234633   6.115   1.531  15.620 -0.0030  0.2153 -0.0197
 4381TIP3    H134634   6.127   1.439  15.644 -0.8961  0.2301  0.4907
 4381TIP3    H234635   6.047   1.529  15.552 -0.1598  0.5204  0.1308
 4382TIP3   OH234636   1.977   1.011  13.657 -0.0201  0.2430 -0.5070
 4382TIP3    H134637   1.976   1.103  13.682 -1.0354  0.1569 -0.2011
 4382TIP3    H234638   1.913   0.969  13.716  1.5988 -0.9466  0.4484
 4383TIP3   OH234639   0.806   2.589  11.703 -0.6046  0.5717  0.2388
 4383TIP3    H134640   0.718   2.619  11.722 -0.8512  0.5502 -0.8461
 4383TIP3    H234641   0.802   2.557  11.613  0.1870 -0.6347  0.6060
 4384TIP3   OH234642   2.478   2.384  11.340  0.4744 -0.0557 -0.5174
 4384TIP3    H134643   2.542   2.456  11.344  0.4989 -0.1426  1.0453
 4384TIP3    H234644   2.394   2.425  11.361  0.1685 -0.1163 -1.6258
 4385TIP3   OH234645   2.441   1.278   3.589 -0.1848 -0.2298 -0.0223
 4385TIP3    H134646   2.458   1.262   3.682  0.3537  1.3471  0.1547
 4385TIP3    H234647   2.346   1.289   3.584  0.0633  2.6013  0.8194
 4386TIP3   OH234648   6.076   4.175  11.864  0.1653 -0.2937  0.1234
 4386TIP3    H134649   5.982   4.162  11.848  0.1927 -0.2361 -0.0872
 4386TIP3    H234650   6.119   4.129  11.792  0.2787  0.2920 -0.1864
 4387TIP3   OH234651   5.801   6.063   3.450 -0.1991 -0.1247  0.1887
 4387TIP3    H134652   5.802   6.059   3.546  2.1837  2.3340  0.3050
 4387TIP3    H234653   5.893   6.062   3.425 -0.7957 -0.4598 -2.0841
 4388TIP3   OH234654   1.118   3.965   0.867 -0.9505  0.1152  0.4641
 4388TIP3    H134655   1.187   3.909   0.832 -0.4689  0.8754  0.1854
 4388TIP3    H234656   1.111   3.939   0.959  0.9647  1.2698  0.9595
 4389TIP3   OH234657   5.336   0.485   5.148  0.0715  0.6387 -0.1546
 4389TIP3    H134658   5.277   0.534   5.204  1.2914 -0.3790  2.0893
 4389TIP3    H234659   5.424   0.504   5.182  0.5491 -3.7236  1.4521
 4390TIP3   OH234660   2.348   1.038   1.164  0.0069 -0.3380 -0.0013
 4390TIP3    H134661   2.424   0.996   1.204 -0.1163 -0.6289 -0.0711
 4390TIP3    H234662   2.279   0.972   1.169  0.7227 -1.4056 -3.1039
 4391TIP3   OH234663   6.195   3.059  13.488  0.5581 -0.0134  0.3986
 4391TIP3    H134664   6.126   3.116  13.523 -0.2126  2.2710 -4.3443
 4391TIP3    H234665   6.271   3.117  13.479  1.0075 -0.7504 -0.6552
 4392TIP3   OH234666   2.170   4.095  14.573  0.6692 -0.3406 -0.1768
 4392TIP3    H134667   2.146   4.014  14.527 -0.1143  0.4063 -1.1175
 4392TIP3    H234668   2.110   4.161  14.537  2.1136  0.9176 -0.3203
 4393TIP3   OH234669   2.260   0.470   2.912 -0.1112  0.2971 -0.1926
 4393TIP3    H134670   2.349   0.440   2.892 -0.2175  0.4944 -1.0061
 4393TIP3    H234671   2.231   0.413   2.983  1.6900  2.0373  2.0198
 4394TIP3   OH234672   0.332   3.133  12.191  0.2022 -0.1068  0.0624
 4394TIP3    H134673   0.406   3.191  12.208 -0.0963  0.4103 -0.3632
 4394TIP3    H234674   0.275   3.184  12.134  0.0948 -0.9534 -0.5924
 4395TIP3   OH234675   6.640   1.700   5.510 -0.5891  0.1585 -0.5671
 4395TIP3    H134676   6.545   1.702   5.516 -0.6721 -2.4937 -0.6747
 4395TIP3    H234677   6.669   1.772   5.567 -2.6557  1.8076 -1.5282
 4396TIP3   OH234678   2.848   2.591  14.514 -0.0743 -0.0233 -0.2530
 4396TIP3    H134679   2.886   2.673  14.546  1.1581 -0.8960  0.5990
 4396TIP3    H234680   2.923   2.540  14.483 -0.6355 -1.4233  0.6084
 4397TIP3   OH234681   0.092   3.181   3.231 -0.0913 -0.5608  0.9437
 4397TIP3    H134682   0.182   3.186   3.262 -0.6526 -0.6310  2.6167
 4397TIP3    H234683   0.082   3.257   3.173  0.9655 -0.4212  0.9401
 4398TIP3   OH234684   0.128   1.034   5.884  0.4815 -0.5501  0.0525
 4398TIP3    H134685   0.168   1.033   5.971  1.5787 -0.7615 -0.4413
 4398TIP3    H234686   0.161   0.955   5.841  1.3634  0.4697 -1.1746
 4399TIP3   OH234687   2.027   1.564  15.774  0.1093  0.2520 -0.4542
 4399TIP3    H134688   2.101   1.533  15.827  0.4474  0.8974 -0.5372
 4399TIP3    H234689   2.068   1.599  15.694 -0.4782 -1.7311 -1.6507
 4400TIP3   OH234690   2.079   0.209   0.881  0.3882  0.4275  0.3232
 4400TIP3    H134691   1.998   0.174   0.845 -0.1533  1.2824  0.6828
 4400TIP3    H234692   2.141   0.137   0.877 -0.1571  0.0121 -0.7233
 4401TIP3   OH234693   2.998   0.170   2.429 -0.2838 -0.7052 -0.1576
 4401TIP3    H134694   3.042   0.094   2.467 -1.0193 -0.9978  0.1311
 4401TIP3    H234695   2.905   0.147   2.430 -0.5397  0.2762  0.1183
 4402TIP3   OH234696   0.518   6.654  14.177 -0.5314  0.4359  0.4593
 4402TIP3    H134697   0.594   6.711  14.185 -1.5375  1.4823  3.2290
 4402TIP3    H234698   0.498   6.652  14.084  0.3990  3.4823  0.1493
 4403TIP3   OH234699   0.837   0.925   3.971  0.4448  0.5066 -0.1627
 4403TIP3    H134700   0.835   0.881   3.886  0.6878  0.8267 -0.3340
 4403TIP3    H234701   0.805   1.013   3.953 -2.3989 -0.3090  0.6043
 4404TIP3   OH234702   5.718   0.951   0.327  0.0374 -0.0762  0.0530
 4404TIP3    H134703   5.790   0.894   0.355  0.0887 -0.6307 -1.2060
 4404TIP3    H234704   5.754   1.040   0.333  0.7098 -0.3253 -0.2534
 4405TIP3   OH234705   6.764   0.441  16.012  0.0519 -0.0024 -0.3498
 4405TIP3    H134706   6.675   0.458  16.044 -0.6939 -0.7609 -1.9809
 4405TIP3    H234707   6.820   0.494  16.069 -1.4493  0.6417  0.5729
 4406TIP3   OH234708   1.967   5.621  12.105 -0.1434  0.1754  0.5406
 4406TIP3    H134709   2.054   5.650  12.077  0.1372 -0.2590  0.9556
 4406TIP3    H234710   1.911   5.697  12.090  0.6131  0.9759  1.7388
 4407TIP3   OH234711   1.034   1.848  15.338 -0.9026  0.2023  0.6138
 4407TIP3    H134712   0.964   1.911  15.355 -1.6642 -0.4454 -0.1096
 4407TIP3    H234713   1.114   1.899  15.344 -1.3952  0.8299  2.0468
 4408TIP3   OH234714   4.190   0.758  11.673  0.1053  0.3165 -0.1988
 4408TIP3    H134715   4.246   0.829  11.640  0.4467 -0.1822 -0.7061
 4408TIP3    H234716   4.133   0.800  11.737  0.8956  0.8852  0.1406
 4409TIP3   OH234717   6.675   2.679  12.164 -0.0497 -0.0015 -0.2530
 4409TIP3    H134718   6.687   2.656  12.072  1.9890  1.3798 -0.3771
 4409TIP3    H234719   6.656   2.596  12.208  0.8227 -0.9416 -1.6332
 4410TIP3   OH234720   2.985   0.822  16.899  0.2436 -0.3250  0.8576
 4410TIP3    H134721   2.964   0.853  16.987  1.7315 -0.5147  1.2794
 4410TIP3    H234722   2.901   0.826  16.852 -0.0008  2.4181  1.4658
 4411TIP3   OH234723   6.537   3.790   3.237  0.4169  0.0978 -0.4772
 4411TIP3    H134724   6.484   3.828   3.166  1.1351 -1.4794 -1.8731
 4411TIP3    H234725   6.589   3.864   3.269 -0.3741  0.9716 -1.1563
 4412TIP3   OH234726   3.620   1.209   6.214 -0.2496 -0.2667  0.2101
 4412TIP3    H134727   3.577   1.138   6.260 -1.2689  0.1449 -0.0889
 4412TIP3    H234728   3.656   1.169   6.135  2.0841 -1.1132  1.6519
 4413TIP3   OH234729   2.273   2.337  14.795 -0.5299  0.1343 -0.0664
 4413TIP3    H134730   2.340   2.347  14.863 -1.3384 -1.1232  0.9353
 4413TIP3    H234731   2.303   2.263  14.742 -1.0896 -0.4150  0.3688
 4414TIP3   OH234732   1.451   0.727   3.023  0.5841 -0.1838  0.3500
 4414TIP3    H134733   1.479   0.818   3.012 -0.4623  0.1505  0.4053
 4414TIP3    H234734   1.471   0.707   3.114 -0.5947  0.4892  0.7633
 4415TIP3   OH234735   3.066   2.425  14.412  0.0324  0.3165  0.6294
 4415TIP3    H134736   3.111   2.434  14.497  0.3991  1.8549  0.2872
 4415TIP3    H234737   3.117   2.359  14.366  0.3775  0.1294  1.2628
 4416TIP3   OH234738   3.893   3.682  14.984  0.3738 -0.6584  0.2475
 4416TIP3    H134739   3.810   3.707  15.024  1.6291  0.2844  2.3084
 4416TIP3    H234740   3.930   3.616  15.043  1.5525 -0.3458 -0.1209
 4417TIP3   OH234741   2.508   4.670   0.118  0.5113  0.0649 -0.0526
 4417TIP3    H134742   2.544   4.735   0.059 -2.7096  0.3802 -1.7943
 4417TIP3    H234743   2.414   4.689   0.121  0.2268 -1.3788  3.3868
 4418TIP3   OH234744   6.660   1.469  17.217  0.1397 -0.1902 -0.6569
 4418TIP3    H134745   6.570   1.485  17.187 -0.0187 -0.8547 -0.5429
 4418TIP3    H234746   6.688   1.392  17.168  0.2196 -0.7056  0.1772
 4419TIP3   OH234747   1.250   4.292  14.449 -0.4971 -0.3304 -0.0806
 4419TIP3    H134748   1.172   4.277  14.395 -1.1581  0.2161  0.7170
 4419TIP3    H234749   1.230   4.371  14.499  0.2690 -0.6271  0.7058
 4420TIP3   OH234750   2.020   1.146   1.059 -0.0267 -0.0615 -0.0614
 4420TIP3    H134751   2.069   1.158   1.140  0.4912 -0.5111 -0.3052
 4420TIP3    H234752   2.039   1.224   1.007 -0.9703  0.5925  0.5548
 4421TIP3   OH234753   3.322   1.291  14.628  0.0571 -0.1790  0.4961
 4421TIP3    H134754   3.411   1.280  14.594 -0.1396  0.9117 -0.3843
 4421TIP3    H234755   3.268   1.302  14.550 -0.6522  0.5216  1.0794
 4422TIP3   OH234756   4.186   2.846   3.159 -0.4678 -0.1371  0.4260
 4422TIP3    H134757   4.228   2.856   3.244 -1.9206 -1.1886  1.2925
 4422TIP3    H234758   4.258   2.823   3.100  0.5568  0.6415  1.3500
 4423TIP3   OH234759   1.047   5.794  16.187 -0.3663 -0.1197  0.5133
 4423TIP3    H134760   1.027   5.823  16.098 -0.0548 -1.5270 -0.0296
 4423TIP3    H234761   1.019   5.867  16.243  2.3401  2.0983 -0.9386
 4424TIP3   OH234762   5.941   6.137   4.655 -0.1394 -0.4282  0.3524
 4424TIP3    H134763   5.852   6.105   4.644 -0.2158  0.1374 -0.6915
 4424TIP3    H234764   5.996   6.060   4.643 -0.3388 -0.2550 -1.8461
 4425TIP3   OH234765   2.940   1.517   5.714  0.2100  0.5676 -0.2001
 4425TIP3    H134766   2.920   1.435   5.759 -0.2148  0.2712 -0.9135
 4425TIP3    H234767   3.005   1.492   5.648  2.3440  1.3667  1.5559
 4426TIP3   OH234768   0.236   6.566   4.812  0.0029 -0.4196 -0.1106
 4426TIP3    H134769   0.210   6.484   4.771  1.6744 -0.2552 -1.5768
 4426TIP3    H234770   0.332   6.568   4.802  0.1117  1.0442  1.1340
 4427TIP3   OH234771   2.695   6.374  11.570 -0.3320  0.6602  0.5062
 4427TIP3    H134772   2.702   6.298  11.511 -0.8321  0.9756  0.0371
 4427TIP3    H234773   2.764   6.433  11.539  0.5970  0.0507  1.3921
 4428TIP3   OH234774   4.250   5.246  13.747  0.6237 -0.0386  0.4867
 4428TIP3    H134775   4.193   5.238  13.670  1.0966 -0.6037  0.1792
 4428TIP3    H234776   4.206   5.308  13.804 -1.5604 -2.3387  1.3860
 4429TIP3   OH234777   5.074   1.445  14.307 -0.5803 -0.2414 -0.0009
 4429TIP3    H134778   5.049   1.359  14.340  1.1648 -1.3361 -1.4714
 4429TIP3    H234779   5.152   1.469  14.358 -1.4755  0.8301  0.9146
 4430TIP3   OH234780   0.023   1.604   5.985  0.6584 -1.2208  0.3393
 4430TIP3    H134781  -0.027   1.628   6.063  0.5304  0.1248 -0.1405
 4430TIP3    H234782  -0.042   1.566   5.925  0.1735  0.4955 -0.2721
 4431TIP3   OH234783   5.423   4.225   5.778 -0.1065 -0.2877  0.5083
 4431TIP3    H134784   5.484   4.274   5.723 -1.0913  0.3110 -0.0709
 4431TIP3    H234785   5.478   4.183   5.844  1.0237 -0.5350 -0.5797
 4432TIP3   OH234786   5.226   4.180  12.627  0.6534 -0.1739 -0.2530
 4432TIP3    H134787   5.271   4.236  12.690 -0.1668 -0.4201  0.5632
 4432TIP3    H234788   5.249   4.217  12.541  0.1302  1.4263  0.2693
 4433TIP3   OH234789   0.390   4.917  15.088 -0.0155 -0.0357  0.3988
 4433TIP3    H134790   0.410   4.876  15.172 -0.7535 -2.5932 -0.6225
 4433TIP3    H234791   0.296   4.899  15.075 -0.0534  0.9046 -0.6639
 4434TIP3   OH234792   0.344   2.270   2.030  0.2268 -0.1221  0.6814
 4434TIP3    H134793   0.301   2.184   2.032 -0.5676  0.2612 -0.0367
 4434TIP3    H234794   0.273   2.333   2.036  0.7942  0.5017  0.9014
 4435TIP3   OH234795   6.577   5.533  14.514 -0.2671 -0.4075  0.3410
 4435TIP3    H134796   6.562   5.468  14.582 -0.9117 -1.5856 -0.8933
 4435TIP3    H234797   6.569   5.484  14.432  1.1008  0.8500 -0.5669
 4436TIP3   OH234798   0.377   2.707   3.706  0.3701  0.6608 -0.1729
 4436TIP3    H134799   0.404   2.636   3.764  0.6985 -0.0361 -1.1576
 4436TIP3    H234800   0.416   2.684   3.621 -1.6950  0.6369 -1.1556
 4437TIP3   OH234801   0.662   5.346   0.335 -0.6313  0.4398 -0.0118
 4437TIP3    H134802   0.632   5.261   0.301 -0.0073 -0.0326  0.6140
 4437TIP3    H234803   0.727   5.375   0.271  0.3056 -0.2971  0.5973
 4438TIP3   OH234804   3.095   5.574  13.536 -0.2772 -0.2812 -0.0552
 4438TIP3    H134805   3.000   5.570  13.522 -0.3078  1.1569 -0.2995
 4438TIP3    H234806   3.113   5.501  13.595 -1.2873 -1.6145 -1.3244
 4439TIP3   OH234807   4.916   3.185   4.400 -0.2156 -0.0616 -0.0057
 4439TIP3    H134808   4.967   3.227   4.469 -1.4212 -0.7117  1.2879
 4439TIP3    H234809   4.895   3.257   4.340  0.6609  0.5464  0.3999
 4440TIP3   OH234810   4.965   1.756   1.824  0.0890  0.5397 -1.1070
 4440TIP3    H134811   4.945   1.731   1.914 -1.4770  1.9731 -1.0220
 4440TIP3    H234812   5.003   1.678   1.784 -0.1374 -0.4062  0.5159
 4441TIP3   OH234813   3.438   0.100   2.992 -0.3713 -0.0676 -0.0632
 4441TIP3    H134814   3.531   0.117   2.976 -0.3593  0.2577  0.3500
 4441TIP3    H234815   3.436   0.047   3.071 -0.5972  0.9450  0.6253
 4442TIP3   OH234816   0.427   6.391   3.070  0.3346  0.7576 -0.2057
 4442TIP3    H134817   0.348   6.436   3.099  0.6679  0.5339  1.0900
 4442TIP3    H234818   0.470   6.453   3.011 -0.0914  1.4439  0.1991
 4443TIP3   OH234819   5.121   5.242   0.330 -0.4085 -0.1691 -0.6228
 4443TIP3    H134820   5.085   5.174   0.387  0.7776  0.8176  1.3898
 4443TIP3    H234821   5.151   5.195   0.252 -2.1519 -1.5550 -0.4937
 4444TIP3   OH234822   5.670   2.099   4.487 -0.0900 -0.1810 -0.6332
 4444TIP3    H134823   5.722   2.024   4.517  1.9433  1.1206 -0.7711
 4444TIP3    H234824   5.633   2.071   4.404  1.9302 -0.5158 -1.4577
 4445TIP3   OH234825   1.454   4.499   0.405  1.1139 -0.2447  0.5490
 4445TIP3    H134826   1.438   4.579   0.455  1.8255 -0.8490  1.7735
 4445TIP3    H234827   1.548   4.484   0.413  0.8830 -1.5776  0.9119
 4446TIP3   OH234828   2.750   6.605  15.985  0.5379 -0.1097  0.6198
 4446TIP3    H134829   2.835   6.604  15.942  1.1562 -3.0043  1.7860
 4446TIP3    H234830   2.686   6.612  15.914  1.6859  0.5239 -0.3537
 4447TIP3   OH234831   4.030   0.505  13.328 -0.4577  0.0139  0.1060
 4447TIP3    H134832   4.015   0.594  13.296  2.9996  0.9851  0.9285
 4447TIP3    H234833   4.071   0.459  13.254 -1.4926 -0.6597 -0.0546
 4448TIP3   OH234834   2.653   3.607  15.650 -0.5420 -0.0860  0.1678
 4448TIP3    H134835   2.606   3.662  15.713  1.1104 -0.6725  1.9426
 4448TIP3    H234836   2.625   3.640  15.565 -2.5906  0.9176  1.1795
 4449TIP3   OH234837   6.239   4.413   0.177  0.0392  0.7494  0.1391
 4449TIP3    H134838   6.250   4.321   0.152 -0.6281  0.5967  0.4141
 4449TIP3    H234839   6.161   4.415   0.232  0.9185  1.2515  1.3971
 4450TIP3   OH234840   3.507   3.496   6.733 -0.0441 -0.4119 -0.1339
 4450TIP3    H134841   3.570   3.567   6.725 -0.7525  0.4186  1.3522
 4450TIP3    H234842   3.456   3.500   6.652 -0.6634  1.3620  0.3247
 4451TIP3   OH234843   3.212   1.113  13.747 -0.4215  0.1218 -0.5101
 4451TIP3    H134844   3.146   1.056  13.708 -0.6676 -0.1063  0.2299
 4451TIP3    H234845   3.168   1.197  13.759 -0.5589 -0.0064 -0.0939
 4452TIP3   OH234846   6.113   6.705  14.273 -0.5729  0.3170 -0.3003
 4452TIP3    H134847   6.047   6.644  14.239 -0.2424  0.3020 -0.9194
 4452TIP3    H234848   6.190   6.650  14.291  0.4398  0.8562 -2.8254
 4453TIP3   OH234849   5.599   0.495   4.446  1.0092 -0.1476  0.3563
 4453TIP3    H134850   5.507   0.471   4.452  1.5200 -2.1192  0.6879
 4453TIP3    H234851   5.613   0.555   4.520  0.3389 -0.9974  1.1836
 4454TIP3   OH234852   4.537   2.363   0.584 -0.2204 -0.0477 -0.5012
 4454TIP3    H134853   4.606   2.306   0.617 -1.4971 -1.8253 -0.7929
 4454TIP3    H234854   4.580   2.418   0.519  1.5409  0.9813  1.4672
 4455TIP3   OH234855   2.006   3.403   1.116  0.2222 -0.6065  0.2771
 4455TIP3    H134856   2.065   3.410   1.040 -0.9553 -0.1298 -0.6114
 4455TIP3    H234857   2.018   3.486   1.163 -0.5909 -0.0074 -0.5482
 4456TIP3   OH234858   2.132   0.852   5.311 -0.2766 -0.1701 -0.1253
 4456TIP3    H134859   2.143   0.929   5.255  0.2291 -0.5612 -0.5752
 4456TIP3    H234860   2.219   0.837   5.348 -0.0437 -1.3232 -1.1014
 4457TIP3   OH234861   6.080   3.078  11.889  0.0314  0.5475  0.3702
 4457TIP3    H134862   6.157   3.102  11.838  0.9959  1.7543  2.3235
 4457TIP3    H234863   6.107   3.000  11.939  0.1318  1.1976  1.3461
 4458TIP3   OH234864   4.236   6.241   0.678 -0.9084  0.2933  0.0713
 4458TIP3    H134865   4.151   6.257   0.720 -0.8510 -0.0745  0.3328
 4458TIP3    H234866   4.300   6.255   0.747 -0.7677  0.3873 -0.0780
 4459TIP3   OH234867   2.263   0.105   2.839  0.4258 -0.3119  0.2386
 4459TIP3    H134868   2.258   0.145   2.752  1.5313 -0.9100 -0.1074
 4459TIP3    H234869   2.183   0.054   2.847 -0.1164  0.4795 -0.0534
 4460TIP3   OH234870   1.797   4.108   4.030 -0.5426 -0.6257  0.5613
 4460TIP3    H134871   1.729   4.056   4.073 -1.6063  0.5920  0.3776
 4460TIP3    H234872   1.751   4.185   3.997  1.2007  1.0341  1.8944
 4461TIP3   OH234873   6.329   0.660  11.556 -0.3054 -0.3639  0.2609
 4461TIP3    H134874   6.321   0.678  11.463  0.0127  0.4035  0.3747
 4461TIP3    H234875   6.423   0.645  11.570 -0.0563  1.5337  0.7904
 4462TIP3   OH234876   6.414   0.852  13.764  0.0729 -0.6605 -0.4043
 4462TIP3    H134877   6.336   0.818  13.720  1.0262 -1.1051 -1.8210
 4462TIP3    H234878   6.451   0.914  13.702  1.1155 -0.8286  0.0392
 4463TIP3   OH234879   6.435   6.439  13.595 -0.2480 -0.6135  0.0923
 4463TIP3    H134880   6.344   6.465  13.607  0.4319  1.7468  0.4567
 4463TIP3    H234881   6.474   6.511  13.545  1.3721 -1.6980 -0.2527
 4464TIP3   OH234882   5.520   1.198   0.954 -0.5739 -0.0070  0.1056
 4464TIP3    H134883   5.503   1.104   0.946  0.5861 -0.2626  0.5190
 4464TIP3    H234884   5.446   1.240   0.909 -1.3740 -1.0973  0.3840
 4465TIP3   OH234885   3.671   4.112   6.279  0.2434 -0.4341  0.0358
 4465TIP3    H134886   3.738   4.117   6.347  0.0700  1.3180  0.1069
 4465TIP3    H234887   3.594   4.076   6.323  0.4825 -0.4099  0.4767
 4466TIP3   OH234888   0.213   5.706   1.079  0.4554  0.2957 -0.3527
 4466TIP3    H134889   0.169   5.639   1.026  0.4525 -0.3748  0.4937
 4466TIP3    H234890   0.198   5.679   1.170 -1.5743  2.7172  0.0753
 4467TIP3   OH234891   5.796   4.795   3.635  0.2062  0.1940  0.1661
 4467TIP3    H134892   5.841   4.721   3.596  0.1911 -0.3023  1.0764
 4467TIP3    H234893   5.844   4.813   3.716 -0.3724  0.5560  0.4371
 4468TIP3   OH234894   2.010   2.138  17.278 -0.2705 -0.3157 -0.0095
 4468TIP3    H134895   1.960   2.122  17.358  1.7690  1.3741  1.6350
 4468TIP3    H234896   2.021   2.051  17.239 -0.2591 -1.3038  2.1404
 4469TIP3   OH234897   0.273   0.171   0.469 -0.4683 -0.5217 -0.4658
 4469TIP3    H134898   0.257   0.239   0.534  0.4708 -1.7838  1.1439
 4469TIP3    H234899   0.361   0.190   0.437 -0.3857 -0.6927 -0.3446
 4470TIP3   OH234900   6.644   2.927   4.246  0.2207 -0.2805  0.4445
 4470TIP3    H134901   6.659   2.988   4.318 -3.2820  1.2980 -0.0767
 4470TIP3    H234902   6.681   2.844   4.278  2.2680  1.3163  2.4169
 4471TIP3   OH234903   4.580   2.888  13.151 -0.3630 -0.3098  0.4740
 4471TIP3    H134904   4.503   2.873  13.206  0.1420 -1.2122  0.9533
 4471TIP3    H234905   4.642   2.934  13.208 -1.7784  3.4850 -0.8972
 4472TIP3   OH234906   1.164   2.904  15.489  0.1350  0.5392 -0.4112
 4472TIP3    H134907   1.095   2.917  15.424  0.6280 -0.4415 -1.1482
 4472TIP3    H234908   1.137   2.826  15.537  0.3603  0.5831 -0.2128
 4473TIP3   OH234909   5.304   2.541  15.618 -0.0170 -0.5195 -0.0664
 4473TIP3    H134910   5.388   2.503  15.646 -0.6598 -2.3153 -0.5103
 4473TIP3    H234911   5.238   2.478  15.647 -1.1714  0.5849 -0.2543
 4474TIP3   OH234912   0.577   6.560  14.481 -0.1486  0.1878  0.1519
 4474TIP3    H134913   0.571   6.656  14.489  1.5382  0.0716  3.6245
 4474TIP3    H234914   0.493   6.529  14.515  0.7462  0.3291  2.5488
 4475TIP3   OH234915   3.843   0.640  12.021 -0.4269  0.0617 -0.1957
 4475TIP3    H134916   3.816   0.679  12.104 -0.6824  3.0895 -1.6189
 4475TIP3    H234917   3.806   0.699  11.954  3.0926 -0.0580 -2.3601
 4476TIP3   OH234918   1.366   4.712   4.141  0.6892  0.4286  0.1877
 4476TIP3    H134919   1.385   4.799   4.178  1.0295 -0.1683  1.4514
 4476TIP3    H234920   1.327   4.664   4.214  1.1612 -0.7034 -0.3084
 4477TIP3   OH234921   0.665   1.742  16.303 -0.1701  0.4250 -0.0405
 4477TIP3    H134922   0.703   1.756  16.217  1.8242  2.1074  1.0622
 4477TIP3    H234923   0.577   1.781  16.298  0.7577  2.4834 -0.6798
 4478TIP3   OH234924   3.598   6.363  16.602  0.1654  0.2788 -0.3481
 4478TIP3    H134925   3.579   6.398  16.515  1.8728  0.0328 -0.8403
 4478TIP3    H234926   3.634   6.437  16.651 -0.1673  0.2533 -0.0630
 4479TIP3   OH234927   1.865   0.083   2.354  0.1491 -0.1589 -0.0915
 4479TIP3    H134928   1.819   0.109   2.274  0.9855 -0.8239 -0.7972
 4479TIP3    H234929   1.838   0.149   2.419  0.2344  0.9710 -1.1695
 4480TIP3   OH234930   3.597   0.119  12.335  0.3178  0.0380 -0.0002
 4480TIP3    H134931   3.667   0.074  12.382  0.8789  0.5884 -0.2913
 4480TIP3    H234932   3.625   0.210  12.332 -0.0126  0.1203 -0.8439
 4481TIP3   OH234933   6.379   5.725  13.292  0.3417 -0.2866 -0.2392
 4481TIP3    H134934   6.352   5.761  13.376 -0.4955 -2.9726  0.6872
 4481TIP3    H234935   6.454   5.670  13.312  0.8700 -0.0178 -1.4429
 4482TIP3   OH234936   0.117   0.132   3.251  0.0118 -0.5037 -0.5715
 4482TIP3    H134937   0.070   0.050   3.264  0.4866 -0.6637  0.1565
 4482TIP3    H234938   0.082   0.191   3.318  0.2922 -0.3902 -0.5208
 4483TIP3   OH234939   1.980   0.231  12.281  0.3753  0.4668 -0.2797
 4483TIP3    H134940   1.907   0.229  12.342  0.3330  1.2163 -0.2917
 4483TIP3    H234941   1.983   0.322  12.251  1.5345  0.5279 -0.0029
 4484TIP3   OH234942   1.834   1.853  12.540 -0.3544 -0.4172  0.4449
 4484TIP3    H134943   1.815   1.769  12.580 -1.4623 -0.5645 -0.3617
 4484TIP3    H234944   1.818   1.917  12.609 -1.5814 -0.7174  0.4510
 4485TIP3   OH234945   4.716   4.882   0.572 -0.0521  0.6209 -0.3022
 4485TIP3    H134946   4.660   4.835   0.510  1.4622  0.0682 -1.2765
 4485TIP3    H234947   4.660   4.951   0.607 -2.0917 -1.4081  0.5687
 4486TIP3   OH234948   3.255   5.720   4.674  0.3585  0.2730 -0.3935
 4486TIP3    H134949   3.258   5.812   4.648 -0.0120  0.5456  0.4905
 4486TIP3    H234950   3.329   5.680   4.630  1.5894  1.3776  0.6193
 4487TIP3   OH234951   6.533   5.718   5.937  0.4100  0.5106 -0.1964
 4487TIP3    H134952   6.509   5.626   5.951  1.1858  0.1064 -1.3758
 4487TIP3    H234953   6.489   5.742   5.856 -0.5671  1.4877  0.6150
 4488TIP3   OH234954   6.276   2.444   4.726 -0.7399  0.1471  0.2128
 4488TIP3    H134955   6.225   2.375   4.769 -1.4838  0.6840  0.1912
 4488TIP3    H234956   6.260   2.431   4.633  0.9834 -1.1038  0.0536
 4489TIP3   OH234957   2.171   3.542   0.905  0.1454 -0.3448  0.4245
 4489TIP3    H134958   2.232   3.615   0.903  1.3151 -1.3189 -1.3676
 4489TIP3    H234959   2.085   3.581   0.890  0.6588  0.7518  0.3167
 4490TIP3   OH234960   2.290   6.699   3.185 -0.2067 -0.0748  0.4966
 4490TIP3    H134961   2.202   6.729   3.209  0.5516  1.3098  1.6548
 4490TIP3    H234962   2.348   6.768   3.217  1.2145 -0.3722 -1.3965
 4491TIP3   OH234963   1.077   5.548   4.172  0.3509 -0.1003  0.0571
 4491TIP3    H134964   1.013   5.492   4.128  0.2960 -0.8450  1.0509
 4491TIP3    H234965   1.048   5.551   4.263  1.0110  0.5972  0.2528
 4492TIP3   OH234966   5.012   6.328  16.630  0.7174  0.5453 -0.6889
 4492TIP3    H134967   4.983   6.248  16.587 -0.0291  2.3024 -3.6110
 4492TIP3    H234968   4.933   6.366  16.668  1.3495 -0.9163  2.2148
 4493TIP3   OH234969   6.283   5.047  12.824 -0.5422  0.7061  0.1900
 4493TIP3    H134970   6.238   5.057  12.908  0.2730 -1.8484  0.9838
 4493TIP3    H234971   6.376   5.049  12.847 -0.3244 -2.1787 -0.3284
 4494TIP3   OH234972   0.795   4.367   5.326 -0.2162 -0.2565 -0.2901
 4494TIP3    H134973   0.880   4.399   5.295 -0.4456 -1.5253 -2.3671
 4494TIP3    H234974   0.815   4.284   5.369 -0.3859 -0.5694 -0.8038
 4495TIP3   OH234975   1.099   5.738   1.485  0.1152  0.7095 -0.4586
 4495TIP3    H134976   1.089   5.655   1.438  0.0254  0.9028 -0.7826
 4495TIP3    H234977   1.031   5.794   1.449 -2.0487 -0.1528  2.1453
 4496TIP3   OH234978   5.698   5.150  12.405 -0.2350  0.7972  0.4823
 4496TIP3    H134979   5.721   5.110  12.489 -0.8889  0.0788  0.3230
 4496TIP3    H234980   5.782   5.178  12.368  0.4171 -1.7939 -0.0884
 4497TIP3   OH234981   2.174   3.302   4.966  0.3944 -0.0388 -0.4533
 4497TIP3    H134982   2.203   3.221   4.923 -0.1201 -0.8078  0.6373
 4497TIP3    H234983   2.091   3.323   4.923  0.3373 -0.3058 -0.4767
 4498TIP3   OH234984   6.221   1.659  11.596  0.3533  0.2875  0.1864
 4498TIP3    H134985   6.139   1.612  11.609 -0.3801  1.6720  0.6845
 4498TIP3    H234986   6.216   1.693  11.507  0.2283  0.6582  0.3333
 4499TIP3   OH234987   4.805   2.574  15.186  0.0177 -0.3058 -0.5979
 4499TIP3    H134988   4.864   2.516  15.137 -1.1635 -2.1971  0.1292
 4499TIP3    H234989   4.719   2.534  15.175 -0.9011  1.5815 -0.4058
 4500TIP3   OH234990   6.660   0.763  13.840 -0.1418 -0.5573  0.0885
 4500TIP3    H134991   6.667   0.676  13.802 -0.7679 -1.8738  2.8376
 4500TIP3    H234992   6.572   0.792  13.817  1.1720  0.7613 -3.5714
 4501TIP3   OH234993   5.693   0.387   2.844 -0.4275  0.4983  0.5495
 4501TIP3    H134994   5.604   0.374   2.811 -0.4305  0.3145  0.6266
 4501TIP3    H234995   5.690   0.356   2.935  0.5621 -2.8586 -0.4819
 4502TIP3   OH234996   1.136   2.845  12.289  0.2376  0.1761  0.2496
 4502TIP3    H134997   1.203   2.776  12.293 -0.6177 -0.9159 -2.7892
 4502TIP3    H234998   1.184   2.924  12.265  0.7892 -0.0275  0.6750
 4503TIP3   OH234999   2.915   5.552   4.037 -0.2255 -0.4424 -0.0821
 4503TIP3    H135000   2.836   5.549   4.091  0.3712 -0.1116  0.8199
 4503TIP3    H235001   2.975   5.490   4.079  0.1191 -0.4413 -0.5676
 4504TIP3   OH235002   6.475   4.350   5.530  0.2118 -0.1170  0.2696
 4504TIP3    H135003   6.536   4.298   5.583  0.7212 -1.8070 -1.8761
 4504TIP3    H235004   6.404   4.289   5.511 -0.3815  0.7466 -0.2529
 4505TIP3   OH235005   3.400   3.323  16.971 -0.1804  0.0104  0.0803
 4505TIP3    H135006   3.457   3.390  17.009 -1.3279  0.6631  0.6837
 4505TIP3    H235007   3.337   3.372  16.919 -2.3298 -0.3963  2.1956
 4506TIP3   OH235008   4.410   6.394  11.234 -0.0079 -0.2184  0.0288
 4506TIP3    H135009   4.464   6.467  11.204  1.1264 -0.3696  1.6074
 4506TIP3    H235010   4.384   6.419  11.323  2.7886 -2.9434  1.7126
 4507TIP3   OH235011   4.169   3.401  15.594  0.0268 -0.0117  0.0791
 4507TIP3    H135012   4.081   3.433  15.614 -0.1880 -1.4540  1.4941
 4507TIP3    H235013   4.217   3.407  15.677  0.9536 -0.2638 -0.4274
 4508TIP3   OH235014   4.766   5.993  15.882  0.1883 -0.6525  0.0225
 4508TIP3    H135015   4.834   6.059  15.870 -0.2637 -0.2426 -0.3698
 4508TIP3    H235016   4.788   5.924  15.819  0.2785 -0.5462 -0.0634
 4509TIP3   OH235017   3.545   6.453   3.771 -0.2802  0.0024 -0.4464
 4509TIP3    H135018   3.453   6.435   3.793 -0.5721  0.5412 -1.2376
 4509TIP3    H235019   3.584   6.366   3.760 -0.8914 -0.2130 -0.9236
 4510TIP3   OH235020   0.365   3.511  13.375  0.2237 -0.9955 -0.5834
 4510TIP3    H135021   0.381   3.603  13.396  0.9955 -0.9712 -1.2599
 4510TIP3    H235022   0.371   3.506  13.280  2.1812 -2.0872 -0.4403
 4511TIP3   OH235023   1.285   5.092  12.961  0.6076 -0.1484  0.0277
 4511TIP3    H135024   1.273   5.156  12.891 -0.8884  0.6430  0.9740
 4511TIP3    H235025   1.311   5.145  13.037  0.2251 -0.7557  0.5913
 4512TIP3   OH235026   4.131   1.948  11.427 -0.2253  0.1911 -0.0551
 4512TIP3    H135027   4.174   1.904  11.500 -0.5917  2.2626  1.4336
 4512TIP3    H235028   4.108   2.035  11.460 -0.3209  1.2153 -2.6614
 4513TIP3   OH235029   0.418   3.882   0.360 -0.5407  0.1508  0.1983
 4513TIP3    H135030   0.498   3.916   0.400  0.3847 -0.4348 -1.1182
 4513TIP3    H235031   0.378   3.957   0.316 -0.3019  0.2817  0.2099
 4514TIP3   OH235032   3.015   1.815  14.891  0.0872 -0.2848  0.0653
 4514TIP3    H135033   3.074   1.740  14.896  0.0897 -0.2566  0.4821
 4514TIP3    H235034   3.011   1.837  14.797  1.1176  0.0164  0.0856
 4515TIP3   OH235035   3.037   1.541  17.070 -0.5041 -0.0220 -0.2294
 4515TIP3    H135036   3.074   1.580  16.990  1.0255 -1.1926 -0.1097
 4515TIP3    H235037   3.113   1.526  17.127 -1.5452  0.4636  1.3053
 4516TIP3   OH235038   4.991   3.224   0.802  0.0022  0.1498  0.1080
 4516TIP3    H135039   4.897   3.228   0.786  0.3711 -0.1223 -2.3149
 4516TIP3    H235040   5.000   3.163   0.876 -1.5826 -1.6471 -1.1261
 4517TIP3   OH235041   2.762   1.220   2.277 -0.0168 -0.0307 -0.2622
 4517TIP3    H135042   2.694   1.176   2.225 -0.5370 -1.2521  1.3847
 4517TIP3    H235043   2.733   1.311   2.282 -0.8835 -0.2827 -0.6019
 4518TIP3   OH235044   5.481   4.280  16.046 -0.1738 -0.4455 -0.5729
 4518TIP3    H135045   5.503   4.223  15.972 -0.7555 -0.2259 -0.9162
 4518TIP3    H235046   5.387   4.296  16.037 -0.7906 -2.4584  1.6207
 4519TIP3   OH235047   6.306   0.288   2.865 -0.3132 -0.2382  0.2224
 4519TIP3    H135048   6.372   0.348   2.899  0.9064 -1.7094  0.4919
 4519TIP3    H235049   6.264   0.251   2.943  0.0581 -0.9627  0.0787
 4520TIP3   OH235050   5.738   4.625  12.412  0.3712  0.0410 -0.2910
 4520TIP3    H135051   5.660   4.675  12.436  1.1627  2.0707 -1.8581
 4520TIP3    H235052   5.749   4.562  12.484 -1.7720  0.7848  0.7307
 4521TIP3   OH235053   4.519   4.395   2.212  0.1116  0.0289  0.5858
 4521TIP3    H135054   4.555   4.483   2.221 -0.1387  0.1426  0.4767
 4521TIP3    H235055   4.495   4.370   2.301 -0.8303  0.5029  0.4747
 4522TIP3   OH235056   0.644   4.442   3.251  0.0565  0.4016 -0.4165
 4522TIP3    H135057   0.698   4.364   3.260 -0.2575 -0.1112 -2.6216
 4522TIP3    H235058   0.561   4.419   3.292  0.4179  0.0491  0.1201
 4523TIP3   OH235059   1.369   4.362   3.221  0.0980 -0.1230 -0.0169
 4523TIP3    H135060   1.376   4.295   3.290 -0.8240 -1.2566 -0.9986
 4523TIP3    H235061   1.450   4.412   3.228  0.3274 -0.6713  1.4350
 4524TIP3   OH235062   3.588   4.618  12.622  0.0711 -0.0986  0.0735
 4524TIP3    H135063   3.603   4.524  12.635  1.2627  0.5036  3.3728
 4524TIP3    H235064   3.656   4.661  12.673 -1.3989  2.6014 -0.1317
 4525TIP3   OH235065   5.084   5.610  15.501  0.1992 -0.0304  0.1573
 4525TIP3    H135066   5.066   5.600  15.595  0.8439 -4.1408 -0.0706
 4525TIP3    H235067   5.028   5.544  15.459  1.8214 -0.0091 -2.1181
 4526TIP3   OH235068   2.182   6.465   3.957  0.2103  0.4780 -0.5685
 4526TIP3    H135069   2.203   6.423   3.873 -0.6574 -1.2636  0.0526
 4526TIP3    H235070   2.173   6.558   3.936 -1.1543 -0.0834 -2.6244
 4527TIP3   OH235071   5.636   6.504   1.209  0.0292 -0.6796 -0.7067
 4527TIP3    H135072   5.620   6.510   1.303  1.2844 -0.3252 -0.5022
 4527TIP3    H235073   5.549   6.499   1.170 -0.4919 -1.9605  0.5407
 4528TIP3   OH235074   4.304   5.847  15.229 -0.1145 -0.1886 -0.3457
 4528TIP3    H135075   4.323   5.797  15.149 -3.8734  0.0884 -1.4773
 4528TIP3    H235076   4.319   5.938  15.204  0.1789 -0.2089 -0.2531
 4529TIP3   OH235077   1.517   1.855   1.889 -0.5441  0.1685 -0.2867
 4529TIP3    H135078   1.539   1.803   1.967  1.2292  0.9447 -0.2386
 4529TIP3    H235079   1.428   1.887   1.906 -0.0767  0.5676  1.5690
 4530TIP3   OH235080   5.372   0.287  11.167  0.0377  0.0528  0.0935
 4530TIP3    H135081   5.390   0.358  11.106 -1.7512 -0.4168 -1.0428
 4530TIP3    H235082   5.414   0.210  11.127 -1.3078 -0.2971 -0.6942
 4531TIP3   OH235083   2.377   6.811  16.450  0.4903 -0.1740  0.5638
 4531TIP3    H135084   2.317   6.757  16.500  0.1027  0.5221  0.8641
 4531TIP3    H235085   2.346   6.901  16.464  2.5718  0.3626  2.1155
 4532TIP3   OH235086   6.666   5.088  16.584 -0.4324  0.9617  0.4519
 4532TIP3    H135087   6.646   4.996  16.598  0.5775  0.1642 -2.8425
 4532TIP3    H235088   6.590   5.122  16.536  0.8048  0.8205 -1.7120
 4533TIP3   OH235089   3.228   6.127  15.695  0.4579  0.3448  0.2734
 4533TIP3    H135090   3.143   6.150  15.735  1.2382  2.4138  0.8152
 4533TIP3    H235091   3.224   6.167  15.608 -0.7101 -3.0363 -1.3158
 4534TIP3   OH235092   5.867   2.636   0.721 -0.0015 -0.4451  0.5843
 4534TIP3    H135093   5.944   2.597   0.679  0.7099  1.0855  0.4375
 4534TIP3    H235094   5.812   2.665   0.649 -0.3584 -0.8421  0.6956
 4535TIP3   OH235095   4.703   5.823   5.365  0.8466 -0.3970 -0.0521
 4535TIP3    H135096   4.624   5.843   5.415  0.9139  1.4914 -0.6545
 4535TIP3    H235097   4.702   5.885   5.293  1.6252 -1.9856 -1.4728
 4536TIP3   OH235098   5.656   2.497   4.562 -0.2519 -0.0596 -0.0535
 4536TIP3    H135099   5.690   2.526   4.478  0.4864  1.5924  0.7923
 4536TIP3    H235100   5.601   2.422   4.541  2.4204 -1.6271 -1.6491
 4537TIP3   OH235101   3.753   2.070  12.500 -0.1238 -0.0113  0.6583
 4537TIP3    H135102   3.730   2.086  12.408 -0.5974  0.5542  0.8724
 4537TIP3    H235103   3.814   2.140  12.521 -2.1339  1.4874  1.5793
 4538TIP3   OH235104   2.375   6.323   2.488  0.3619  0.1723 -0.1290
 4538TIP3    H135105   2.371   6.285   2.576  1.3179 -0.4855 -0.3555
 4538TIP3    H235106   2.469   6.335   2.472  0.2205 -0.1411 -1.2283
 4539TIP3   OH235107   6.766   3.113   4.420 -0.3108  0.5234  0.6492
 4539TIP3    H135108   6.745   3.198   4.460 -2.4639 -0.1427  0.9642
 4539TIP3    H235109   6.781   3.055   4.494  0.0772  0.3571  0.4408
 4540TIP3   OH235110   2.217   1.588  15.555  0.0735 -0.1426 -0.2292
 4540TIP3    H135111   2.245   1.644  15.483 -0.4008 -1.2328 -1.2785
 4540TIP3    H235112   2.298   1.551  15.590  0.1588 -1.0269 -1.3738
 4541TIP3   OH235113   4.256   3.680   2.321 -0.2941 -0.4128 -0.1933
 4541TIP3    H135114   4.328   3.631   2.362 -0.0665 -0.5371 -0.7366
 4541TIP3    H235115   4.222   3.735   2.391  2.4049  2.0203 -0.7023
 4542TIP3   OH235116   5.847   6.120   3.721  0.4145  0.2273  0.4688
 4542TIP3    H135117   5.766   6.073   3.742 -1.5532  2.1032 -2.5564
 4542TIP3    H235118   5.859   6.181   3.794 -1.7858  1.0133  0.2078
 4543TIP3   OH235119   6.248   6.780  12.885  0.8056  0.4390 -0.0666
 4543TIP3    H135120   6.336   6.813  12.903  0.6903  0.3774  0.6145
 4543TIP3    H235121   6.191   6.856  12.896  0.8874  0.7220 -1.5368
 4544TIP3   OH235122   6.770   5.223  12.722  0.2719  0.1262 -0.2861
 4544TIP3    H135123   6.862   5.197  12.719  0.2342 -0.1495  0.7464
 4544TIP3    H235124   6.756   5.250  12.813 -0.0947  2.2849 -0.9395
 4545TIP3   OH235125   5.799   6.093  14.384  0.4400 -0.6166  0.5612
 4545TIP3    H135126   5.847   6.164  14.341  0.0277 -0.8763 -0.3432
 4545TIP3    H235127   5.825   6.098  14.475 -0.4209  1.4020  0.7310
 4546TIP3   OH235128   2.028   0.670   2.039 -0.2722 -0.2812 -0.2164
 4546TIP3    H135129   2.038   0.720   1.958  1.2936  0.8544  0.6447
 4546TIP3    H235130   2.104   0.612   2.041  0.3763  0.5829  1.0316
 4547TIP3   OH235131   3.460   1.673  13.474  0.9423 -0.3397  0.5270
 4547TIP3    H135132   3.532   1.629  13.429  0.8698  0.4257 -0.3513
 4547TIP3    H235133   3.429   1.739  13.412 -3.2589 -3.3234 -0.8065
 4548TIP3   OH235134   1.245   1.903   3.249  0.3961 -0.6205  0.3960
 4548TIP3    H135135   1.213   1.977   3.300  0.5521 -0.4107  0.1905
 4548TIP3    H235136   1.303   1.856   3.308 -0.4097 -1.0973  0.8273
 4549TIP3   OH235137   5.682   1.314   1.971 -0.5902  0.5006  0.2640
 4549TIP3    H135138   5.588   1.312   1.990 -0.5567  0.0036  0.3845
 4549TIP3    H235139   5.690   1.270   1.886 -0.0900 -2.7331  1.8866
 4550TIP3   OH235140   0.944   2.793   2.881  0.1720 -0.1591  0.6135
 4550TIP3    H135141   0.960   2.761   2.969  0.3250 -2.3716 -0.1749
 4550TIP3    H235142   1.029   2.789   2.838  0.2874  1.8334  0.6427
 4551TIP3   OH235143   2.947   2.434  12.357  0.1607 -0.8597  0.2558
 4551TIP3    H135144   3.007   2.405  12.426  0.4987  0.2638  0.4389
 4551TIP3    H235145   2.890   2.497  12.400  0.0789 -0.4969 -0.3869
 4552TIP3   OH235146   0.720   1.510  11.886  0.3473 -0.2290  0.6368
 4552TIP3    H135147   0.677   1.520  11.971  0.0377 -1.9225  0.6989
 4552TIP3    H235148   0.814   1.519  11.906  0.2359 -0.0039  1.0602
 4553TIP3   OH235149   2.853   5.889   4.612 -0.0397  0.2690  0.5164
 4553TIP3    H135150   2.892   5.860   4.695  1.1572 -0.2575 -0.2160
 4553TIP3    H235151   2.761   5.863   4.619 -0.0399  0.5689  1.8330
 4554TIP3   OH235152   3.109   1.841  11.969 -0.4612  0.6653 -0.0315
 4554TIP3    H135153   3.124   1.925  11.926  2.1763  0.9036  1.2668
 4554TIP3    H235154   3.157   1.847  12.052  0.6203 -2.4543 -0.3665
 4555TIP3   OH235155   1.342   4.378   2.361  0.5136  0.1921  0.2285
 4555TIP3    H135156   1.421   4.432   2.358 -0.0427  0.9551 -0.8489
 4555TIP3    H235157   1.275   4.431   2.319 -0.6959 -0.2658  1.5261
 4556TIP3   OH235158   2.737   3.887  15.826  0.1277  0.3803 -0.0371
 4556TIP3    H135159   2.771   3.849  15.745 -0.8341  0.2145 -0.3755
 4556TIP3    H235160   2.680   3.958  15.796  1.5637  1.8276  0.5700
 4557TIP3   OH235161   1.854   2.998  15.493 -0.7530  0.3693 -0.1702
 4557TIP3    H135162   1.804   2.996  15.411 -2.8083 -0.6403  1.0660
 4557TIP3    H235163   1.916   2.926  15.484 -4.4262 -3.1833  1.1716
 4558TIP3   OH235164   0.261   4.634  11.505 -0.2024 -0.2802  0.0131
 4558TIP3    H135165   0.326   4.704  11.503 -0.9884  0.4437 -1.2025
 4558TIP3    H235166   0.311   4.554  11.492  0.6072  0.1446  0.4968
 4559TIP3   OH235167   3.386   2.574  16.090 -0.0849 -0.5796  0.6233
 4559TIP3    H135168   3.443   2.649  16.106 -0.1575 -0.3742 -0.0541
 4559TIP3    H235169   3.297   2.608  16.102 -0.2113 -0.0722 -1.4913
 4560TIP3   OH235170   1.030   6.504   1.062 -0.0712 -0.7076 -0.2114
 4560TIP3    H135171   1.028   6.503   1.157  0.3654  1.4394 -0.1400
 4560TIP3    H235172   0.948   6.545   1.036  0.5946  0.3834 -0.6657
 4561TIP3   OH235173   3.570   0.458  13.239  0.4254  0.1208 -0.2057
 4561TIP3    H135174   3.629   0.469  13.314 -0.1850 -1.7832  0.6035
 4561TIP3    H235175   3.495   0.411  13.275 -0.6378  0.6500 -1.6759
 4562TIP3   OH235176   1.400   1.344  15.428  0.7537  0.6274  0.5229
 4562TIP3    H135177   1.393   1.314  15.519  0.3901 -0.3006  0.2001
 4562TIP3    H235178   1.333   1.294  15.381  2.8427 -1.0873 -0.7934
 4563TIP3   OH235179   2.885   3.802   4.000 -0.2400  0.0489 -0.1027
 4563TIP3    H135180   2.891   3.802   4.096  1.5432 -0.7504 -0.2059
 4563TIP3    H235181   2.808   3.749   3.981  0.7316 -1.7162  0.8128
 4564TIP3   OH235182   2.604   2.489   3.159 -0.4114 -0.4553  0.2004
 4564TIP3    H135183   2.524   2.447   3.190  0.1742 -0.6879  1.3950
 4564TIP3    H235184   2.661   2.492   3.235  0.1513  1.0908 -0.2620
 4565TIP3   OH235185   1.223   5.249   5.675  0.1936 -0.1885 -0.2180
 4565TIP3    H135186   1.228   5.344   5.660 -2.0971 -0.2417 -1.6108
 4565TIP3    H235187   1.287   5.211   5.615 -0.6145  0.3499 -1.4463
 4566TIP3   OH235188   1.703   2.434  12.217  0.0025  1.0647  0.3591
 4566TIP3    H135189   1.609   2.426  12.232  0.3391 -2.8020  0.8010
 4566TIP3    H235190   1.740   2.446  12.305  0.2449 -1.6999  0.6726
 4567TIP3   OH235191   3.740   1.259   4.503  0.3033 -1.0435  0.1159
 4567TIP3    H135192   3.816   1.235   4.556  0.0040 -0.2484  0.9073
 4567TIP3    H235193   3.720   1.179   4.454  0.4481 -1.8618  1.3576
 4568TIP3   OH235194   4.054   4.975   2.065 -0.7325 -0.1847  0.3422
 4568TIP3    H135195   3.968   4.944   2.093 -1.0423  0.3420 -0.0151
 4568TIP3    H235196   4.100   4.896   2.036 -0.8469 -0.5637  1.1721
 4569TIP3   OH235197   3.510   6.395  13.229  0.0773  0.4652 -0.2271
 4569TIP3    H135198   3.589   6.445  13.210  0.3737 -0.0139 -0.2513
 4569TIP3    H235199   3.514   6.320  13.169 -0.1700  0.1989  0.0893
 4570TIP3   OH235200   5.191   6.037  11.676 -0.4679 -0.3646 -0.1749
 4570TIP3    H135201   5.147   6.036  11.591  3.6347  0.0243 -2.4232
 4570TIP3    H235202   5.198   5.945  11.701  1.0412 -0.7297 -1.8170
 4571TIP3   OH235203   2.319   6.650   5.085  0.9369  0.5083  0.7730
 4571TIP3    H135204   2.302   6.557   5.099 -1.0592  0.6741 -0.2246
 4571TIP3    H235205   2.307   6.691   5.171 -2.2645  0.3459  0.4865
 4572TIP3   OH235206   0.939   4.040  16.293  0.4863  0.3861 -0.6831
 4572TIP3    H135207   0.847   4.025  16.271 -0.2534  2.2089  1.0156
 4572TIP3    H235208   0.937   4.090  16.375  3.0197 -0.4296 -0.0603
 4573TIP3   OH235209   2.561   1.063  12.754  0.1146 -0.4409  0.4426
 4573TIP3    H135210   2.600   1.101  12.676 -2.4308  1.4472  0.0253
 4573TIP3    H235211   2.597   0.974  12.758  1.0035 -0.2478 -2.3380
 4574TIP3   OH235212   1.083   4.738   3.775 -0.1455 -0.2781 -0.2210
 4574TIP3    H135213   1.045   4.709   3.858  0.9909  1.6990  1.0291
 4574TIP3    H235214   1.142   4.667   3.749 -1.8068 -1.6758 -0.2513
 4575TIP3   OH235215   5.477   6.347   5.422 -0.3982  0.3711 -0.2251
 4575TIP3    H135216   5.390   6.313   5.402 -0.3912  0.5395 -0.5594
 4575TIP3    H235217   5.475   6.365   5.516 -0.6656  0.2034 -0.1983
 4576TIP3   OH235218   5.154   4.180   1.162  0.6382  0.4775  0.3002
 4576TIP3    H135219   5.125   4.119   1.094  2.6578 -1.1577  0.8305
 4576TIP3    H235220   5.246   4.157   1.176  0.4603  1.2824  3.0471
 4577TIP3   OH235221   1.636   0.022   1.902  0.0824 -0.1858 -0.3264
 4577TIP3    H135222   1.631   0.057   1.813 -0.5583 -0.8793 -0.5669
 4577TIP3    H235223   1.665  -0.068   1.891 -1.8313 -0.8727  0.0140
 4578TIP3   OH235224   1.609   5.022  13.499  0.6429  0.4687  0.2525
 4578TIP3    H135225   1.530   5.035  13.446  0.2171 -1.3966  0.3911
 4578TIP3    H235226   1.659   5.103  13.488 -0.4082  0.9236 -1.3472
 4579TIP3   OH235227   4.705   5.222  16.226  0.0131 -0.3599  0.6969
 4579TIP3    H135228   4.661   5.191  16.305 -1.6840 -1.0462 -0.4834
 4579TIP3    H235229   4.633   5.245  16.166  1.2555  1.8812  0.0145
 4580TIP3   OH235230   6.759   5.899   3.221 -0.1973  0.2594  0.3944
 4580TIP3    H135231   6.742   5.841   3.147 -1.6445 -0.3945  1.2214
 4580TIP3    H235232   6.757   5.987   3.183  0.5843 -0.1377 -0.6016
 4581TIP3   OH235233   6.530   2.455   4.878  0.3107  0.5123  0.2492
 4581TIP3    H135234   6.505   2.370   4.912 -0.2722  0.4622 -0.2975
 4581TIP3    H235235   6.488   2.461   4.793 -0.5334  1.7864  0.7347
 4582TIP3   OH235236   3.046   0.513  12.057  0.8351  0.1751  0.0392
 4582TIP3    H135237   3.093   0.430  12.068  0.4512  0.0403  0.6489
 4582TIP3    H235238   2.992   0.499  11.979  0.2709 -0.3835  0.5266
 4583TIP3   OH235239   0.581   5.653   6.106  0.4258 -0.4124  0.2987
 4583TIP3    H135240   0.585   5.725   6.044 -2.4377 -0.0436  0.4329
 4583TIP3    H235241   0.617   5.689   6.187  0.6956  0.2883 -0.1288
 4584TIP3   OH235242   1.323   4.267   0.321 -0.4543 -0.3596 -0.2053
 4584TIP3    H135243   1.244   4.256   0.374  0.4801 -0.1248  1.2585
 4584TIP3    H235244   1.356   4.353   0.345 -0.3320  0.0058 -1.6281
 4585TIP3   OH235245   2.191   4.039   2.118 -0.1500  0.1313  0.3055
 4585TIP3    H135246   2.158   4.105   2.057 -0.0852  0.8282  1.0207
 4585TIP3    H235247   2.286   4.049   2.115 -0.1632  0.3733  0.7590
 4586TIP3   OH235248   5.252   0.248   4.780  0.1860 -0.2310  0.5141
 4586TIP3    H135249   5.244   0.338   4.748 -1.5168 -0.7730 -0.7015
 4586TIP3    H235250   5.273   0.257   4.872  0.2200  1.4184  0.3619
 4587TIP3   OH235251   0.195   2.758  14.185  0.0972 -0.2265  0.3718
 4587TIP3    H135252   0.166   2.841  14.149  0.0651 -1.0991 -1.6847
 4587TIP3    H235253   0.155   2.692  14.129  3.4981 -1.5324 -0.6366
 4588TIP3   OH235254   3.128   5.327   4.805  0.1312  0.4499  0.4840
 4588TIP3    H135255   3.176   5.306   4.725  0.6594  1.0870  0.6319
 4588TIP3    H235256   3.196   5.353   4.868 -0.2300 -0.5737  1.3076
 4589TIP3   OH235257   5.872   6.790  10.652  0.4001  0.1142 -0.0889
 4589TIP3    H135258   5.853   6.867  10.706 -2.0661 -0.0917 -0.6271
 4589TIP3    H235259   5.867   6.822  10.562 -0.2615 -0.6126 -0.3061
 4590TIP3   OH235260   4.623   2.560  10.834 -0.7037  0.4943  0.2360
 4590TIP3    H135261   4.614   2.652  10.856  1.1758  0.5720  0.7793
 4590TIP3    H235262   4.541   2.537  10.791 -0.9030  2.6024 -0.5601
 4591TIP3   OH235263   4.427   3.291   2.349 -0.2055  0.4857  0.0136
 4591TIP3    H135264   4.386   3.316   2.266 -0.8596  1.9064  0.7415
 4591TIP3    H235265   4.510   3.250   2.324 -0.9490 -0.1973 -1.3858
 4592TIP3   OH235266   1.774   0.146  12.558 -0.1213  0.2855  0.5303
 4592TIP3    H135267   1.860   0.106  12.563 -0.6631 -1.1006 -0.6864
 4592TIP3    H235268   1.714   0.072  12.550 -1.6543  1.1081  3.5639
 4593TIP3   OH235269   0.402   6.757   2.323  0.7650 -0.3477  0.1553
 4593TIP3    H135270   0.345   6.680   2.331 -0.5226  0.6012  0.3159
 4593TIP3    H235271   0.468   6.745   2.391  1.8847 -2.3953 -1.2496
 4594TIP3   OH235272   6.474   2.676   4.634  0.3623 -0.0402  0.0802
 4594TIP3    H135273   6.510   2.590   4.611 -0.7444 -0.1111 -1.4682
 4594TIP3    H235274   6.381   2.670   4.612  0.2345  1.5011  0.1243
 4595TIP3   OH235275   0.920   1.706  14.671 -0.6193  0.6222  0.0210
 4595TIP3    H135276   0.845   1.678  14.723 -0.0194 -0.7544  0.1637
 4595TIP3    H235277   0.915   1.654  14.590  0.6122 -0.0593  0.3640
 4596TIP3   OH235278   1.867   6.072   2.967  0.3403 -0.4139  0.6893
 4596TIP3    H135279   1.900   6.079   2.878  0.7026 -0.7962  0.7934
 4596TIP3    H235280   1.921   6.005   3.008 -1.1332 -1.7086  0.5806
 4597TIP3   OH235281   2.437   3.057   1.824  0.0901  0.0466 -0.3476
 4597TIP3    H135282   2.511   3.001   1.801  0.8758  0.9726 -0.0823
 4597TIP3    H235283   2.449   3.075   1.918  0.5087  1.6576 -0.7029
 4598TIP3   OH235284   0.441   5.262  16.544 -0.2634 -1.2876  0.6885
 4598TIP3    H135285   0.451   5.335  16.604 -1.0935 -0.6354  0.0360
 4598TIP3    H235286   0.527   5.253  16.503 -0.2369 -0.5147  0.5766
 4599TIP3   OH235287   5.749   3.969   4.335 -0.3487 -0.3612 -0.4094
 4599TIP3    H135288   5.817   3.902   4.332 -0.2713 -0.2998  0.0363
 4599TIP3    H235289   5.758   4.009   4.421  1.0283  1.7325 -1.5022
 4600TIP3   OH235290   2.322   3.500  16.533  0.5217  0.3416 -0.3147
 4600TIP3    H135291   2.319   3.439  16.460 -0.1660 -1.1464  0.9272
 4600TIP3    H235292   2.412   3.534  16.532  1.1745 -1.3648 -0.4802
 4601TIP3   OH235293   3.420   3.090   5.110 -0.0190  0.2336 -0.9174
 4601TIP3    H135294   3.474   3.112   5.034 -1.9972  2.5254 -1.7031
 4601TIP3    H235295   3.451   3.148   5.179 -1.4114  1.5348 -1.3619
 4602TIP3   OH235296   2.174   4.883  13.173  0.3565 -0.1005 -0.2185
 4602TIP3    H135297   2.092   4.907  13.216 -0.0106  0.1191 -1.0275
 4602TIP3    H235298   2.150   4.812  13.113  1.3995 -2.4409  2.0294
 4603TIP3   OH235299   5.098   3.736  13.200 -0.0707 -0.4833 -0.6068
 4603TIP3    H135300   5.140   3.667  13.251  1.3903  0.7494 -0.1018
 4603TIP3    H235301   5.122   3.817  13.245 -1.3174  0.3964 -1.4991
 4604TIP3   OH235302   4.824   6.080  12.645 -0.0929 -0.6495 -0.0146
 4604TIP3    H135303   4.740   6.106  12.607 -0.1042  1.0124  1.0936
 4604TIP3    H235304   4.835   5.989  12.618 -1.2361 -0.2498 -1.9448
 4605TIP3   OH235305   5.018   1.583  11.815  0.0314  0.0300  0.4602
 4605TIP3    H135306   4.955   1.520  11.849  0.2463 -0.4475 -0.0033
 4605TIP3    H235307   5.037   1.552  11.726 -0.0389  0.8848  0.1412
 4606TIP3   OH235308   3.011   6.645  14.175  0.8955 -0.5019 -0.5626
 4606TIP3    H135309   2.995   6.615  14.265  0.3324  0.8837 -0.1907
 4606TIP3    H235310   2.953   6.590  14.121  0.1154 -0.3092  0.0736
 4607TIP3   OH235311   3.145   2.696   4.681 -0.5576 -0.0269 -0.1111
 4607TIP3    H135312   3.137   2.775   4.627 -1.0793 -0.7390 -1.0989
 4607TIP3    H235313   3.175   2.628   4.620  0.4117 -0.4744  0.8427
 4608TIP3   OH235314   3.367   0.333  13.371  0.0675 -0.1045  0.2219
 4608TIP3    H135315   3.372   0.305  13.462  0.1307  0.9032  0.5348
 4608TIP3    H235316   3.343   0.254  13.322 -0.5941 -0.5053  1.1866
 4609TIP3   OH235317   4.740   2.510   2.682  0.5471  0.0809  0.6531
 4609TIP3    H135318   4.807   2.442   2.684  0.9217  0.3385 -1.6479
 4609TIP3    H235319   4.677   2.481   2.617 -1.4243  0.0273  2.5219
 4610TIP3   OH235320   3.056   6.177   0.293 -0.1497 -0.2663 -0.1387
 4610TIP3    H135321   3.073   6.083   0.298 -1.4347 -0.4696  0.8033
 4610TIP3    H235322   3.074   6.200   0.202  0.7067 -1.3088 -0.2485
 4611TIP3   OH235323   1.489   2.178   5.935 -0.5495 -0.1442  0.3626
 4611TIP3    H135324   1.445   2.255   5.900 -0.2611 -0.0462  0.2097
 4611TIP3    H235325   1.492   2.116   5.863 -0.7642 -0.2914  0.4796
 4612TIP3   OH235326   1.229   4.008   1.934 -0.6505  0.0837  0.3980
 4612TIP3    H135327   1.298   4.044   1.989 -0.4309 -0.7051  0.6339
 4612TIP3    H235328   1.258   4.026   1.844  0.3929 -1.2111  0.4628
 4613TIP3   OH235329   4.815   0.886  15.863  0.3661 -0.3724 -0.2909
 4613TIP3    H135330   4.733   0.912  15.904  1.3060  0.5199  1.0588
 4613TIP3    H235331   4.797   0.890  15.769 -1.5642 -1.6634  0.0037
 4614TIP3   OH235332   5.546   5.099  13.994  0.3469 -0.3729 -0.5676
 4614TIP3    H135333   5.588   5.128  13.913  2.1797 -0.2593  0.3883
 4614TIP3    H235334   5.532   5.005  13.982 -0.3966 -0.1513 -1.4446
 4615TIP3   OH235335   3.129   5.286   0.263 -0.2314  0.1564 -0.2719
 4615TIP3    H135336   3.145   5.217   0.198 -3.8467  0.9213 -2.1034
 4615TIP3    H235337   3.190   5.356   0.238 -0.2524 -0.3158 -1.7054
 4616TIP3   OH235338   6.260   2.682  12.556  0.2218 -0.5565  1.0284
 4616TIP3    H135339   6.257   2.593  12.522  0.2716 -0.4287  0.6773
 4616TIP3    H235340   6.329   2.724  12.505  0.1442 -0.2971  1.1359
 4617TIP3   OH235341   1.074   3.421  12.552 -0.7593  0.4171 -0.2037
 4617TIP3    H135342   1.098   3.395  12.463 -0.9979  0.9296 -0.4201
 4617TIP3    H235343   1.134   3.372  12.608 -0.4396  0.2826 -0.6554
 4618TIP3   OH235344   2.968   4.944   2.623 -0.7036  0.1353  0.1187
 4618TIP3    H135345   3.000   4.889   2.551 -0.4437 -0.2616  0.5374
 4618TIP3    H235346   3.026   5.020   2.622 -0.8429  0.2401 -0.2369
 4619TIP3   OH235347   3.358   4.997  11.340 -0.3206 -0.1556 -0.4353
 4619TIP3    H135348   3.325   5.033  11.258 -0.4675 -0.3618 -0.4631
 4619TIP3    H235349   3.426   5.059  11.366 -0.2933 -0.0731 -0.6963
 4620TIP3   OH235350   4.580   6.339   3.609  0.2998 -0.2588 -0.1153
 4620TIP3    H135351   4.625   6.322   3.692  1.2225  1.6531 -0.1890
 4620TIP3    H235352   4.544   6.254   3.583 -0.1028 -0.8661  2.3005
 4621TIP3   OH235353   3.154   4.188   1.127 -0.4886 -0.0480  0.5286
 4621TIP3    H135354   3.093   4.121   1.157 -0.6299  0.1692  0.7273
 4621TIP3    H235355   3.196   4.150   1.049 -0.0492 -0.6517  1.0574
 4622TIP3   OH235356   0.832   1.318  13.979 -0.4043 -0.7270  0.0193
 4622TIP3    H135357   0.909   1.374  13.980 -0.6494 -0.3773 -0.4859
 4622TIP3    H235358   0.759   1.378  13.961 -0.8791 -0.9495  1.1832
 4623TIP3   OH235359   5.122   1.230   5.930  0.0473  0.8603  0.0198
 4623TIP3    H135360   5.098   1.317   5.899 -0.7516  0.4388 -0.5673
 4623TIP3    H235361   5.050   1.173   5.900  0.4450  0.0468  0.5965
 4624TIP3   OH235362   2.586   1.347  11.317 -0.4426 -0.2294 -0.5560
 4624TIP3    H135363   2.566   1.350  11.223 -1.0080 -1.0057 -0.4633
 4624TIP3    H235364   2.551   1.263  11.346  1.0889 -0.6832  0.0376
 4625TIP3   OH235365   6.239   1.330   4.667  0.5486 -0.1727  0.0830
 4625TIP3    H135366   6.295   1.259   4.698  1.5412  0.1081 -1.0287
 4625TIP3    H235367   6.187   1.355   4.743  0.0461 -2.2153  0.4531
 4626TIP3   OH235368   2.267   3.762  14.913  0.2712  0.6388 -0.0603
 4626TIP3    H135369   2.324   3.712  14.972 -0.6094  1.4055  1.4834
 4626TIP3    H235370   2.223   3.825  14.970 -2.0091  0.1831 -1.2482
 4627TIP3   OH235371   4.461   0.413   4.697  0.0504 -0.2962 -0.4815
 4627TIP3    H135372   4.508   0.373   4.624 -0.4210  0.5160 -1.2393
 4627TIP3    H235373   4.387   0.354   4.713 -0.3612 -0.0043 -1.2706
 4628TIP3   OH235374   5.377   6.564  12.211 -0.8213 -0.0465 -0.0528
 4628TIP3    H135375   5.468   6.593  12.217  0.5299 -2.9266 -4.2870
 4628TIP3    H235376   5.373   6.486  12.266 -0.9524  0.4810  0.6950
 4629TIP3   OH235377   1.909   1.480   2.383  0.4430  0.3019 -0.2993
 4629TIP3    H135378   1.856   1.542   2.433 -2.0767 -0.5785 -1.7960
 4629TIP3    H235379   1.846   1.421   2.343  2.6369 -1.3964 -1.3538
 4630TIP3   OH235380   0.141   5.388   5.556  0.0703 -0.3214  0.1396
 4630TIP3    H135381   0.199   5.363   5.484 -0.8304 -0.1996 -0.6344
 4630TIP3    H235382   0.099   5.306   5.582 -1.2924  0.0027 -0.9853
 4631TIP3   OH235383   5.197   5.770   1.845 -0.8265 -0.4780  0.1899
 4631TIP3    H135384   5.174   5.699   1.906  0.1431 -1.2955 -0.3787
 4631TIP3    H235385   5.286   5.749   1.817 -0.7364  0.6893 -0.3926
 4632TIP3   OH235386   0.920   4.968  16.884 -0.4547  0.0771  0.2617
 4632TIP3    H135387   0.932   4.891  16.939  0.2888  0.6100  0.8431
 4632TIP3    H235388   0.965   4.946  16.802  2.0402  0.8879  1.3603
 4633TIP3   OH235389   4.970   5.824   4.048  0.3256  0.6624 -0.0448
 4633TIP3    H135390   5.056   5.784   4.053 -1.0383 -2.4166 -0.0051
 4633TIP3    H235391   4.960   5.848   3.956 -0.1326 -2.2838 -0.8250
 4634TIP3   OH235392   6.109   4.046   6.250 -0.5263  0.2590 -0.0913
 4634TIP3    H135393   6.028   4.063   6.203  0.3414  2.5877 -0.8060
 4634TIP3    H235394   6.176   4.041   6.181  0.2559  0.3591  0.6505
 4635TIP3   OH235395   0.531   5.046   2.973 -0.4807 -0.5191  0.3239
 4635TIP3    H135396   0.470   4.972   2.975 -2.0438  0.7149 -0.8944
 4635TIP3    H235397   0.515   5.092   3.056  0.7061 -1.6622  1.2247
 4636TIP3   OH235398   1.392   2.390   0.479  0.8295  0.5501  0.0125
 4636TIP3    H135399   1.361   2.324   0.418  3.1281  0.5061 -1.1517
 4636TIP3    H235400   1.336   2.466   0.464  0.7978  0.2228 -1.5088
 4637TIP3   OH235401   5.890   6.727   4.565  0.6403  0.5208  0.6153
 4637TIP3    H135402   5.853   6.689   4.645  2.9966 -1.5701  0.7531
 4637TIP3    H235403   5.825   6.707   4.497 -0.7026  1.0741  1.7133
 4638TIP3   OH235404   6.303   2.249  10.713 -0.2717 -0.3991  0.2604
 4638TIP3    H135405   6.287   2.343  10.705 -0.3975 -0.6167 -2.8225
 4638TIP3    H235406   6.378   2.233  10.655 -0.4244 -2.2269  0.5543
 4639TIP3   OH235407   2.465   5.776   2.704  0.7644 -0.4558  0.1931
 4639TIP3    H135408   2.530   5.749   2.639 -1.4136 -3.3858 -0.8328
 4639TIP3    H235409   2.491   5.730   2.784  0.5123 -0.8536  0.0460
 4640TIP3   OH235410   6.783   3.266  16.483 -0.5582  0.0648  0.4016
 4640TIP3    H135411   6.735   3.347  16.502 -0.0245  0.0542  1.8794
 4640TIP3    H235412   6.717   3.197  16.491 -0.8944  0.2980 -0.3225
 4641TIP3   OH235413   5.020   1.881   1.121  0.1457 -0.3824  0.0852
 4641TIP3    H135414   5.073   1.869   1.200 -2.3240 -0.1240  1.8341
 4641TIP3    H235415   4.944   1.931   1.150 -0.1300  0.9416 -2.7741
 4642TIP3   OH235416   2.542   0.902   1.294  0.2325  0.1858  0.1300
 4642TIP3    H135417   2.634   0.915   1.270  0.2028 -2.1922 -1.5301
 4642TIP3    H235418   2.545   0.838   1.366 -0.1671 -1.7161 -1.4870
 4643TIP3   OH235419   3.696   0.152  15.293 -0.5282 -0.2319 -0.8108
 4643TIP3    H135420   3.756   0.185  15.359 -0.4711  2.5851 -2.2210
 4643TIP3    H235421   3.750   0.097  15.236 -0.0184 -0.4222 -0.1487
 4644TIP3   OH235422   1.543   1.393   1.474 -0.1254 -0.3925 -0.1102
 4644TIP3    H135423   1.606   1.341   1.424  0.4090 -1.4853  1.6711
 4644TIP3    H235424   1.491   1.329   1.522  0.7327  0.6886  2.3471
 4645TIP3   OH235425   6.205   6.060  11.102 -0.1683  0.0171  1.2044
 4645TIP3    H135426   6.242   6.062  11.013 -3.7815  0.4695 -0.3682
 4645TIP3    H235427   6.255   5.992  11.147  0.1792 -1.8687 -1.9065
 4646TIP3   OH235428   1.335   4.982   0.211 -0.0621 -0.2192  0.0805
 4646TIP3    H135429   1.294   4.900   0.186  0.7316 -0.5654 -0.1137
 4646TIP3    H235430   1.409   4.956   0.266  0.7450  0.3031 -0.7340
 4647TIP3   OH235431   2.249   3.931   3.003  0.4345 -0.4508  0.1197
 4647TIP3    H135432   2.265   4.009   2.951 -0.7111  1.4107  2.4648
 4647TIP3    H235433   2.332   3.884   3.002  0.9985  0.5385 -1.6939
 4648TIP3   OH235434   4.369   2.901  15.751 -0.0175 -0.2064  0.0344
 4648TIP3    H135435   4.428   2.977  15.745  1.1280 -0.9607  1.4131
 4648TIP3    H235436   4.345   2.896  15.843 -0.5904 -1.1463 -0.1561
 4649TIP3   OH235437   3.663   6.291  12.103 -0.4967  0.6079 -0.2800
 4649TIP3    H135438   3.617   6.361  12.149 -0.0491 -0.2559  1.5350
 4649TIP3    H235439   3.750   6.289  12.143 -0.7704 -1.5032  0.2768
 4650TIP3   OH235440   4.084   5.496   2.819 -0.6253  0.5509 -0.2503
 4650TIP3    H135441   4.122   5.565   2.873 -0.1999 -0.2850  0.5332
 4650TIP3    H235442   4.154   5.432   2.810 -1.1040  0.0974 -0.7414
 4651TIP3   OH235443   3.864   2.113  15.417 -0.2302  0.3859  0.2442
 4651TIP3    H135444   3.771   2.111  15.438 -0.3692 -0.7827 -0.4799
 4651TIP3    H235445   3.867   2.138  15.325  0.0086 -2.8323 -0.6713
 4652TIP3   OH235446   6.008   2.902  13.007  0.1465 -0.0768 -0.5834
 4652TIP3    H135447   6.076   2.949  13.055 -2.0720  0.4489  2.1526
 4652TIP3    H235448   5.973   2.968  12.946  0.4029  0.3440 -0.2836
 4653TIP3   OH235449   1.485   2.961   6.650 -0.1970 -0.0200 -0.3288
 4653TIP3    H135450   1.525   3.031   6.600  1.0071 -0.3593  0.1524
 4653TIP3    H235451   1.550   2.891   6.651  0.5194  0.6087  3.1659
 4654TIP3   OH235452   3.486   2.683  13.619 -0.1578 -0.0109 -0.1661
 4654TIP3    H135453   3.540   2.697  13.541 -0.3411  0.7387 -0.1613
 4654TIP3    H235454   3.539   2.626  13.675  1.0865  1.5627  0.2959
 4655TIP3   OH235455   3.531   1.829   5.179 -0.1501  0.2492  0.1728
 4655TIP3    H135456   3.443   1.810   5.210  0.4240 -2.2634  0.4200
 4655TIP3    H235457   3.589   1.785   5.242  1.2693  1.5680 -0.1740
 4656TIP3   OH235458   3.855   2.025  13.660 -0.4940 -0.0223 -0.2869
 4656TIP3    H135459   3.904   1.991  13.586  1.9662 -0.4331  1.4834
 4656TIP3    H235460   3.904   2.102  13.689 -0.7842 -0.5001  1.5771
 4657TIP3   OH235461   0.229   2.181   4.672 -0.2045  0.2582 -0.0470
 4657TIP3    H135462   0.183   2.135   4.602  0.2538  1.1629 -0.9529
 4657TIP3    H235463   0.189   2.267   4.676  1.5874  1.1728 -1.0563
 4658TIP3   OH235464   4.192   6.434  10.650 -0.1998 -0.3335 -0.2214
 4658TIP3    H135465   4.111   6.383  10.648 -0.0828 -0.5974  1.2703
 4658TIP3    H235466   4.238   6.408  10.570 -1.7822  0.1710 -1.3117
 4659TIP3   OH235467   3.628   6.196   5.657 -0.2367 -0.4592  0.2098
 4659TIP3    H135468   3.600   6.171   5.745  0.6249 -0.5676  0.4614
 4659TIP3    H235469   3.715   6.234   5.669 -0.8142  1.0776 -0.3997
 4660TIP3   OH235470   1.689   2.726   2.619  0.5782  0.5357  0.1193
 4660TIP3    H135471   1.685   2.820   2.604  1.6078  0.1197 -3.2301
 4660TIP3    H235472   1.743   2.716   2.698  0.2091  2.7457  0.6656
 4661TIP3   OH235473   3.724   0.036   0.207  0.7614 -0.1851 -0.6911
 4661TIP3    H135474   3.657   0.025   0.140 -1.6557  1.1734  1.4209
 4661TIP3    H235475   3.751   0.128   0.200 -2.0139  0.9708  2.3360
 4662TIP3   OH235476   6.188   0.928  16.323 -0.2394 -0.0800 -0.4856
 4662TIP3    H135477   6.138   0.847  16.311 -0.0656 -0.5765  1.8770
 4662TIP3    H235478   6.270   0.900  16.364 -0.1984  1.2837  0.3953
 4663TIP3   OH235479   4.784   2.560   4.367 -0.1435  0.2214 -0.3418
 4663TIP3    H135480   4.736   2.513   4.299  0.7511 -0.6975 -0.3575
 4663TIP3    H235481   4.787   2.651   4.337 -0.9657  0.0880 -0.8362
 4664TIP3   OH235482   4.498   4.376  13.110 -0.2170  0.0169 -0.7201
 4664TIP3    H135483   4.408   4.398  13.086  0.3370  1.5543 -1.4388
 4664TIP3    H235484   4.552   4.428  13.051  1.1639 -2.0845 -1.3557
 4665TIP3   OH235485   5.188   6.712  13.863 -0.5022 -0.3514 -0.8741
 4665TIP3    H135486   5.249   6.652  13.905  0.4351  0.3988 -1.1318
 4665TIP3    H235487   5.205   6.703  13.769 -0.0139  0.6560 -0.8913
 4666TIP3   OH235488   3.288   5.180  11.139  0.4990  0.1566 -0.2400
 4666TIP3    H135489   3.196   5.167  11.165  0.9379 -0.4938  1.0092
 4666TIP3    H235490   3.295   5.137  11.054 -0.2536 -0.1426 -0.1544
 4667TIP3   OH235491   5.462   1.336  15.051 -0.4365  0.5284  0.2255
 4667TIP3    H135492   5.420   1.345  14.966 -1.4065  1.8265  0.8178
 4667TIP3    H235493   5.397   1.367  15.114  0.6712  0.6535  1.3477
 4668TIP3   OH235494   4.263   2.795   2.807 -0.3402  0.2255 -0.7116
 4668TIP3    H135495   4.205   2.764   2.737  0.0263 -2.5513  0.1359
 4668TIP3    H235496   4.260   2.725   2.873  0.7558  1.9373  1.2322
 4669TIP3   OH235497   4.087   1.613   1.223 -0.1808  0.4724  0.0053
 4669TIP3    H135498   4.105   1.666   1.144 -1.1594  1.5113  0.4667
 4669TIP3    H235499   4.019   1.662   1.269  0.1560 -0.3072  1.3373
 4670TIP3   OH235500   2.320   3.230   5.416 -0.0810 -0.3313 -0.2512
 4670TIP3    H135501   2.356   3.261   5.333  1.8581  1.6312  1.2512
 4670TIP3    H235502   2.288   3.142   5.397 -0.4788  0.4022 -3.2692
 4671TIP3   OH235503   0.456   0.037   3.824  0.8016  0.5165 -0.1330
 4671TIP3    H135504   0.479   0.063   3.735  2.1530  2.4489  0.7423
 4671TIP3    H235505   0.524   0.075   3.879 -0.7783  0.5571  1.8826
 4672TIP3   OH235506   4.528   6.597   4.428  0.7304  0.0183 -0.5253
 4672TIP3    H135507   4.555   6.511   4.458 -1.4282 -0.6499 -0.3966
 4672TIP3    H235508   4.464   6.580   4.359 -0.5948  1.5080  0.2967
 4673TIP3   OH235509   2.244   0.202   0.030  0.2919  0.4266 -0.0854
 4673TIP3    H135510   2.261   0.149   0.108 -0.1484 -0.3238 -0.4964
 4673TIP3    H235511   2.165   0.164  -0.008  0.2604  1.0646 -0.6640
 4674TIP3   OH235512   0.265   0.573   3.675 -0.4202  0.4091  0.1261
 4674TIP3    H135513   0.227   0.632   3.609 -0.0836 -0.4835 -0.8783
 4674TIP3    H235514   0.194   0.513   3.698  0.0333 -0.5658 -0.9447
 4675TIP3   OH235515   5.150   5.725  13.173  0.3100 -0.1915 -0.1285
 4675TIP3    H135516   5.230   5.677  13.153 -0.7895 -1.7670 -0.8873
 4675TIP3    H235517   5.180   5.806  13.216  2.2524 -1.0117  0.1147
 4676TIP3   OH235518   4.567   4.354  11.967  0.2647  0.1547 -0.3431
 4676TIP3    H135519   4.560   4.411  12.043 -0.7493 -0.6435  0.1769
 4676TIP3    H235520   4.608   4.274  12.000 -1.6539 -0.8193 -0.2669
 4677TIP3   OH235521   4.049   5.354  10.700 -0.7004 -0.3089 -0.9274
 4677TIP3    H135522   4.091   5.271  10.677  1.3336  0.7448 -1.2301
 4677TIP3    H235523   4.049   5.404  10.618  1.6536  1.4185  0.0439
 4678TIP3   OH235524   2.879   3.990  16.728 -0.5165  0.8282  0.0368
 4678TIP3    H135525   2.866   4.003  16.634 -0.0961 -0.6364 -0.2368
 4678TIP3    H235526   2.946   3.922  16.734  0.2090  1.6463  1.4107
 4679TIP3   OH235527   0.877   1.676   6.380 -0.4100  0.4310 -0.3361
 4679TIP3    H135528   0.818   1.641   6.447  1.5925 -2.2692  0.1655
 4679TIP3    H235529   0.933   1.737   6.428 -0.5548  0.3505 -0.0606
 4680TIP3   OH235530   3.874   1.459  16.678  0.0438  0.5349 -0.5613
 4680TIP3    H135531   3.945   1.415  16.632 -2.0941 -1.5762 -1.9568
 4680TIP3    H235532   3.880   1.427  16.768  0.7356  0.2236 -0.7186
 4681TIP3   OH235533   4.230   4.624   2.797 -0.4404 -0.8748 -0.0776
 4681TIP3    H135534   4.180   4.544   2.812  0.3172 -1.1375  1.1564
 4681TIP3    H235535   4.319   4.602   2.825 -0.1748  0.3266  0.0552
 4682TIP3   OH235536   5.457   2.795  14.586  0.4456  0.3324 -0.0427
 4682TIP3    H135537   5.499   2.735  14.648 -1.2684  0.6999  1.4995
 4682TIP3    H235538   5.434   2.740  14.511 -1.1737 -0.9858  1.3853
 4683TIP3   OH235539   2.088   4.017   6.043  0.1361 -0.0115  0.2152
 4683TIP3    H135540   2.090   4.060   5.958 -1.4605  2.2022  1.2454
 4683TIP3    H235541   2.008   3.964   6.040  1.0189 -1.3375 -0.2962
 4684TIP3   OH235542   0.156   1.398   4.893 -0.2863  0.4258  0.0889
 4684TIP3    H135543   0.203   1.326   4.852 -2.5111 -0.7621 -0.4596
 4684TIP3    H235544   0.157   1.468   4.828  1.0801  0.5825  0.2596
 4685TIP3   OH235545   2.365   5.328  16.437  0.2047  0.1371 -0.0381
 4685TIP3    H135546   2.435   5.387  16.408  1.1385 -1.1387 -0.4274
 4685TIP3    H235547   2.410   5.260  16.487 -1.2928  1.8686  3.8471
 4686TIP3   OH235548   2.599   5.380   6.000 -0.3986 -0.1109  0.7187
 4686TIP3    H135549   2.598   5.460   6.053  1.3163  1.3378 -1.3469
 4686TIP3    H235550   2.521   5.331   6.028 -0.1490  1.1417  3.7143
 4687TIP3   OH235551   4.813   5.192  14.514 -0.2514  0.0235  0.4304
 4687TIP3    H135552   4.723   5.219  14.498  0.0046 -0.2350 -1.7188
 4687TIP3    H235553   4.809   5.096  14.516 -0.6090  0.0322  4.4542
 4688TIP3   OH235554   4.442   6.237  11.645  0.3268  0.1191 -0.1879
 4688TIP3    H135555   4.451   6.301  11.715  1.2879  0.3559 -0.5151
 4688TIP3    H235556   4.418   6.288  11.567 -1.8952 -0.2803  0.2182
 4689TIP3   OH235557   3.480   6.730  12.181 -0.1727  0.5178  0.1064
 4689TIP3    H135558   3.501   6.756  12.091  0.0945 -1.8722 -0.5418
 4689TIP3    H235559   3.511   6.804  12.234  0.8481  1.3974 -1.6509
 4690TIP3   OH235560   3.163   5.773  15.857 -0.2685 -0.1411 -0.3488
 4690TIP3    H135561   3.181   5.688  15.898 -1.8109  0.1741  1.0068
 4690TIP3    H235562   3.135   5.751  15.769  0.2682 -0.9906 -0.3174
 4691TIP3   OH235563   5.936   4.771   4.613 -0.3424  0.5412 -0.8418
 4691TIP3    H135564   5.938   4.680   4.585 -0.4157 -0.4183  2.1304
 4691TIP3    H235565   6.028   4.795   4.623 -0.3665  0.0135  0.7341
 4692TIP3   OH235566   1.883   2.356  13.365 -0.4020  0.6909  0.1504
 4692TIP3    H135567   1.865   2.447  13.344 -0.8085  1.0915  2.1458
 4692TIP3    H235568   1.960   2.334  13.313 -1.0795  1.7524 -1.3636
 4693TIP3   OH235569   3.789   5.211  11.895 -0.3767 -0.1969 -0.4852
 4693TIP3    H135570   3.770   5.129  11.939 -0.6425  0.9929  1.6806
 4693TIP3    H235571   3.704   5.252  11.883 -0.0595  0.7998  0.5558
 4694TIP3   OH235572   1.207   2.881   0.363  0.0381  0.1144 -1.0438
 4694TIP3    H135573   1.272   2.933   0.410  0.2538  0.0668 -1.2887
 4694TIP3    H235574   1.246   2.794   0.357 -0.3916 -0.1144 -0.4925
 4695TIP3   OH235575   4.197   4.565   3.657  0.1280  0.0901 -0.5697
 4695TIP3    H135576   4.107   4.586   3.681 -0.1655  0.9042 -2.3553
 4695TIP3    H235577   4.228   4.510   3.729 -1.3556  0.8946  0.7239
 4696TIP3   OH235578   6.324   5.993   0.512 -0.2225 -0.7733  0.2464
 4696TIP3    H135579   6.385   5.937   0.464 -1.8475 -1.7793 -0.6998
 4696TIP3    H235580   6.323   6.075   0.463  1.1780 -0.3328  0.9019
 4697TIP3   OH235581   3.529   3.330  12.813  0.0807  0.0809  0.6124
 4697TIP3    H135582   3.506   3.335  12.720  1.0830  0.5502  0.3786
 4697TIP3    H235583   3.483   3.403  12.854 -0.7566 -0.4194  0.5767
 4698TIP3   OH235584   5.293   1.753   0.673  0.1043 -0.0786  0.0302
 4698TIP3    H135585   5.355   1.826   0.684  0.0802  0.0782 -0.8301
 4698TIP3    H235586   5.227   1.768   0.740  1.6726 -0.9570  1.8303
 4699TIP3   OH235587   0.012   1.877   3.906 -0.6698 -0.5176  0.2549
 4699TIP3    H135588  -0.002   1.832   3.822  1.5433 -0.4231 -0.1787
 4699TIP3    H235589   0.107   1.883   3.915 -0.8957  2.6892  1.0487
 4700TIP3   OH235590   5.959   4.977  16.052  0.2350 -0.2292  0.7975
 4700TIP3    H135591   5.899   5.051  16.036  3.0807  1.7747 -1.0970
 4700TIP3    H235592   6.038   5.018  16.086  2.3689 -2.2662 -1.5678
 4701TIP3   OH235593   1.139   5.563  15.288 -0.1678 -0.2738  0.6485
 4701TIP3    H135594   1.087   5.515  15.222 -1.2629  0.3032  1.0771
 4701TIP3    H235595   1.190   5.626  15.237 -2.0327  1.1092  0.4407
 4702TIP3   OH235596   0.725   6.656  11.431  0.1991  0.5226  0.2372
 4702TIP3    H135597   0.736   6.747  11.402 -0.3830  0.7498  0.7171
 4702TIP3    H235598   0.684   6.663  11.517  3.5491 -0.0768  1.9928
 4703TIP3   OH235599   2.456   0.988  12.321 -0.2389 -0.4024  0.0136
 4703TIP3    H135600   2.537   0.944  12.346  0.5071  1.1188  0.3441
 4703TIP3    H235601   2.479   1.037  12.242 -0.0547  2.2850  1.6930
 4704TIP3   OH235602   1.945   1.720  16.986  0.3036 -0.2147  0.6047
 4704TIP3    H135603   1.989   1.757  16.909  0.7537  1.3049  1.5682
 4704TIP3    H235604   1.864   1.683  16.952  0.7747 -0.0992 -0.6892
 4705TIP3   OH235605   1.192   3.011   5.320 -0.2266  0.3747 -0.2594
 4705TIP3    H135606   1.241   3.057   5.252 -0.2440 -0.6537 -0.9765
 4705TIP3    H235607   1.207   3.062   5.399  0.5389  1.0736 -0.8524
 4706TIP3   OH235608   3.709   1.203  16.975  0.5838 -0.0335  0.2011
 4706TIP3    H135609   3.761   1.278  16.946 -0.3210  0.3726 -0.4230
 4706TIP3    H235610   3.755   1.127  16.942  0.4588  0.3511 -0.8827
 4707TIP3   OH235611   4.079   6.548   0.102  0.2859  0.0298  0.2525
 4707TIP3    H135612   4.041   6.461   0.090  1.6906 -0.6094  0.3744
 4707TIP3    H235613   4.169   6.540   0.070  0.5633  1.3228  0.6627
 4708TIP3   OH235614   3.179   1.364  11.120  0.3275 -0.1619  0.2581
 4708TIP3    H135615   3.252   1.305  11.140  0.5855 -0.2562 -0.9266
 4708TIP3    H235616   3.156   1.343  11.030 -1.9376 -0.9351  0.9978
 4709TIP3   OH235617   4.467   4.346   4.367 -0.0794  0.2425  0.2824
 4709TIP3    H135618   4.512   4.265   4.393 -0.8117 -0.1701  0.2529
 4709TIP3    H235619   4.378   4.336   4.400  0.0925  1.4671  1.1582
 4710TIP3   OH235620   0.257   6.744  12.425 -0.3151 -0.0907 -0.6733
 4710TIP3    H135621   0.255   6.815  12.360 -1.1027  1.4117  0.9593
 4710TIP3    H235622   0.299   6.783  12.502  0.3394 -1.7626 -0.1642
 4711TIP3   OH235623   2.663   6.424  13.053  0.0216 -0.5647  0.0839
 4711TIP3    H135624   2.656   6.514  13.084 -2.5544 -1.2287  1.5659
 4711TIP3    H235625   2.576   6.404  13.018  1.2789 -1.6790 -2.5946
 4712TIP3   OH235626   4.445   0.056   2.739  0.2994 -0.0724 -0.1325
 4712TIP3    H135627   4.499   0.026   2.812 -1.4260 -0.2054  1.1301
 4712TIP3    H235628   4.496   0.125   2.697  0.6965  1.0192  2.0992
 4713TIP3   OH235629   5.831   3.235  14.719 -0.0796 -0.2040  0.1276
 4713TIP3    H135630   5.862   3.325  14.715 -0.6376 -0.0551 -1.0431
 4713TIP3    H235631   5.885   3.194  14.787  0.8083  0.7599  0.0159
 4714TIP3   OH235632   5.559   5.950   6.196 -0.4848 -0.7997 -0.0900
 4714TIP3    H135633   5.474   5.908   6.207 -1.0917  0.0434 -1.4652
 4714TIP3    H235634   5.583   5.979   6.284 -1.8603 -0.5674  0.2186
 4715TIP3   OH235635   1.122   2.354  17.101 -0.2222  0.6021  0.0198
 4715TIP3    H135636   1.116   2.274  17.049 -0.7399  0.8215 -0.2563
 4715TIP3    H235637   1.120   2.425  17.037  1.2437  0.8132  0.1935
 4716TIP3   OH235638   6.307   3.541  15.037  0.1387 -0.2908  0.2919
 4716TIP3    H135639   6.374   3.600  15.073 -0.8910  0.2085  1.4292
 4716TIP3    H235640   6.297   3.473  15.104  1.0307 -1.5538 -0.8360
 4717TIP3   OH235641   1.838   2.375   5.522 -0.4868  0.4004 -0.0001
 4717TIP3    H135642   1.746   2.365   5.547  0.1040 -0.3212  1.9743
 4717TIP3    H235643   1.885   2.378   5.605  1.4803 -1.0704 -1.0316
 4718TIP3   OH235644   5.383   4.173  16.918  0.4751  0.3449 -0.0706
 4718TIP3    H135645   5.427   4.190  17.002  2.5049  2.5567 -1.5114
 4718TIP3    H235646   5.449   4.127  16.866 -0.5753 -0.5120 -0.6474
 4719TIP3   OH235647   2.944   5.717  13.050  0.2579  0.1527  0.4688
 4719TIP3    H135648   2.992   5.635  13.041  0.0298  0.1727 -0.9889
 4719TIP3    H235649   2.981   5.774  12.983 -2.1129  0.0184 -1.0025
 4720TIP3   OH235650   5.282   6.265  12.070 -0.8918 -0.0485 -0.4234
 4720TIP3    H135651   5.344   6.200  12.036 -0.3538  1.4040 -2.3105
 4720TIP3    H235652   5.318   6.349  12.042 -2.3708  0.9898  0.6980
 4721TIP3   OH235653   3.051   5.202   2.667 -0.5090  0.4200 -0.3496
 4721TIP3    H135654   3.115   5.265   2.633 -0.5758 -0.7320 -2.6790
 4721TIP3    H235655   3.089   5.171   2.750  2.1466 -0.5649 -1.8910
 4722TIP3   OH235656   5.964   5.786  10.456 -0.2219  0.2920 -0.0939
 4722TIP3    H135657   5.870   5.794  10.470  0.1676  2.2184  1.7744
 4722TIP3    H235658   6.001   5.860  10.504  2.3297 -1.1509  0.2529
 4723TIP3   OH235659   0.814   1.275  12.894  0.4903 -0.0546  0.4569
 4723TIP3    H135660   0.724   1.304  12.882 -0.0640 -1.2934  1.4484
 4723TIP3    H235661   0.849   1.266  12.806 -1.0847 -1.7400 -0.0345
 4724TIP3   OH235662   2.013   3.201  15.783 -0.1381  0.3464  0.1369
 4724TIP3    H135663   1.962   3.265  15.832  0.6117  2.0378 -1.2530
 4724TIP3    H235664   2.102   3.237  15.781  0.5292 -1.2317  0.2017
 4725TIP3   OH235665   1.272   5.101  13.765 -0.3072 -0.1438  0.5763
 4725TIP3    H135666   1.341   5.121  13.828  2.0040  0.3557 -2.0114
 4725TIP3    H235667   1.225   5.183  13.754  1.3569  0.6628 -0.7577
 4726TIP3   OH235668   2.986   6.532  16.506  0.4416 -0.0790 -0.4487
 4726TIP3    H135669   2.947   6.504  16.589  0.8472 -1.3211 -0.6604
 4726TIP3    H235670   3.077   6.554  16.529  0.6555 -0.7710 -0.6257
 4727TIP3   OH235671   6.564   4.199  13.360  0.1418 -0.1384  0.4081
 4727TIP3    H135672   6.553   4.294  13.363 -0.2683 -0.1103 -1.3073
 4727TIP3    H235673   6.653   4.186  13.327 -0.2405 -0.3339 -0.5735
 4728TIP3   OH235674   3.935   6.514  11.934 -0.2541 -0.5734  0.2744
 4728TIP3    H135675   4.006   6.471  11.887 -0.3745 -0.6131  0.1263
 4728TIP3    H235676   3.856   6.472  11.899 -0.3966  0.0998 -0.2206
 4729TIP3   OH235677   4.911   5.890  17.094 -0.1857  0.1914  0.3394
 4729TIP3    H135678   4.882   5.806  17.130  0.6219 -0.1890  0.1444
 4729TIP3    H235679   4.984   5.916  17.151  1.0875 -0.4064 -0.9679
 4730TIP3   OH235680   6.447   5.390  16.070 -0.0865 -0.5784  0.3132
 4730TIP3    H135681   6.443   5.470  16.017  1.1019  0.0908  1.1756
 4730TIP3    H235682   6.462   5.320  16.007  4.7600  0.5980 -0.0812
 4731TIP3   OH235683   6.758   4.512   5.566 -0.0089 -0.1008 -0.3802
 4731TIP3    H135684   6.688   4.531   5.627  0.2737  3.2230 -1.0349
 4731TIP3    H235685   6.718   4.454   5.501 -2.2169  1.8492 -0.8152
 4732TIP3   OH235686   1.689   3.544  16.885 -0.0230  0.7311  0.0587
 4732TIP3    H135687   1.783   3.542  16.902  0.3064  0.0894 -1.6850
 4732TIP3    H235688   1.682   3.546  16.789 -1.7762  1.1815  0.1745
 4733TIP3   OH235689   2.873   3.673   0.534 -0.2659  0.4069  0.6823
 4733TIP3    H135690   2.780   3.659   0.521 -0.0391  0.6702 -1.3877
 4733TIP3    H235691   2.879   3.756   0.581 -1.0768  0.1316  1.2843
 4734TIP3   OH235692   4.340   2.464   0.765  0.3756  0.3807 -0.0129
 4734TIP3    H135693   4.386   2.540   0.799  0.6868  0.6162 -0.9407
 4734TIP3    H235694   4.391   2.437   0.689 -0.3049 -0.1319 -0.2976
 4735TIP3   OH235695   4.909   3.188  16.602 -0.4419  0.3789  0.0166
 4735TIP3    H135696   4.956   3.147  16.530  1.2353 -1.1200  1.8878
 4735TIP3    H235697   4.971   3.252  16.637 -1.6373  1.8609 -0.4963
 4736TIP3   OH235698   4.205   6.342  15.674 -0.2161  0.6692 -0.0659
 4736TIP3    H135699   4.127   6.397  15.688 -0.4206 -0.0821  1.9331
 4736TIP3    H235700   4.190   6.265  15.729  1.5230  0.0814 -0.3889
 4737TIP3   OH235701   3.627   0.493   5.909  0.5476  0.2102 -0.5639
 4737TIP3    H135702   3.675   0.451   5.980  0.3845 -1.8006 -1.5933
 4737TIP3    H235703   3.693   0.506   5.840  0.0559 -0.7570 -1.2311
 4738TIP3   OH235704   6.684   4.555   5.256 -0.8138 -0.1669 -0.4611
 4738TIP3    H135705   6.641   4.486   5.206 -0.3161  0.6543 -2.0748
 4738TIP3    H235706   6.736   4.603   5.191  0.8484  0.1704  1.0584
 4739TIP3   OH235707   1.302   6.523   2.146  0.1473 -0.3754 -0.3270
 4739TIP3    H135708   1.330   6.449   2.092  0.4381  0.7149 -1.7260
 4739TIP3    H235709   1.273   6.589   2.082  0.7390  1.0426  0.8431
 4740TIP3   OH235710   6.065   4.311  13.351  0.0753 -0.5600 -0.3379
 4740TIP3    H135711   5.974   4.303  13.381 -0.0887  0.2858 -0.5762
 4740TIP3    H235712   6.075   4.243  13.285  0.1042 -1.7188  0.8357
 4741TIP3   OH235713   2.206   0.201   5.878 -0.1523 -0.2877  0.4833
 4741TIP3    H135714   2.274   0.148   5.918  0.1519 -0.2873 -0.0410
 4741TIP3    H235715   2.148   0.223   5.951  0.1683 -0.6459  0.8502
 4742TIP3   OH235716   1.923   0.037  14.855  0.4148  0.0271 -0.1398
 4742TIP3    H135717   1.993  -0.018  14.890 -1.2953 -0.6808  2.3468
 4742TIP3    H235718   1.926   0.023  14.760  1.9790 -1.9909  0.1723
 4743TIP3   OH235719   2.307   6.701   0.613  0.0238  0.5787 -0.1258
 4743TIP3    H135720   2.243   6.651   0.664  0.1621 -0.9306 -1.3841
 4743TIP3    H235721   2.374   6.726   0.676  0.0221 -0.9589  0.5000
 4744TIP3   OH235722   0.154   6.017   4.748 -0.7044 -0.1739  0.2049
 4744TIP3    H135723   0.127   5.927   4.766 -1.1927 -0.0219  0.2180
 4744TIP3    H235724   0.116   6.068   4.819 -0.0220 -0.0239  0.4671
 4745TIP3   OH235725   6.103   0.361  14.539 -0.8473  0.5141  0.0386
 4745TIP3    H135726   6.040   0.399  14.601 -2.9078  0.8438 -2.2123
 4745TIP3    H235727   6.057   0.359  14.455  1.8942  0.0400 -1.5144
 4746TIP3   OH235728   5.687   0.747  13.076 -0.4852 -0.8552  0.2670
 4746TIP3    H135729   5.665   0.801  13.152 -1.8700 -0.9668 -0.0445
 4746TIP3    H235730   5.616   0.683  13.070  0.2935 -1.6855 -0.3451
 4747TIP3   OH235731   5.515   5.352  13.515 -0.5942 -0.1660 -0.5112
 4747TIP3    H135732   5.500   5.342  13.421  0.1960  1.2525 -0.8120
 4747TIP3    H235733   5.516   5.447  13.528 -0.5032 -0.3573  0.8997
 4748TIP3   OH235734   3.100   2.357   3.717  0.1841 -0.2764  0.3405
 4748TIP3    H135735   3.155   2.307   3.657 -1.0408  0.1568 -1.1851
 4748TIP3    H235736   3.116   2.318   3.803  2.4009 -0.5309 -0.1697
 4749TIP3   OH235737   0.072   0.416  15.092  0.4753 -0.2927  0.0332
 4749TIP3    H135738   0.142   0.479  15.103  0.2604 -0.3816  2.1136
 4749TIP3    H235739   0.094   0.344  15.151 -0.0073 -1.5289 -1.2548
 4750TIP3   OH235740   5.311   0.436   1.018 -0.4133  0.3208  0.4689
 4750TIP3    H135741   5.312   0.345   1.048  1.9885  0.2007  0.1683
 4750TIP3    H235742   5.331   0.488   1.096 -0.4047  0.4688  0.3692
 4751TIP3   OH235743   6.027   2.021  15.238 -0.4056 -0.3318  0.4622
 4751TIP3    H135744   5.936   2.046  15.220 -0.3063  0.2428  0.7364
 4751TIP3    H235745   6.076   2.052  15.162 -0.6514 -1.9333 -0.3514
 4752TIP3   OH235746   4.092   3.625  11.030  0.0791 -0.9570 -0.0923
 4752TIP3    H135747   4.145   3.644  10.953 -0.3722 -0.4053 -0.2700
 4752TIP3    H235748   4.008   3.598  10.995  0.0632 -1.2776  0.1980
 4753TIP3   OH235749   5.168   6.085  11.395  0.6191  0.3582 -0.1360
 4753TIP3    H135750   5.170   6.151  11.326 -0.2069 -1.0232 -1.5257
 4753TIP3    H235751   5.093   6.029  11.373  0.5802 -0.3526  1.6555
 4754TIP3   OH235752   2.846   2.521   0.585  0.2347  0.0317 -0.1153
 4754TIP3    H135753   2.890   2.485   0.509 -1.0595 -0.2025 -0.7691
 4754TIP3    H235754   2.777   2.576   0.548 -0.0362  0.3735  0.8899
 4755TIP3   OH235755   5.574   1.424  14.436  0.0883  0.2105  0.1211
 4755TIP3    H135756   5.529   1.344  14.411 -0.1635  0.6790 -0.9255
 4755TIP3    H235757   5.550   1.488  14.369 -0.1786  1.3273  1.2572
 4756TIP3   OH235758   5.033   4.959   5.036  0.0020 -0.1994  0.2197
 4756TIP3    H135759   4.983   5.001   4.966 -0.5602  0.3028  0.9159
 4756TIP3    H235760   5.078   5.031   5.080 -0.6783 -0.3494  1.1894
 4757TIP3   OH235761   5.059   2.130  13.221 -0.3713 -0.5436 -0.2684
 4757TIP3    H135762   5.109   2.208  13.200 -1.8174  0.8660  1.3377
 4757TIP3    H235763   5.080   2.068  13.151  2.4175  0.5211 -0.4331
 4758TIP3   OH235764   6.708   1.565   2.703  0.0959 -0.0025  0.1769
 4758TIP3    H135765   6.661   1.611   2.633 -0.3722 -0.2472  0.3311
 4758TIP3    H235766   6.783   1.622   2.722 -0.1972  0.4452  0.0094
 4759TIP3   OH235767   0.589   5.888  14.350 -0.5062  0.4130  0.4447
 4759TIP3    H135768   0.671   5.846  14.326 -1.3728 -0.3570 -1.2654
 4759TIP3    H235769   0.547   5.826  14.410 -1.5454 -0.9936 -1.6651
 4760TIP3   OH235770   0.671   6.482  13.851  0.4804 -0.4690  0.0537
 4760TIP3    H135771   0.692   6.391  13.834  0.3294 -0.5257  0.1638
 4760TIP3    H235772   0.696   6.496  13.943 -1.0460 -0.8605  0.5428
 4761TIP3   OH235773   3.231   3.942   3.259 -0.4720 -0.0877  0.0616
 4761TIP3    H135774   3.227   3.870   3.321 -1.6670 -0.1620 -0.0973
 4761TIP3    H235775   3.160   4.001   3.286 -0.6697  0.1246 -0.9147
 4762TIP3   OH235776   2.810   4.248   2.587  0.1250  0.1745 -0.2647
 4762TIP3    H135777   2.894   4.207   2.566  0.3941  1.1447 -1.1341
 4762TIP3    H235778   2.745   4.190   2.548  0.4606  0.0540 -0.6560
 4763TIP3   OH235779   6.591   5.933   0.554  0.6536 -0.2550 -0.4282
 4763TIP3    H135780   6.601   5.873   0.628  2.5734  0.4172 -0.1097
 4763TIP3    H235781   6.545   6.009   0.590 -1.1043 -1.2005 -0.6530
 4764TIP3   OH235782   5.646   2.940   1.774  0.0992 -0.1096 -0.4091
 4764TIP3    H135783   5.679   2.967   1.859 -0.4422  1.2102 -0.5955
 4764TIP3    H235784   5.651   2.844   1.775 -0.8014 -0.1674  1.4721
 4765TIP3   OH235785   3.497   5.417   1.950  0.3315 -0.2158 -0.0748
 4765TIP3    H135786   3.442   5.495   1.943 -0.5329 -0.6161  1.7581
 4765TIP3    H235787   3.582   5.450   1.980  0.3314  0.1540 -0.4878
 4766TIP3   OH235788   4.112   3.286  12.006  0.2823 -0.0422  0.5775
 4766TIP3    H135789   4.124   3.381  11.997 -0.8461 -0.0370 -1.1110
 4766TIP3    H235790   4.027   3.277  12.048 -1.5492 -0.3193 -2.9720
 4767TIP3   OH235791   6.531   5.008  15.334  0.2930  0.4463 -0.0739
 4767TIP3    H135792   6.458   4.946  15.330  0.7961 -0.1234 -0.4771
 4767TIP3    H235793   6.605   4.956  15.366  0.4212  1.1216  0.7633
 4768TIP3   OH235794   5.087   0.627  11.478 -0.8161 -0.6986 -0.2616
 4768TIP3    H135795   5.097   0.575  11.557  2.9426 -1.5900 -1.2106
 4768TIP3    H235796   5.084   0.562  11.407  0.4969  0.2151 -1.1838
 4769TIP3   OH235797   4.468   6.237  10.587  0.3699  0.1457  0.2112
 4769TIP3    H135798   4.441   6.256  10.677  0.0596  0.5434  0.0407
 4769TIP3    H235799   4.554   6.196  10.596 -0.3869 -1.3485  0.7772
 4770TIP3   OH235800   5.914   2.802   4.445  0.3622  0.6742 -0.1068
 4770TIP3    H135801   5.881   2.873   4.501  1.5225  0.2685  1.1292
 4770TIP3    H235802   5.844   2.786   4.382 -1.2779  0.6428  1.6993
 4771TIP3   OH235803   4.667   0.293  16.028  0.1374  0.7835  0.1234
 4771TIP3    H135804   4.678   0.333  15.942 -1.6560 -2.1090 -1.5450
 4771TIP3    H235805   4.703   0.357  16.089  1.0365  3.1122 -2.7198
 4772TIP3   OH235806   5.487   0.464   3.256 -0.4126 -0.0799 -0.0011
 4772TIP3    H135807   5.454   0.549   3.230 -1.3405  0.1219  1.7252
 4772TIP3    H235808   5.522   0.425   3.176 -0.8934  1.5055 -0.9875
 4773TIP3   OH235809   0.424   6.313   4.020  0.2742  0.5183 -0.4731
 4773TIP3    H135810   0.358   6.338   3.956  0.4218 -0.7266 -1.1150
 4773TIP3    H235811   0.390   6.346   4.103  0.7081  3.3318 -1.3388
 4774TIP3   OH235812   6.082   6.637   2.273  0.2908 -0.4518  0.4184
 4774TIP3    H135813   6.033   6.715   2.296  0.0184 -0.1837 -1.0072
 4774TIP3    H235814   6.039   6.604   2.194  0.5474 -1.9035  0.8713
 4775TIP3   OH235815   4.484   1.832   5.730  0.4995 -0.2447  0.2290
 4775TIP3    H135816   4.473   1.797   5.642  1.5772 -0.3164  0.1190
 4775TIP3    H235817   4.550   1.775   5.770 -1.6467 -1.6724  1.8767
 4776TIP3   OH235818   0.340   4.946  11.013  0.3617 -0.3682  0.2812
 4776TIP3    H135819   0.287   4.935  10.934  0.2935  0.3361  0.2230
 4776TIP3    H235820   0.420   4.989  10.982  0.6454 -0.7383  0.4888
 4777TIP3   OH235821   4.343   0.797   6.152 -0.3385 -0.2003 -0.3064
 4777TIP3    H135822   4.285   0.733   6.194  1.3201 -0.6994  1.2494
 4777TIP3    H235823   4.409   0.817   6.218  0.7852  1.0058 -1.7674
 4778TIP3   OH235824   3.072   2.883   4.487  0.3630  0.4655 -0.4152
 4778TIP3    H135825   3.080   2.931   4.404  1.9258 -1.6969 -1.5958
 4778TIP3    H235826   3.012   2.811   4.467 -0.0395  0.5102  0.6186
 4779TIP3   OH235827   2.961   0.597  17.151  0.8681 -0.3492  0.2555
 4779TIP3    H135828   2.874   0.561  17.132  1.0158 -1.5701  1.7927
 4779TIP3    H235829   2.953   0.690  17.130 -1.1760 -0.2164  1.4353
 4780TIP3   OH235830   4.697   4.649  16.558 -0.1583 -0.0779  0.1362
 4780TIP3    H135831   4.643   4.670  16.482 -1.1582 -1.1708  0.5359
 4780TIP3    H235832   4.768   4.597  16.522 -1.1903 -1.4674  0.0931
 4781TIP3   OH235833   0.689   5.086  12.314 -0.1748  0.2743  0.3914
 4781TIP3    H135834   0.770   5.036  12.311 -0.6920 -0.5329 -0.5123
 4781TIP3    H235835   0.635   5.048  12.245 -1.4082  0.6528  1.1319
 4782TIP3   OH235836   5.202   2.140  13.766 -0.3163 -0.2134  0.5867
 4782TIP3    H135837   5.133   2.074  13.763 -1.8603  1.3564  0.8626
 4782TIP3    H235838   5.236   2.143  13.677  0.1355 -1.7647  0.7050
 4783TIP3   OH235839   3.790   4.190   5.774  0.1186 -0.2249 -0.2936
 4783TIP3    H135840   3.859   4.253   5.793  0.1170 -0.6729  1.3584
 4783TIP3    H235841   3.816   4.111   5.823 -1.6734 -0.3137  0.5671
 4784TIP3   OH235842   2.173   5.805  15.325  0.4219  0.0384 -0.3125
 4784TIP3    H135843   2.186   5.720  15.366  1.4331  1.2915  2.1256
 4784TIP3    H235844   2.100   5.793  15.265 -1.0257 -1.9425  1.7812
 4785TIP3   OH235845   4.070   2.565  13.223  0.1417 -0.1338  0.0803
 4785TIP3    H135846   4.140   2.552  13.286  0.4745 -1.0993 -0.4814
 4785TIP3    H235847   4.110   2.615  13.151 -0.2425  0.9890  0.6298
 4786TIP3   OH235848   4.435   1.872   4.630  0.2489 -0.1168 -0.0889
 4786TIP3    H135849   4.513   1.928   4.634  0.6592 -0.6550 -0.4948
 4786TIP3    H235850   4.435   1.825   4.713  0.9296 -0.8719 -0.5091
 4787TIP3   OH235851   3.269   0.519  14.238  0.0670  0.5303 -0.0399
 4787TIP3    H135852   3.176   0.504  14.222  0.2232 -0.7752  0.2237
 4787TIP3    H235853   3.273   0.558  14.325 -0.4830  3.9057 -1.4570
 4788TIP3   OH235854   3.318   3.040   5.814 -0.5393 -0.3154  0.0495
 4788TIP3    H135855   3.265   3.117   5.794  0.1779 -0.1275 -1.2061
 4788TIP3    H235856   3.284   2.972   5.755  1.8525  0.3503 -2.2088
 4789TIP3   OH235857   6.182   6.204   5.682 -0.3288  0.3039 -0.4003
 4789TIP3    H135858   6.245   6.156   5.628  1.2938 -0.9161  2.4483
 4789TIP3    H235859   6.130   6.136   5.725 -0.8829  1.1899  0.3534
 4790TIP3   OH235860   5.620   0.841   2.489  0.3340  0.0859 -0.1689
 4790TIP3    H135861   5.696   0.804   2.533 -0.4234 -0.3606  0.8007
 4790TIP3    H235862   5.638   0.830   2.396  0.3627 -2.3189  0.0742
 4791TIP3   OH235863   2.687   5.590   0.682  0.7622  0.1515 -0.3239
 4791TIP3    H135864   2.769   5.573   0.729  0.0531 -0.7715  0.6094
 4791TIP3    H235865   2.657   5.503   0.655 -0.7570  0.3134  0.7921
 4792TIP3   OH235866   3.515   1.325   5.511 -0.2268 -0.2678 -0.2216
 4792TIP3    H135867   3.576   1.318   5.585  0.5119  0.6538 -0.7304
 4792TIP3    H235868   3.528   1.244   5.462 -0.8108 -0.9417  0.7132
 4793TIP3   OH235869   4.704   2.750  11.811 -0.4128  0.7046 -0.5307
 4793TIP3    H135870   4.793   2.719  11.827 -0.1840  1.5342 -0.1921
 4793TIP3    H235871   4.713   2.814  11.740 -0.6371  1.3299  0.0007
 4794TIP3   OH235872   6.435   2.735  11.228 -0.3432  0.1165  0.0307
 4794TIP3    H135873   6.482   2.676  11.169 -1.2172  0.2088 -0.7721
 4794TIP3    H235874   6.344   2.703  11.227 -1.1445  2.3483 -1.5618
 4795TIP3   OH235875   2.788   2.867   0.831  0.1601 -0.5425 -0.1487
 4795TIP3    H135876   2.758   2.863   0.921 -1.4855  1.4913 -0.5643
 4795TIP3    H235877   2.726   2.813   0.782 -0.3141  0.2011 -0.3811
 4796TIP3   OH235878   6.544   2.784   3.758  0.0124  0.0070 -0.5951
 4796TIP3    H135879   6.618   2.732   3.789 -0.4635 -1.0176 -1.1633
 4796TIP3    H235880   6.469   2.750   3.806  0.0596  1.7703  0.7757
 4797TIP3   OH235881   5.530   1.199   3.792 -0.0656 -0.4319  0.4313
 4797TIP3    H135882   5.624   1.189   3.776  0.0169 -0.2739  0.7903
 4797TIP3    H235883   5.523   1.285   3.834 -0.3305 -0.6032  0.7351
 4798TIP3   OH235884   4.941   5.185  13.752  0.1125 -0.3020 -0.2684
 4798TIP3    H135885   5.004   5.244  13.710  0.7139  0.5892  1.8321
 4798TIP3    H235886   4.859   5.235  13.753  0.1776 -0.1969 -0.1094
 4799TIP3   OH235887   3.840   1.804  15.939  0.2563  0.0103 -0.1206
 4799TIP3    H135888   3.868   1.846  16.021 -0.3842 -0.1288  0.1770
 4799TIP3    H235889   3.773   1.741  15.967  0.0680 -0.0660 -0.7540
 4800TIP3   OH235890   2.572   0.913  10.982  0.1185 -0.0471 -0.5009
 4800TIP3    H135891   2.491   0.888  10.938 -0.8817  0.8384  0.8488
 4800TIP3    H235892   2.546   0.941  11.069  2.0599 -1.4583  0.5872
 4801TIP3   OH235893   4.615   6.752   2.231 -0.1717  0.2365 -0.4783
 4801TIP3    H135894   4.570   6.828   2.192 -0.2182  1.2603  1.4935
 4801TIP3    H235895   4.707   6.765   2.210 -0.0649  1.3375  0.5987
 4802TIP3   OH235896   2.881   0.925  11.645 -0.1411 -0.1793 -0.4996
 4802TIP3    H135897   2.785   0.931  11.639  0.0862  1.6998 -3.7038
 4802TIP3    H235898   2.911   1.014  11.626  2.2918 -1.1706 -1.5227
 4803TIP3   OH235899   5.545   4.084  12.887  0.2532  0.3078 -0.2215
 4803TIP3    H135900   5.621   4.058  12.837  1.6494  2.2740  0.8002
 4803TIP3    H235901   5.547   4.028  12.965  0.9452  0.6942  0.0419
 4804TIP3   OH235902   0.078   6.598   2.676  0.0593  0.7646 -0.4409
 4804TIP3    H135903   0.121   6.529   2.727 -0.8975  0.3991 -0.1343
 4804TIP3    H235904   0.123   6.678   2.703 -0.1493  0.5191  0.6582
 4805TIP3   OH235905   3.935   4.495   1.845  0.3959  0.0345  0.3765
 4805TIP3    H135906   4.010   4.519   1.791  0.2153  0.2116  0.2003
 4805TIP3    H235907   3.970   4.489   1.934  0.9636 -1.5618  0.0493
 4806TIP3   OH235908   2.730   3.708  14.114  0.0554  0.5316 -0.2009
 4806TIP3    H135909   2.672   3.655  14.060  0.9672 -1.8168  1.0424
 4806TIP3    H235910   2.698   3.696  14.203  2.1382 -0.4886  0.4569
 4807TIP3   OH235911   5.249   3.015   2.767 -0.1128 -0.3631  0.2830
 4807TIP3    H135912   5.188   3.082   2.800 -0.8406 -0.0739 -1.6230
 4807TIP3    H235913   5.297   3.059   2.697  1.6547 -0.8816  1.1474
 4808TIP3   OH235914   6.419   4.110   1.713  0.0635  0.4225  0.3735
 4808TIP3    H135915   6.481   4.142   1.648  0.3454 -0.3440  0.2611
 4808TIP3    H235916   6.459   4.131   1.797  0.3602  0.1415  0.3008
 4809TIP3   OH235917   5.142   4.428  14.012  0.4296 -0.2900 -0.4475
 4809TIP3    H135918   5.081   4.357  13.992 -0.6095  0.4679 -0.0203
 4809TIP3    H235919   5.181   4.451  13.927  0.2864 -0.9195 -0.6906
 4810TIP3   OH235920   3.115   3.575   3.128 -0.1553 -0.4490 -0.2121
 4810TIP3    H135921   3.102   3.659   3.171  0.4533 -0.8186  0.7016
 4810TIP3    H235922   3.042   3.520   3.158  0.2862 -0.7160  0.3845
 4811TIP3   OH235923   2.662   1.268  16.680 -0.3275  0.3434 -0.0552
 4811TIP3    H135924   2.618   1.277  16.596 -2.4676 -1.2789  0.8416
 4811TIP3    H235925   2.647   1.351  16.725 -2.0103  0.0232  0.0053
 4812TIP3   OH235926   0.451   4.283   1.318  0.3916  0.0622 -0.4646
 4812TIP3    H135927   0.413   4.205   1.277  1.7926 -0.6799 -0.3734
 4812TIP3    H235928   0.378   4.323   1.365  0.0650 -2.2489  1.0772
 4813TIP3   OH235929   5.803   1.372  13.077  0.3300 -1.3039 -0.0810
 4813TIP3    H135930   5.853   1.340  13.152 -0.1277 -0.6658  0.5023
 4813TIP3    H235931   5.712   1.370  13.106  0.2574  0.1974 -0.1408
 4814TIP3   OH235932   4.605   4.661   3.696 -0.5286  0.2753  0.6310
 4814TIP3    H135933   4.590   4.646   3.603 -0.3235  1.1491  0.4517
 4814TIP3    H235934   4.605   4.573   3.735 -2.3669  0.0164  0.0881
 4815TIP3   OH235935   4.881   3.103   3.634 -0.2376 -0.2181  0.5578
 4815TIP3    H135936   4.808   3.061   3.587  0.1897  2.1024 -2.3188
 4815TIP3    H235937   4.840   3.172   3.686 -0.2982 -0.0252  0.2589
 4816TIP3   OH235938   4.039   3.149   5.543  0.2632  0.1298  0.7648
 4816TIP3    H135939   4.050   3.062   5.581  1.0388  0.9143  2.3784
 4816TIP3    H235940   4.119   3.163   5.492  0.5600  0.2541  1.2555
 4817TIP3   OH235941   5.753   5.701   0.718  0.4353  0.5454  0.4597
 4817TIP3    H135942   5.700   5.736   0.789  0.4567  0.3169  0.5917
 4817TIP3    H235943   5.723   5.611   0.708  0.0673  0.7397 -0.1822
 4818TIP3   OH235944   5.090   5.596  15.789  0.8514 -0.5352 -0.1375
 4818TIP3    H135945   5.179   5.616  15.818  1.4273 -1.3968 -1.2418
 4818TIP3    H235946   5.085   5.500  15.793 -0.2211 -0.4549  0.4623
 4819TIP3   OH235947   3.041   0.024   4.312 -0.3161 -0.1824  0.6198
 4819TIP3    H135948   3.094  -0.049   4.343 -0.5612 -0.3746  0.5917
 4819TIP3    H235949   3.080   0.048   4.228 -1.5916 -1.7601 -0.4744
 4820TIP3   OH235950   1.034   5.284  14.285 -0.5058  0.5040 -0.0298
 4820TIP3    H135951   1.126   5.282  14.310 -1.1581  0.8567  2.6390
 4820TIP3    H235952   1.010   5.192  14.272 -0.4990  0.1448  2.2929
 4821TIP3   OH235953   4.318   6.406   1.093  0.3036 -0.4945  0.0551
 4821TIP3    H135954   4.340   6.457   1.171  0.2327 -0.7815  0.2634
 4821TIP3    H235955   4.249   6.346   1.122  1.6691 -1.9818  0.2746
 4822TIP3   OH235956   3.485   4.222  13.179 -0.2235 -0.6767 -0.2501
 4822TIP3    H135957   3.568   4.192  13.215 -0.4396 -0.0490  0.8131
 4822TIP3    H235958   3.427   4.228  13.255 -0.9338 -0.1229 -0.8246
 4823TIP3   OH235959   2.600   5.837   4.638  0.1488  0.6211  0.6549
 4823TIP3    H135960   2.582   5.783   4.715 -0.1801  0.7493  0.6695
 4823TIP3    H235961   2.526   5.898   4.634 -1.1841 -1.0414 -1.2342
 4824TIP3   OH235962   6.637   1.649  10.031 -0.1205  0.1628  0.1440
 4824TIP3    H135963   6.573   1.708   9.992  0.0353  0.3816  0.2197
 4824TIP3    H235964   6.586   1.590  10.085 -0.4348 -0.6534 -1.0192
 4825TIP3   OH235965   2.548   1.863  12.666 -0.7463  0.3070  0.0410
 4825TIP3    H135966   2.594   1.798  12.613  0.8322  0.2562  1.4189
 4825TIP3    H235967   2.479   1.896  12.609  1.1992  0.6101 -2.2036
 4826TIP3   OH235968   0.991   5.166   1.280 -0.1798  0.5781  0.1716
 4826TIP3    H135969   0.952   5.143   1.196  0.4919  0.5431 -0.1307
 4826TIP3    H235970   1.086   5.167   1.264 -0.0623  0.8686  0.8488
 4827TIP3   OH235971   0.013   4.285   3.900  0.0836 -0.0539  0.1451
 4827TIP3    H135972  -0.077   4.271   3.868 -0.1678 -0.1534  0.8961
 4827TIP3    H235973   0.024   4.380   3.897  0.2748 -0.0987 -0.8137
 4828TIP3   OH235974   1.871   3.746   5.421 -0.0670 -0.5204 -0.0590
 4828TIP3    H135975   1.948   3.703   5.386 -0.4833 -1.1905 -0.1535
 4828TIP3    H235976   1.822   3.773   5.343  1.6977  2.9069 -0.0752
 4829TIP3   OH235977   2.034   4.038  11.846 -0.0671  0.2726  0.0740
 4829TIP3    H135978   2.104   3.988  11.887 -0.3825  0.6545  1.1052
 4829TIP3    H235979   2.071   4.124  11.830 -0.4429  0.6181  1.0525
 4830TIP3   OH235980   0.530   5.958   5.189 -0.4321 -0.2829 -0.1276
 4830TIP3    H135981   0.571   5.963   5.275 -5.2117  3.0946  2.2238
 4830TIP3    H235982   0.595   5.994   5.129  1.8238  0.3164  2.5864
 4831TIP3   OH235983   2.809   6.324   0.342  0.2475  0.1837  0.2012
 4831TIP3    H135984   2.895   6.306   0.380  1.3397  0.5573 -2.0108
 4831TIP3    H235985   2.818   6.301   0.249 -1.7626  1.1325 -0.2667
 4832TIP3   OH235986   5.599   4.413  16.866  0.3503 -0.1202 -0.1920
 4832TIP3    H135987   5.587   4.350  16.937 -0.7557  0.7093  0.3559
 4832TIP3    H235988   5.612   4.497  16.910  2.7950 -0.1002 -0.9008
 4833TIP3   OH235989   0.211   4.895   3.197  0.2039 -0.0291 -0.5410
 4833TIP3    H135990   0.137   4.848   3.158  0.6045 -0.0918 -1.2462
 4833TIP3    H235991   0.281   4.829   3.202  1.0268  0.6773 -2.2895
 4834TIP3   OH235992   6.207   4.900   1.659  0.7037 -0.3451 -0.3444
 4834TIP3    H135993   6.228   4.993   1.654 -0.1035 -0.1325  0.1638
 4834TIP3    H235994   6.292   4.858   1.676  1.1238  0.2547 -0.9216
 4835TIP3   OH235995   5.164   3.864   0.455  0.1049  0.2267  0.2040
 4835TIP3    H135996   5.106   3.871   0.531 -0.0204 -0.0218  0.1324
 4835TIP3    H235997   5.244   3.910   0.482  0.1690 -0.1024  0.5992
 4836TIP3   OH235998   5.703   3.628   5.906 -0.7954 -0.7820 -0.3110
 4836TIP3    H135999   5.752   3.550   5.879  1.7811  0.1654  1.3576
 4836TIP3    H236000   5.727   3.695   5.843 -0.2069 -0.4113  0.3005
 4837TIP3   OH236001   3.430   1.527   3.680  0.2181 -0.0506  0.2291
 4837TIP3    H136002   3.449   1.433   3.679 -1.5305 -0.4145 -0.5394
 4837TIP3    H236003   3.406   1.546   3.771  2.7296  0.1408  0.9047
 4838TIP3   OH236004   2.292   5.935  13.438  0.3819  0.5429 -0.2234
 4838TIP3    H136005   2.374   5.947  13.390  0.3356  0.8495 -0.2260
 4838TIP3    H236006   2.318   5.939  13.530  0.5620 -0.6521 -0.2148
 4839TIP3   OH236007   2.417   1.674  13.194 -0.6374 -0.2356 -1.0854
 4839TIP3    H136008   2.363   1.727  13.252  0.0730 -0.7968  0.0966
 4839TIP3    H236009   2.446   1.736  13.126 -0.1445  0.8129  0.0564
 4840TIP3   OH236010   1.402   1.328  14.049 -0.2090 -0.1073 -0.3163
 4840TIP3    H136011   1.403   1.325  13.954 -0.3016  1.0704 -0.3635
 4840TIP3    H236012   1.493   1.310  14.075  0.3541  1.9905 -0.7257
 4841TIP3   OH236013   3.887   2.680   0.631 -0.1312 -0.5854 -0.2483
 4841TIP3    H136014   3.827   2.644   0.566  0.1889 -1.5579 -0.0170
 4841TIP3    H236015   3.862   2.638   0.713  1.6027 -1.8803 -0.3578
 4842TIP3   OH236016   3.982   2.239   2.417 -0.8816  0.0746  0.4100
 4842TIP3    H136017   3.920   2.293   2.369 -3.9225  1.1836  5.2852
 4842TIP3    H236018   4.049   2.300   2.448  1.0330 -0.6250 -2.2072
 4843TIP3   OH236019   0.789   4.382   6.577 -0.2601 -0.1930 -0.4191
 4843TIP3    H136020   0.701   4.357   6.547 -1.3289  1.9823  0.7731
 4843TIP3    H236021   0.784   4.477   6.588  2.2202 -0.0640 -0.1800
 4844TIP3   OH236022   5.516   4.252   3.245 -0.3824  0.0440 -0.1975
 4844TIP3    H136023   5.504   4.245   3.340 -1.6124 -0.1010 -0.3524
 4844TIP3    H236024   5.466   4.330   3.221  2.3345  1.8085 -0.3345
 4845TIP3   OH236025   6.308   0.846  12.443  0.5265 -0.0534 -0.5371
 4845TIP3    H136026   6.261   0.843  12.527 -0.4626  0.0190 -1.0791
 4845TIP3    H236027   6.399   0.865  12.467 -0.1010  1.9554  0.4130
 4846TIP3   OH236028   1.675   5.320  16.467 -0.3477 -0.1765  0.2938
 4846TIP3    H136029   1.643   5.402  16.428 -1.3153 -1.4200 -1.5855
 4846TIP3    H236030   1.737   5.286  16.403 -1.2835 -1.7851  0.2149
 4847TIP3   OH236031   2.481   1.210   2.437 -0.2827  0.1940  0.5799
 4847TIP3    H136032   2.571   1.226   2.464 -0.0448  1.8467 -1.0758
 4847TIP3    H236033   2.434   1.290   2.461 -0.8388  0.1982 -0.4825
 4848TIP3   OH236034   2.845   6.002   5.189  0.3593  0.0890 -0.0250
 4848TIP3    H136035   2.900   6.027   5.114  0.5763 -0.8260 -0.1817
 4848TIP3    H236036   2.857   6.073   5.252  1.4714  0.0578 -0.1840
 4849TIP3   OH236037   4.286   2.783   5.154 -0.0237  0.6212  0.2790
 4849TIP3    H136038   4.375   2.800   5.123  0.4989  0.2340  1.5055
 4849TIP3    H236039   4.264   2.697   5.118 -0.3894  1.2426 -1.0317
 4850TIP3   OH236040   6.732   5.684  11.798  0.4761  0.3629 -0.3184
 4850TIP3    H136041   6.753   5.755  11.738  3.8020  1.3273  1.8533
 4850TIP3    H236042   6.751   5.719  11.885 -0.1209 -2.3848  0.9953
 4851TIP3   OH236043   5.036   6.685  13.217  0.4655 -0.2741  0.2653
 4851TIP3    H136044   4.987   6.638  13.284 -4.0062  3.8844  0.1894
 4851TIP3    H236045   5.059   6.769  13.258  1.4362  0.6249 -1.9978
 4852TIP3   OH236046   0.089   2.709   0.346  0.4286  0.2658 -0.3640
 4852TIP3    H136047   0.114   2.698   0.254  0.7066  0.2690 -0.2881
 4852TIP3    H236048   0.002   2.670   0.352  0.3471  0.4020 -0.6638
 4853TIP3   OH236049   1.441   4.373  12.579 -0.1124 -0.1337  0.2225
 4853TIP3    H136050   1.411   4.331  12.660 -0.7206  0.2957  0.2227
 4853TIP3    H236051   1.437   4.467  12.598  3.4143 -0.0685  1.0144
 4854TIP3   OH236052   5.901   1.489   1.043  0.1602  0.1891  0.3643
 4854TIP3    H136053   5.936   1.565   0.996 -0.7700 -0.7632 -1.9676
 4854TIP3    H236054   5.810   1.483   1.014 -0.0239 -1.3070  1.1973
 4855TIP3   OH236055   0.066   4.634  16.253  0.1410  0.0576 -0.0105
 4855TIP3    H136056  -0.007   4.572  16.246 -1.5830  1.6821  2.6090
 4855TIP3    H236057   0.025   4.717  16.276  2.6838  1.4785 -0.4135
 4856TIP3   OH236058   3.465   2.419   2.647 -0.1365  0.3872 -0.0494
 4856TIP3    H136059   3.416   2.340   2.623 -0.7810  1.0305 -0.8360
 4856TIP3    H236060   3.553   2.404   2.611  0.4076 -0.9674  1.7496
 4857TIP3   OH236061   0.553   6.170   2.994  0.1253 -0.2954  0.1008
 4857TIP3    H136062   0.517   6.257   3.013  2.9107  1.5415 -2.6238
 4857TIP3    H236063   0.491   6.132   2.931  0.6738  1.1649 -1.3708
 4858TIP3   OH236064   0.796   3.355  15.628  0.0144 -0.0799 -0.0781
 4858TIP3    H136065   0.816   3.400  15.710  0.0626  0.3605 -0.3335
 4858TIP3    H236066   0.770   3.267  15.656 -0.1924  0.1368  0.4231
 4859TIP3   OH236067   5.288   2.219  11.761  0.0490  0.1246  0.0465
 4859TIP3    H136068   5.353   2.159  11.726  0.1201 -0.1301  0.6081
 4859TIP3    H236069   5.276   2.191  11.852 -1.7181 -0.5836 -0.3888
 4860TIP3   OH236070   3.229   6.657  11.765 -0.2969  0.4468 -0.3844
 4860TIP3    H136071   3.162   6.722  11.744  0.7160  2.1603  1.4680
 4860TIP3    H236072   3.272   6.639  11.681 -0.7727  1.9884 -0.9805
 4861TIP3   OH236073   3.017   1.975  16.190  0.1967 -0.3399 -0.2024
 4861TIP3    H136074   3.089   1.980  16.253 -0.2706 -0.6736  0.3513
 4861TIP3    H236075   3.027   1.890  16.148 -0.0224 -0.4922  0.0522
 4862TIP3   OH236076   3.180   3.004   0.373  0.4432 -0.5568 -0.6009
 4862TIP3    H136077   3.086   3.018   0.366 -0.1252 -1.6119  3.2125
 4862TIP3    H236078   3.199   2.933   0.312 -0.7803  1.1716 -3.0466
 4863TIP3   OH236079   3.196   2.054  11.790 -0.5772 -0.2890 -0.0346
 4863TIP3    H136080   3.177   2.148  11.793 -0.3523 -0.2179 -0.7763
 4863TIP3    H236081   3.237   2.040  11.704  1.0696 -0.7546  0.8021
 4864TIP3   OH236082   2.198   6.488  14.330  0.1764  0.0850 -0.1747
 4864TIP3    H136083   2.139   6.414  14.348 -0.9510  1.0948  0.3688
 4864TIP3    H236084   2.227   6.517  14.416  1.4064 -0.3468 -0.4396
 4865TIP3   OH236085   6.639   3.975   4.269 -0.5952 -0.7449 -0.0595
 4865TIP3    H136086   6.642   3.899   4.326  1.1989 -1.1096 -0.6280
 4865TIP3    H236087   6.723   4.019   4.282 -0.7634 -0.0265 -1.3155
 4866TIP3   OH236088   4.369   1.685   3.736 -0.3584 -0.5618  0.1595
 4866TIP3    H136089   4.312   1.743   3.786 -0.6714  0.8334 -1.7788
 4866TIP3    H236090   4.392   1.734   3.657  1.3143 -2.1509 -0.3984
 4867TIP3   OH236091   2.749   6.471  11.134  0.0374  0.7292  0.1115
 4867TIP3    H136092   2.687   6.542  11.116  0.5231  0.7191 -1.6948
 4867TIP3    H236093   2.739   6.411  11.060  0.0472 -0.8050  1.3286
 4868TIP3   OH236094   2.763   1.763   2.907 -0.1164  0.0066  0.4772
 4868TIP3    H136095   2.745   1.856   2.889 -0.7322 -0.0386  0.8188
 4868TIP3    H236096   2.752   1.755   3.002 -1.1523 -0.6384  0.3161
 4869TIP3   OH236097   0.575   6.268  10.976 -0.0379  0.5013  0.4603
 4869TIP3    H136098   0.492   6.225  10.958  0.7065  0.2935 -2.7421
 4869TIP3    H236099   0.633   6.197  11.005 -0.5392  0.3982  1.2207
 4870TIP3   OH236100   1.972   3.580   6.071  0.4873  0.7116 -0.6852
 4870TIP3    H136101   2.040   3.645   6.083  0.4737  0.7982 -1.0830
 4870TIP3    H236102   1.923   3.581   6.153  1.5521 -0.0367 -0.0275
 4871TIP3   OH236103   3.339   5.555  12.485 -0.2258 -0.0259  0.3237
 4871TIP3    H136104   3.318   5.639  12.444  0.4375 -0.6627 -1.3508
 4871TIP3    H236105   3.431   5.563  12.509 -0.5933  0.3242  1.7091
 4872TIP3   OH236106   4.117   1.446  16.350  0.3416 -0.1355 -0.4243
 4872TIP3    H136107   4.123   1.381  16.420  0.5978  1.0065  0.6282
 4872TIP3    H236108   4.112   1.530  16.396 -1.6300  0.4942 -1.7319
 4873TIP3   OH236109   3.443   2.717  14.265 -0.0952 -0.4079  0.1461
 4873TIP3    H136110   3.410   2.707  14.354  0.2080 -1.4996  0.1431
 4873TIP3    H236111   3.509   2.648  14.256  0.6796  0.4155 -0.5424
 4874TIP3   OH236112   0.680   1.226   2.935  0.1698 -0.0270  0.4293
 4874TIP3    H136113   0.694   1.282   3.011  0.1345  1.9059 -0.9548
 4874TIP3    H236114   0.598   1.256   2.897  0.0733 -1.1225 -0.2596
 4875TIP3   OH236115   3.750   0.650   0.208 -0.1505 -0.1225 -0.0483
 4875TIP3    H136116   3.772   0.741   0.185 -0.6414 -0.2161 -0.9353
 4875TIP3    H236117   3.654   0.649   0.208 -0.1445 -0.5482  0.3485
 4876TIP3   OH236118   1.873   0.143  12.836 -0.0048  0.0660 -0.6966
 4876TIP3    H136119   1.951   0.145  12.781 -1.2796 -1.0261 -2.6146
 4876TIP3    H236120   1.823   0.221  12.810 -0.4634 -0.2860 -0.8906
 4877TIP3   OH236121   5.533   6.133  14.440  0.4509  0.0023  0.1431
 4877TIP3    H136122   5.460   6.160  14.384 -0.2746 -2.4623 -0.1860
 4877TIP3    H236123   5.608   6.126  14.381  0.6770  1.3629  0.2576
 4878TIP3   OH236124   6.679   0.487   1.786  0.2263  0.3093 -0.1131
 4878TIP3    H136125   6.741   0.503   1.715 -1.5583 -0.2157 -1.8412
 4878TIP3    H236126   6.727   0.433   1.848  0.7122 -2.2909 -2.6403
 4879TIP3   OH236127   5.106   6.594   2.475  0.0891 -0.3445 -0.6254
 4879TIP3    H136128   5.189   6.638   2.487  0.4612 -0.3893 -2.8556
 4879TIP3    H236129   5.115   6.547   2.392 -0.9447 -3.1300  0.7700
 4880TIP3   OH236130   2.343   0.608   0.363  0.0433  0.1042  0.1166
 4880TIP3    H136131   2.269   0.549   0.372  0.0455  0.2364  1.0539
 4880TIP3    H236132   2.414   0.565   0.411  1.1119 -0.9220 -2.3418
 4881TIP3   OH236133   1.064   1.758   3.138 -0.5373  0.2911  0.0206
 4881TIP3    H136134   1.134   1.823   3.145 -0.6815  0.3962  0.5069
 4881TIP3    H236135   1.026   1.755   3.225  0.0789 -1.1471  0.2466
 4882TIP3   OH236136   1.964   6.098  11.590 -0.0523  0.5063  0.8949
 4882TIP3    H136137   1.900   6.105  11.661  0.4267  2.0142  1.2016
 4882TIP3    H236138   2.047   6.124  11.631  0.4154  0.3707  0.0321
 4883TIP3   OH236139   1.394   2.511   4.403  1.0025 -0.9586  0.8975
 4883TIP3    H136140   1.482   2.514   4.441  0.8429  2.8516  1.1707
 4883TIP3    H236141   1.406   2.543   4.314 -0.0548 -0.4732  0.9252
 4884TIP3   OH236142   2.762   5.037   3.939 -0.4834 -0.1052 -0.4738
 4884TIP3    H136143   2.732   4.963   3.887  0.0693 -1.3703  0.9798
 4884TIP3    H236144   2.847   5.060   3.901 -0.7218 -0.1119 -1.0220
 4885TIP3   OH236145   0.862   3.611  16.841  0.2442  0.0362  0.2646
 4885TIP3    H136146   0.771   3.636  16.854  0.4651  0.7748  0.4052
 4885TIP3    H236147   0.906   3.692  16.815  0.8391 -0.3391  0.0715
 4886TIP3   OH236148   2.746   2.985   6.233 -0.1188  0.0222  0.0343
 4886TIP3    H136149   2.711   2.896   6.233 -1.4489  0.5331  1.3044
 4886TIP3    H236150   2.675   3.038   6.198  0.3705  0.7069  0.0873
 4887TIP3   OH236151   5.276   5.476  12.240 -0.0151 -0.2851  0.0938
 4887TIP3    H136152   5.210   5.408  12.228 -0.2355  0.0038 -0.3321
 4887TIP3    H236153   5.286   5.483  12.335  0.6026 -1.4752  0.1208
 4888TIP3   OH236154   6.509   6.571  15.785 -0.3444 -0.6348  0.1336
 4888TIP3    H136155   6.422   6.609  15.768 -0.6923 -2.1443 -1.5807
 4888TIP3    H236156   6.523   6.584  15.879 -2.8927 -1.3087  0.6424
 4889TIP3   OH236157   0.927   4.350  12.293 -0.3529  0.0706 -1.3147
 4889TIP3    H136158   0.969   4.303  12.366  0.5022 -0.5188 -2.1824
 4889TIP3    H236159   1.000   4.386  12.243 -0.8971 -0.4446 -2.4931
 4890TIP3   OH236160   0.747   0.122   1.154  0.1087 -0.4348 -0.2573
 4890TIP3    H136161   0.832   0.166   1.156 -0.3419  0.7140 -3.3174
 4890TIP3    H236162   0.753   0.056   1.223  3.1414  0.2265  0.2041
 4891TIP3   OH236163   6.721   3.202   5.502 -0.3619  0.0584 -0.4782
 4891TIP3    H136164   6.651   3.170   5.445 -2.7586  1.6651  1.4777
 4891TIP3    H236165   6.730   3.294   5.480  0.3548  0.1157  0.0423
 4892TIP3   OH236166   6.551   0.899  12.563  0.2268 -0.0573  0.6183
 4892TIP3    H136167   6.556   0.929  12.654  0.4343  0.3795  0.4616
 4892TIP3    H236168   6.632   0.930  12.523 -0.2436  0.4659  0.0683
 4893TIP3   OH236169   2.992   3.374   4.577 -0.0228  0.3049 -0.1274
 4893TIP3    H136170   3.035   3.431   4.640  0.1776 -1.2798  1.1877
 4893TIP3    H236171   2.924   3.429   4.537  1.7802  2.1778 -0.6765
 4894TIP3   OH236172   6.478   3.190  12.533 -0.0072  0.2361 -0.2398
 4894TIP3    H136173   6.476   3.173  12.627 -0.8849  1.4159 -0.0326
 4894TIP3    H236174   6.550   3.252  12.521 -0.2104  0.4667 -0.2743
 4895TIP3   OH236175   2.403   0.724  15.206 -0.3194 -0.2137 -0.5632
 4895TIP3    H136176   2.398   0.716  15.111 -1.2023 -0.7136 -0.4716
 4895TIP3    H236177   2.341   0.660  15.240  1.1039 -1.1329  0.3969
 4896TIP3   OH236178   1.554   5.904   4.070  0.1177  0.2855 -0.4163
 4896TIP3    H136179   1.481   5.946   4.115 -0.0235  0.7741 -1.0811
 4896TIP3    H236180   1.630   5.958   4.091 -0.1908  1.3419 -1.8632
 4897TIP3   OH236181   6.615   1.312  13.107  0.5129  0.2550  0.0489
 4897TIP3    H136182   6.553   1.384  13.119 -0.6282 -0.9284  1.4581
 4897TIP3    H236183   6.686   1.331  13.167  0.0569  0.0434  0.6566
 4898TIP3   OH236184   5.673   3.404  12.306 -0.0669 -0.1088 -0.3376
 4898TIP3    H136185   5.627   3.328  12.340 -0.1225  0.7149  1.4565
 4898TIP3    H236186   5.766   3.380  12.310 -0.0658  0.0131  0.5143
 4899TIP3   OH236187   6.334   0.150  11.877 -0.0346 -0.0711 -1.0161
 4899TIP3    H136188   6.266   0.132  11.812 -0.4997  0.7654 -0.7577
 4899TIP3    H236189   6.415   0.155  11.826 -0.0046 -2.0483 -1.2123
 4900TIP3   OH236190   0.804   5.042   2.857  0.2491 -0.1516 -0.5837
 4900TIP3    H136191   0.848   5.025   2.774  1.0944 -1.3815  0.1042
 4900TIP3    H236192   0.874   5.052   2.921 -0.4173 -2.2063  0.5298
 4901TIP3   OH236193   4.778   5.552  12.759 -0.3171 -0.2066  0.7519
 4901TIP3    H136194   4.838   5.523  12.828  0.5161  0.1855  0.1911
 4901TIP3    H236195   4.793   5.492  12.686  1.8342  1.9350 -0.6342
 4902TIP3   OH236196   5.990   4.858   5.306  0.2625 -0.1561  0.0959
 4902TIP3    H136197   6.016   4.842   5.397  1.6397 -0.3469 -0.3140
 4902TIP3    H236198   5.965   4.772   5.272  2.2250 -0.5407 -0.4444
 4903TIP3   OH236199   2.811   6.457   1.782  0.1336  0.3054 -0.1699
 4903TIP3    H136200   2.734   6.446   1.726  0.5994  0.3438 -0.8159
 4903TIP3    H236201   2.778   6.503   1.859 -0.8197 -1.1221  0.2946
 4904TIP3   OH236202   2.014   5.053  16.049 -0.4810 -0.8247  0.4199
 4904TIP3    H136203   2.077   5.093  16.110 -0.2096 -1.1888  0.3773
 4904TIP3    H236204   1.957   5.000  16.105  0.2098 -1.7281  0.2696
 4905TIP3   OH236205   0.822   0.835  11.847  0.1356  0.4461 -0.4497
 4905TIP3    H136206   0.811   0.746  11.882 -0.2893  0.4761 -0.5029
 4905TIP3    H236207   0.910   0.860  11.874 -0.0752  0.3527  0.3413
 4906TIP3   OH236208   6.049   3.769   4.572 -0.0570  0.3446  0.2583
 4906TIP3    H136209   6.023   3.847   4.522  0.3617  1.3047  1.5001
 4906TIP3    H236210   5.984   3.703   4.548 -0.7450  1.2411 -0.4141
 4907TIP3   OH236211   1.098   6.498  11.327 -0.4206  0.3561  0.0454
 4907TIP3    H136212   1.090   6.471  11.419  0.3571 -2.4566 -0.6382
 4907TIP3    H236213   1.042   6.437  11.280  0.7758  0.4541 -1.5385
 4908TIP3   OH236214   6.257   3.717   3.609 -0.2826 -0.1350  0.2066
 4908TIP3    H136215   6.221   3.803   3.629  0.2927 -0.5168  3.0383
 4908TIP3    H236216   6.225   3.661   3.680  2.5577 -1.3893  0.5322
 4909TIP3   OH236217   4.449   4.001  13.518 -0.2094 -0.5539  0.1303
 4909TIP3    H136218   4.430   4.004  13.612 -0.2566 -0.1598  0.1065
 4909TIP3    H236219   4.363   4.003  13.476 -0.2236 -1.5376  0.0977
 4910TIP3   OH236220   3.771   4.990  15.089 -0.5563 -0.3402  0.6361
 4910TIP3    H136221   3.812   4.993  15.002  0.8883 -0.3067  1.3020
 4910TIP3    H236222   3.747   4.898  15.100 -1.1246 -0.2670  0.0244
 4911TIP3   OH236223   0.352   6.392   4.300  0.1680 -0.0768 -0.3179
 4911TIP3    H136224   0.436   6.404   4.345  0.4131 -1.3612 -0.3987
 4911TIP3    H236225   0.328   6.301   4.319 -1.4905  0.4483  0.1854
 4912TIP3   OH236226   2.598   2.476  12.910 -0.1245 -0.1996  0.1042
 4912TIP3    H136227   2.525   2.529  12.879  0.8942  1.0096 -0.2693
 4912TIP3    H236228   2.676   2.519  12.875  0.7483 -1.7452  0.0897
 4913TIP3   OH236229   5.613   1.126   5.342  0.1899  0.4819  0.1497
 4913TIP3    H136230   5.648   1.037   5.335 -2.5338 -0.6315  0.0078
 4913TIP3    H236231   5.616   1.146   5.435  0.8560  0.2624  0.1765
 4914TIP3   OH236232   0.937   2.693   5.547  0.0770  0.3633  0.0697
 4914TIP3    H136233   0.930   2.599   5.528  1.4528  0.0100  1.2396
 4914TIP3    H236234   0.922   2.736   5.463  2.3193 -1.0120 -1.0807
 4915TIP3   OH236235   6.504   6.537  13.907  0.5968  0.0950  0.0738
 4915TIP3    H136236   6.556   6.609  13.943 -0.7758  0.7546  0.7654
 4915TIP3    H236237   6.456   6.576  13.834 -1.8599  0.4592  1.8338
 4916TIP3   OH236238   1.590   1.996  10.975  0.7603  0.1745  0.3545
 4916TIP3    H136239   1.680   1.994  11.007  0.4950  1.1604  1.1694
 4916TIP3    H236240   1.583   2.079  10.928  0.0799  0.4142  0.8722
 4917TIP3   OH236241   0.119   6.509   4.411  0.0942  0.2981  0.2928
 4917TIP3    H136242   0.171   6.577   4.369  0.1491 -0.1633 -0.3824
 4917TIP3    H236243   0.168   6.428   4.396  0.4721  0.2270  1.8382
 4918TIP3   OH236244   0.190   4.527   1.015  0.5500 -0.0614  0.2630
 4918TIP3    H136245   0.229   4.546   1.100 -0.9448  0.6721  0.8167
 4918TIP3    H236246   0.139   4.605   0.994  0.3371 -0.5138 -0.9886
 4919TIP3   OH236247   1.464   3.086   6.305  0.2411  0.3466 -0.2818
 4919TIP3    H136248   1.463   3.150   6.376 -2.6922 -0.8227  0.8083
 4919TIP3    H236249   1.509   3.010   6.341  0.6811  0.5356 -0.4262
 4920TIP3   OH236250   1.912   4.537  16.246 -0.2034  0.7642  0.8856
 4920TIP3    H136251   1.940   4.568  16.332  1.2011 -0.4312  0.8827
 4920TIP3    H236252   1.857   4.461  16.265 -2.3504  2.2824  0.8280
 4921TIP3   OH236253   5.740   3.411  12.648  0.6290 -0.3363 -0.3498
 4921TIP3    H136254   5.671   3.345  12.656  1.3661 -1.1616 -0.7055
 4921TIP3    H236255   5.752   3.444  12.737 -1.3899  1.0228 -0.5546
 4922TIP3   OH236256   2.275   2.616   0.421 -0.4926  0.3687 -0.0247
 4922TIP3    H136257   2.287   2.546   0.485 -2.7220 -0.0737 -0.0359
 4922TIP3    H236258   2.328   2.689   0.453  1.4568 -1.1415  0.2489
 4923TIP3   OH236259   4.692   6.809  14.686 -0.2104  0.8023 -0.1648
 4923TIP3    H136260   4.686   6.750  14.611 -0.5952  1.4165 -0.6172
 4923TIP3    H236261   4.680   6.897  14.649  0.6145  1.1917  0.4692
 4924TIP3   OH236262   4.753   0.127  13.610 -0.3868  0.5180  0.4276
 4924TIP3    H136263   4.767   0.032  13.614 -0.8050  0.4598  0.5558
 4924TIP3    H236264   4.789   0.160  13.692  0.1805  0.5218  0.1731
 4925TIP3   OH236265   4.968   5.957   4.777  0.1430  0.5203  0.3542
 4925TIP3    H136266   4.959   5.990   4.688  0.4033 -0.4593 -0.0504
 4925TIP3    H236267   5.035   5.889   4.770  1.4312  1.6278  1.6284
 4926TIP3   OH236268   4.919   6.719   0.988 -0.0337  0.1766 -0.2797
 4926TIP3    H136269   4.878   6.716   0.902 -3.2279 -0.1235  1.1861
 4926TIP3    H236270   4.947   6.810   0.999 -0.5049  0.4350 -1.2319
 4927TIP3   OH236271   0.063   4.012   0.760  0.3655  0.4863 -0.3070
 4927TIP3    H136272   0.145   3.995   0.713  0.5474 -2.6155  1.0400
 4927TIP3    H236273  -0.005   3.995   0.696  0.7173  1.4030 -0.9360
 4928TIP3   OH236274   2.618   6.680  10.348 -0.0827  0.2261  0.0417
 4928TIP3    H136275   2.649   6.694  10.438  0.7408 -1.4850  0.0484
 4928TIP3    H236276   2.639   6.589  10.330 -0.6752  0.4296 -1.7370
 4929TIP3   OH236277   2.740   4.956   1.690 -0.0146 -0.2015  0.7221
 4929TIP3    H136278   2.685   4.901   1.747 -0.4018 -0.4275  0.1440
 4929TIP3    H236279   2.678   4.997   1.630  0.2238  1.2734  1.4715
 4930TIP3   OH236280   5.992   4.199  12.500  0.1028  0.1532  0.4060
 4930TIP3    H136281   6.007   4.120  12.552  2.3247 -0.3085 -0.8792
 4930TIP3    H236282   6.024   4.271  12.556  1.9848 -0.2918 -0.0572
 4931TIP3   OH236283   0.337   1.146  16.748 -0.1565 -0.0093 -0.1019
 4931TIP3    H136284   0.309   1.055  16.745  0.6414 -0.2934  0.7496
 4931TIP3    H236285   0.301   1.185  16.668  0.3457 -1.3140 -0.9897
 4932TIP3   OH236286   5.697   0.905   1.670 -0.2485  0.5045 -0.2783
 4932TIP3    H136287   5.686   0.953   1.752  0.5224 -1.9280  1.3410
 4932TIP3    H236288   5.672   0.815   1.692  1.3750 -0.4883 -2.3315
 4933TIP3   OH236289   0.859   0.797  13.279  0.4623  0.3463  0.1385
 4933TIP3    H136290   0.798   0.870  13.284  1.1733  0.9507  0.1205
 4933TIP3    H236291   0.867   0.780  13.185 -0.3728 -0.3282  0.1857
 4934TIP3   OH236292   3.439   5.486  16.902 -0.3134 -0.0155  0.1704
 4934TIP3    H136293   3.462   5.510  16.812 -1.0715  0.6919  0.1667
 4934TIP3    H236294   3.347   5.511  16.911 -0.3443 -0.4264  1.0262
 4935TIP3   OH236295   5.996   4.608   2.293  0.0950  0.0606  0.0220
 4935TIP3    H136296   5.998   4.527   2.344 -0.7026  1.1129  1.7559
 4935TIP3    H236297   5.906   4.614   2.261 -0.0608  0.6779  0.5770
 4936TIP3   OH236298   3.988   0.507  15.552 -0.8017  0.2717  0.3618
 4936TIP3    H136299   4.042   0.586  15.558 -1.6613  0.9002 -0.0706
 4936TIP3    H236300   3.948   0.499  15.638 -0.6048  0.2175  0.4497
 4937TIP3   OH236301   5.316   2.015   2.239  0.1253  0.8336 -0.2363
 4937TIP3    H136302   5.336   2.036   2.148  0.4297  0.1268 -0.3352
 4937TIP3    H236303   5.220   2.022   2.245  0.0528  0.2936 -0.7574
 4938TIP3   OH236304   5.365   5.790   2.205 -0.5877 -0.1070 -0.0698
 4938TIP3    H136305   5.282   5.832   2.224 -0.3414  0.1507  0.4336
 4938TIP3    H236306   5.431   5.850   2.240 -0.0996  0.6613 -2.2103
 4939TIP3   OH236307   1.724   4.474  12.511  0.2541  0.4609 -0.1543
 4939TIP3    H136308   1.692   4.564  12.515 -0.8115  0.1171 -0.5467
 4939TIP3    H236309   1.795   4.471  12.574  0.6818  1.7277 -0.5532
 4940TIP3   OH236310   3.425   1.319  11.599  0.2746  0.4667 -0.1311
 4940TIP3    H136311   3.400   1.269  11.678  0.0270  1.4277  0.4033
 4940TIP3    H236312   3.517   1.341  11.613  0.2736  0.5022 -0.1808
 4941TIP3   OH236313   1.402   6.433   2.697 -0.6614  0.3508  0.0461
 4941TIP3    H136314   1.449   6.476   2.626  0.9678 -2.5233 -0.7107
 4941TIP3    H236315   1.371   6.351   2.659 -0.6421 -0.7652  2.3376
 4942TIP3   OH236316   4.233   0.576  12.336  0.1005 -0.0049 -0.4505
 4942TIP3    H136317   4.208   0.668  12.338 -0.4857 -0.1858  1.0565
 4942TIP3    H236318   4.235   0.554  12.243 -1.0334  1.1892 -0.7769
 4943TIP3   OH236319   5.149   4.840  11.630 -0.2827  0.2346  0.1796
 4943TIP3    H136320   5.166   4.912  11.569  3.1983 -0.4865  0.2261
 4943TIP3    H236321   5.107   4.773  11.578  0.8290  0.4261 -0.9790
 4944TIP3   OH236322   2.544   6.432   5.012  0.1032  0.1243 -0.0910
 4944TIP3    H136323   2.467   6.385   5.045 -0.8379  0.4733 -1.7620
 4944TIP3    H236324   2.517   6.468   4.928  1.6459  1.4719 -0.0502
 4945TIP3   OH236325   5.956   0.648   0.796  0.4410 -0.4386 -0.1119
 4945TIP3    H136326   5.937   0.606   0.712 -1.3783  1.2515 -0.5887
 4945TIP3    H236327   5.944   0.742   0.779  0.4173 -0.0432  1.9422
 4946TIP3   OH236328   5.700   1.157   2.846  0.1750  0.3905  0.6296
 4946TIP3    H136329   5.750   1.075   2.842  0.5947  0.6186  1.1289
 4946TIP3    H236330   5.614   1.131   2.878 -0.2608 -0.1068 -0.9190
 4947TIP3   OH236331   2.705   1.241   5.191 -0.3863  0.4942  0.3539
 4947TIP3    H136332   2.645   1.315   5.188 -1.3438 -0.2827  0.1181
 4947TIP3    H236333   2.714   1.213   5.100 -1.6493 -0.9632  0.6607
 4948TIP3   OH236334   3.730   5.893  15.240 -0.1002 -0.5844 -0.5344
 4948TIP3    H136335   3.688   5.978  15.253 -1.0581 -0.9720 -1.0515
 4948TIP3    H236336   3.725   5.877  15.146  1.0114 -0.7414 -0.5719
 4949TIP3   OH236337   2.732   2.412   0.803 -0.6774 -0.5657  0.0658
 4949TIP3    H136338   2.790   2.449   0.736  0.8286 -0.6703  1.3000
 4949TIP3    H236339   2.660   2.475   0.809  0.1377  0.4150 -0.2886
 4950TIP3   OH236340   1.497   1.907   1.591  0.2901 -0.0006  0.1974
 4950TIP3    H136341   1.530   1.855   1.664 -1.9723 -0.6629  0.8051
 4950TIP3    H236342   1.500   1.847   1.516  0.2695 -0.1347  0.3026
 4951TIP3   OH236343   2.535   3.278  16.096 -0.2419 -0.1987 -0.1582
 4951TIP3    H136344   2.519   3.185  16.081 -0.0013 -0.5086  1.4618
 4951TIP3    H236345   2.549   3.314  16.008  0.7289 -1.8763 -0.7141
 4952TIP3   OH236346   0.799   1.267   5.371 -0.3392  0.7776 -0.3279
 4952TIP3    H136347   0.729   1.285   5.433  0.6772  2.8945  0.2173
 4952TIP3    H236348   0.855   1.344   5.373  3.1451 -1.6624  0.7026
 4953TIP3   OH236349   4.248   0.927  13.069 -0.1381  0.0334 -0.2939
 4953TIP3    H136350   4.241   0.851  13.127  1.6885 -0.0273 -0.1096
 4953TIP3    H236351   4.261   1.001  13.128  0.3712  0.1637 -0.5696
 4954TIP3   OH236352   2.629   4.231  15.165  0.2105  0.0579 -0.5194
 4954TIP3    H136353   2.608   4.144  15.201  2.1073 -0.1433  0.1925
 4954TIP3    H236354   2.577   4.237  15.085 -0.9808 -1.1744  0.1274
 4955TIP3   OH236355   5.169   0.589   5.392 -0.1087 -0.0010  0.7033
 4955TIP3    H136356   5.184   0.604   5.485 -1.8135 -1.8487  1.3354
 4955TIP3    H236357   5.112   0.661   5.364 -0.9788 -0.3553  1.5241
 4956TIP3   OH236358   6.595   4.897   2.982  0.7492 -0.3149 -0.6227
 4956TIP3    H136359   6.657   4.953   2.937 -1.5594  1.7151 -1.4083
 4956TIP3    H236360   6.544   4.855   2.912 -0.7391  0.4014 -0.0061
 4957TIP3   OH236361   6.795   5.802  12.031  0.2566  0.4407  0.2302
 4957TIP3    H136362   6.779   5.890  12.065  1.0247  0.3646  0.7916
 4957TIP3    H236363   6.871   5.770  12.080 -0.2472 -0.6807  0.3057
 4958TIP3   OH236364   5.630   2.652   2.984  0.3582  0.2026  0.4751
 4958TIP3    H136365   5.588   2.577   2.943  0.8125  1.2495 -1.9668
 4958TIP3    H236366   5.583   2.728   2.950  1.0359  1.1242  1.5575
 4959TIP3   OH236367   3.570   5.486   0.649 -0.5681 -0.3900  0.1550
 4959TIP3    H136368   3.492   5.433   0.665 -1.4964  1.4166  1.8022
 4959TIP3    H236369   3.613   5.494   0.734 -0.2273  1.1455 -0.1336
 4960TIP3   OH236370   0.941   4.420   4.734 -0.2033 -0.2351 -0.3249
 4960TIP3    H136371   0.976   4.431   4.823 -0.0205  1.3988 -0.5897
 4960TIP3    H236372   0.847   4.413   4.746 -0.1016 -0.9718  0.0769
 4961TIP3   OH236373   5.506   1.614   0.750 -0.1267  0.3001 -0.1743
 4961TIP3    H136374   5.534   1.533   0.707  0.0925  0.3368 -0.1003
 4961TIP3    H236375   5.414   1.624   0.725  0.5147  1.3523 -2.2215
 4962TIP3   OH236376   5.258   0.907  10.929 -0.6839 -0.1139 -0.0791
 4962TIP3    H136377   5.192   0.970  10.957  0.0731  0.5044  0.3381
 4962TIP3    H236378   5.230   0.880  10.842 -0.8490  1.0433 -0.3941
 4963TIP3   OH236379   3.172   4.357   5.683 -0.1327 -0.3299  0.5437
 4963TIP3    H136380   3.092   4.400   5.713 -0.7451 -0.7359 -0.4584
 4963TIP3    H236381   3.170   4.367   5.588 -0.5055 -2.8943  0.2433
 4964TIP3   OH236382   6.374   3.352  13.644 -0.1067 -0.4836  0.3347
 4964TIP3    H136383   6.340   3.267  13.673 -1.1309 -0.0129  0.5333
 4964TIP3    H236384   6.393   3.399  13.725 -3.1691  0.9141  0.3435
 4965TIP3   OH236385   4.150   2.595   0.582 -0.7349  0.0387 -0.1822
 4965TIP3    H136386   4.070   2.637   0.613 -0.1056  0.8710  0.3307
 4965TIP3    H236387   4.172   2.532   0.650  0.2351  1.3431  0.7434
 4966TIP3   OH236388   2.361   3.731   0.607 -0.0572  0.2285  0.1587
 4966TIP3    H136389   2.383   3.661   0.669  2.2860  0.4520 -0.3938
 4966TIP3    H236390   2.283   3.772   0.644  0.3141 -0.7498  2.0769
 4967TIP3   OH236391   5.873   3.521  16.357  0.0324  0.0091  0.2259
 4967TIP3    H136392   5.940   3.568  16.306 -0.0024 -0.7482 -0.5460
 4967TIP3    H236393   5.810   3.491  16.291 -0.4721 -0.2537  0.8229
 4968TIP3   OH236394   1.159   5.552  13.138 -0.2023 -0.4364 -0.3535
 4968TIP3    H136395   1.159   5.647  13.144 -0.5974 -0.5878  3.3888
 4968TIP3    H236396   1.067   5.528  13.127 -0.4548 -0.4571  1.5963
 4969TIP3   OH236397   1.662   2.077  14.648 -0.0885 -0.4669 -0.0730
 4969TIP3    H136398   1.591   2.043  14.593 -0.7954  1.1542 -0.1843
 4969TIP3    H236399   1.618   2.109  14.726  0.5633  0.2961 -0.0219
 4970TIP3   OH236400   1.959   6.045   0.006  0.0031 -0.1702 -0.7030
 4970TIP3    H136401   2.044   6.011   0.033  0.1967  0.4334 -0.5408
 4970TIP3    H236402   1.911   5.968  -0.025  0.6751 -0.4806 -0.9814
 4971TIP3   OH236403   0.044   1.886   6.593 -0.3934  0.4003  0.3641
 4971TIP3    H136404  -0.002   1.809   6.627  1.8341 -0.4623  1.5216
 4971TIP3    H236405   0.040   1.876   6.498 -0.5607 -0.8974  0.4927
 4972TIP3   OH236406   2.420   0.405   1.786 -0.3092 -0.6120  0.0163
 4972TIP3    H136407   2.501   0.455   1.796 -1.5484  1.2106  1.1546
 4972TIP3    H236408   2.369   0.455   1.722 -1.2924 -0.7710  0.6705
 4973TIP3   OH236409   6.180   3.260   3.255  0.1016 -0.3526 -0.2317
 4973TIP3    H136410   6.210   3.335   3.203  1.5173 -0.5767  0.2264
 4973TIP3    H236411   6.261   3.220   3.286 -0.6405 -2.1748 -0.6014
 4974TIP3   OH236412   4.196   0.149   2.641 -0.8721  0.0725 -0.4229
 4974TIP3    H136413   4.218   0.202   2.565 -0.2396 -0.8109 -0.8571
 4974TIP3    H236414   4.273   0.094   2.655 -1.7677 -1.1644 -0.3411
 4975TIP3   OH236415   3.690   1.266  11.599 -0.3727 -0.6235 -0.1805
 4975TIP3    H136416   3.715   1.256  11.507 -3.6243 -0.1867 -1.1570
 4975TIP3    H236417   3.770   1.296  11.642  1.1987 -0.8121 -2.8531
 4976TIP3   OH236418   6.633   5.199  14.906  0.2629 -0.2536 -0.2558
 4976TIP3    H136419   6.724   5.170  14.909  0.5524  0.7059  0.3305
 4976TIP3    H236420   6.610   5.215  14.997 -0.6639 -1.0065 -0.3531
 4977TIP3   OH236421   4.618   3.634   3.526  0.8141 -0.4927 -0.3739
 4977TIP3    H136422   4.562   3.655   3.600 -0.0282 -0.7026 -0.9372
 4977TIP3    H236423   4.655   3.718   3.499  1.7086 -0.5205  0.7329
 4978TIP3   OH236424   4.926   5.012   1.333 -0.1012 -0.3779 -0.1148
 4978TIP3    H136425   4.948   4.944   1.397 -1.5004 -0.1756  0.5907
 4978TIP3    H236426   4.883   5.080   1.384 -2.4191 -0.7981 -1.4546
 4979TIP3   OH236427   4.631   0.200  16.827 -0.3267  0.0420  0.4180
 4979TIP3    H136428   4.581   0.270  16.786 -2.1689 -0.9681  0.8470
 4979TIP3    H236429   4.564   0.144  16.867  1.1495 -1.5603  0.6931
 4980TIP3   OH236430   6.213   4.767   4.664  0.4362 -0.2900 -0.2677
 4980TIP3    H136431   6.272   4.841   4.646 -0.6168  0.3855 -0.9922
 4980TIP3    H236432   6.248   4.728   4.744  0.2498  1.7902  0.8639
 4981TIP3   OH236433   0.364   1.374  14.635 -0.4881 -0.4432  0.2551
 4981TIP3    H136434   0.360   1.289  14.592 -0.3101  0.2421 -1.1370
 4981TIP3    H236435   0.288   1.422  14.602 -2.9401 -1.4333  4.1118
 4982TIP3   OH236436   0.174   6.544   5.341 -0.1282 -0.2509  0.3597
 4982TIP3    H136437   0.259   6.504   5.324 -0.6996 -0.6811 -1.6431
 4982TIP3    H236438   0.155   6.594   5.262 -1.7707 -0.2439  0.7411
 4983TIP3   OH236439   2.702   6.186   1.850 -0.4731 -0.0810  0.0682
 4983TIP3    H136440   2.703   6.195   1.945 -2.3296 -1.1747  0.2281
 4983TIP3    H236441   2.727   6.095   1.835 -2.2364 -0.5290 -0.3413
 4984TIP3   OH236442   5.658   0.342  11.031 -0.0702 -0.2616 -0.2859
 4984TIP3    H136443   5.586   0.404  11.044  0.4291  1.0902 -3.4064
 4984TIP3    H236444   5.734   0.386  11.068 -0.0723  0.1718 -0.7882
 4985TIP3   OH236445   5.763   5.368  11.482  0.9604  0.0290 -0.3833
 4985TIP3    H136446   5.808   5.380  11.399 -0.0275  1.5479 -0.7144
 4985TIP3    H236447   5.832   5.340  11.542  2.0200  0.6475 -1.2930
 4986TIP3   OH236448   6.195   3.222   0.464  0.1649  0.1607 -0.1202
 4986TIP3    H136449   6.129   3.233   0.532 -0.3188  0.1976 -0.5948
 4986TIP3    H236450   6.242   3.305   0.462  1.7590 -0.6499  1.8195
 4987TIP3   OH236451   1.451   3.796  11.703  0.5006  0.3241  0.9996
 4987TIP3    H136452   1.373   3.834  11.743 -2.1608 -4.7274  0.9644
 4987TIP3    H236453   1.487   3.738  11.770  1.1043 -1.4831 -0.8596
 4988TIP3   OH236454   0.540   5.123  11.188 -0.3986  0.0616  0.2276
 4988TIP3    H136455   0.573   5.093  11.103 -0.9402 -0.3440  0.1631
 4988TIP3    H236456   0.605   5.092  11.251  0.2270  0.7189 -0.0711
 4989TIP3   OH236457   5.576   1.224   1.235 -0.0575 -0.1236 -0.2813
 4989TIP3    H136458   5.563   1.239   1.141  0.5195  0.1708 -0.3133
 4989TIP3    H236459   5.499   1.265   1.276 -0.0858  0.1405 -0.5922
 4990TIP3   OH236460   0.332   5.412  11.094  0.2801 -0.3030  0.2282
 4990TIP3    H136461   0.404   5.474  11.085 -1.3367  1.8776  1.7229
 4990TIP3    H236462   0.269   5.438  11.026 -0.5026 -0.1161  1.0111
 4991TIP3   OH236463   0.429   0.024   2.044  0.5246  0.3877 -0.7654
 4991TIP3    H136464   0.440  -0.011   2.133 -3.7198  1.2410  0.2163
 4991TIP3    H236465   0.474   0.109   2.046  2.1767 -0.4729 -0.0837
 4992TIP3   OH236466   2.783   6.515  12.399  0.0662  0.3979  0.0345
 4992TIP3    H136467   2.875   6.491  12.411  0.2844  1.3637  0.2954
 4992TIP3    H236468   2.774   6.525  12.304 -0.3779 -2.0825 -0.2192
 4993TIP3   OH236469   6.138   0.221  15.984 -0.1459 -0.5123 -0.4542
 4993TIP3    H136470   6.082   0.218  16.062 -0.5518  3.2613 -0.5072
 4993TIP3    H236471   6.220   0.181  16.012  0.7225  3.2695  2.9183
 4994TIP3   OH236472   3.446   1.579   2.923 -0.1172 -0.4292 -0.4849
 4994TIP3    H136473   3.542   1.584   2.922 -0.1603  0.7072 -0.3915
 4994TIP3    H236474   3.420   1.644   2.989 -0.9647 -0.3157 -0.9271
 4995TIP3   OH236475   3.709   1.970   1.554 -0.4285 -0.1012 -0.5975
 4995TIP3    H136476   3.763   2.024   1.496 -0.4874  0.4705 -0.1206
 4995TIP3    H236477   3.766   1.898   1.581 -0.3545 -0.2927 -1.2432
 4996TIP3   OH236478   6.291   4.838  15.337  0.3946 -0.3592 -0.7622
 4996TIP3    H136479   6.198   4.854  15.352  1.0075  3.5538 -0.4001
 4996TIP3    H236480   6.322   4.799  15.418 -0.3988  0.9939  0.2089
 4997TIP3   OH236481   6.612   0.889   0.604  0.6265 -0.4660 -0.0740
 4997TIP3    H136482   6.560   0.904   0.684 -0.9351  0.7536 -1.2801
 4997TIP3    H236483   6.674   0.962   0.602  0.2646 -0.1597 -0.2740
 4998TIP3   OH236484   6.016   5.755   0.022 -0.2581  0.3023 -0.7631
 4998TIP3    H136485   5.951   5.776   0.089 -1.7261 -0.2149 -1.9894
 4998TIP3    H236486   6.100   5.755   0.068 -1.2773 -0.3483  1.1317
 4999TIP3   OH236487   0.632   2.464   1.322 -0.1298 -0.1338  0.0716
 4999TIP3    H136488   0.720   2.431   1.336 -0.5177 -0.1720  2.5937
 4999TIP3    H236489   0.644   2.545   1.274  1.3138  0.1565  0.8955
 5000TIP3   OH236490   4.401   1.027  15.024  0.1789 -0.7386 -0.4105
 5000TIP3    H136491   4.425   0.936  15.005  0.4491 -0.9655  0.9580
 5000TIP3    H236492   4.449   1.048  15.104  1.5063  1.1868 -1.6870
 5001TIP3   OH236493   1.897   0.863  14.817  0.5820  0.6763  0.0930
 5001TIP3    H136494   1.976   0.815  14.791  1.4531  2.0126  0.2494
 5001TIP3    H236495   1.925   0.954  14.825 -1.6531  1.6689 -2.7216
 5002TIP3   OH236496   3.906   6.096  10.926 -0.3107 -0.2111  0.5321
 5002TIP3    H136497   3.985   6.062  10.968 -0.1058 -0.1675  0.1865
 5002TIP3    H236498   3.854   6.131  10.998 -0.3019 -0.8098  0.8367
 5003TIP3   OH236499   1.727   3.381   6.021 -0.2576  0.0105 -0.4824
 5003TIP3    H136500   1.640   3.340   6.028 -0.8737  1.3037 -0.2468
 5003TIP3    H236501   1.729   3.442   6.095  0.1727  1.2140 -1.4727
 5004TIP3   OH236502   1.334   0.797  14.609 -0.0580  0.8148  0.3573
 5004TIP3    H136503   1.353   0.874  14.555  0.1697  0.3052 -0.2947
 5004TIP3    H236504   1.243   0.775  14.588 -0.3194  1.2580  0.9938
 5005TIP3   OH236505   2.815   6.708  16.224 -0.5136 -0.7092 -0.6939
 5005TIP3    H136506   2.749   6.674  16.285  0.9144 -2.4649 -0.0688
 5005TIP3    H236507   2.797   6.662  16.142  0.8766 -2.4102 -0.0850
 5006TIP3   OH236508   3.859   1.010  16.841  0.0867 -0.6775  0.0545
 5006TIP3    H136509   3.867   0.973  16.753  3.0489  0.3332 -0.1824
 5006TIP3    H236510   3.878   0.937  16.900 -0.4686 -1.0158 -0.1876
 5007TIP3   OH236511   3.479   6.173  16.226  0.6556 -0.1024 -0.0554
 5007TIP3    H136512   3.389   6.179  16.194 -0.4443  1.4634  3.1574
 5007TIP3    H236513   3.518   6.258  16.205  0.3289  0.4525  1.5264
 5008TIP3   OH236514   6.185   0.073   2.613 -0.2493 -0.4162  0.0356
 5008TIP3    H136515   6.100   0.117   2.610  0.4479  0.9734  0.5633
 5008TIP3    H236516   6.223   0.099   2.697 -0.2835 -2.9100  0.8802
 5009TIP3   OH236517   5.235   2.091  11.368  0.3032  0.7645 -0.0934
 5009TIP3    H136518   5.227   2.070  11.461 -3.4398  1.7330 -0.1304
 5009TIP3    H236519   5.165   2.042  11.326  1.2714  1.2079 -2.2869
 5010TIP3   OH236520   5.874   6.138  14.638 -0.3467 -0.2432  0.5090
 5010TIP3    H136521   5.880   6.230  14.664 -0.1893 -0.8507  2.7013
 5010TIP3    H236522   5.789   6.109  14.669  0.4786 -1.3941  1.7919
 5011TIP3   OH236523   3.311   6.337  12.102 -0.0808  0.3804  0.0518
 5011TIP3    H136524   3.241   6.386  12.146  0.4991 -0.3223  1.8024
 5011TIP3    H236525   3.357   6.402  12.049  0.4262  1.6469  2.0311
 5012TIP3   OH236526   2.152   4.717   3.727 -0.0957  0.5264 -0.1822
 5012TIP3    H136527   2.224   4.781   3.734 -0.5444  0.9227  0.9563
 5012TIP3    H236528   2.148   4.677   3.814 -1.8977  1.2141  0.0742
 5013TIP3   OH236529   5.600   4.122  16.499  0.3755 -0.1103  0.4426
 5013TIP3    H136530   5.630   4.122  16.407  2.3062 -0.7407  1.0329
 5013TIP3    H236531   5.524   4.065  16.499 -0.0879  0.4803 -0.9131
 5014TIP3   OH236532   3.860   1.268  16.072 -0.1269  0.0755 -0.1011
 5014TIP3    H136533   3.859   1.275  15.977 -0.4902 -0.9618 -0.1852
 5014TIP3    H236534   3.936   1.213  16.091  0.0714  0.4621  0.2212
 5015TIP3   OH236535   3.705   0.046  14.645  0.3257 -0.4809  0.5492
 5015TIP3    H136536   3.616   0.018  14.667 -0.5055 -0.7371 -2.8232
 5015TIP3    H236537   3.696   0.090  14.561  2.9232  2.5011  1.7526
 5016TIP3   OH236538   2.529   2.828  16.155  0.7266 -0.2006  0.3763
 5016TIP3    H136539   2.571   2.804  16.238  0.8105 -2.3319 -0.2492
 5016TIP3    H236540   2.464   2.759  16.141 -0.2631  0.9267 -0.6271
 5017TIP3   OH236541   2.865   5.724   1.383 -0.2032  0.2472 -0.1411
 5017TIP3    H136542   2.924   5.737   1.309  0.0300 -0.4325 -0.0838
 5017TIP3    H236543   2.777   5.732   1.346 -0.0957  2.4405 -0.0076
 5018TIP3   OH236544   6.637   3.448  12.684 -0.1423  0.7471  0.1600
 5018TIP3    H136545   6.556   3.436  12.733 -0.0609 -1.7217 -0.2256
 5018TIP3    H236546   6.612   3.433  12.593  0.7635 -0.2681  0.0664
 5019TIP3   OH236547   1.177   2.039   6.397  0.1809  0.1381  0.0724
 5019TIP3    H136548   1.249   2.103   6.398  1.6462 -1.4671 -0.3628
 5019TIP3    H236549   1.219   1.955   6.414 -1.6344 -0.8090  0.0062
 5020TIP3   OH236550   1.406   3.635   2.676 -0.5765  0.0614 -0.2475
 5020TIP3    H136551   1.470   3.704   2.695 -0.4618  0.0351 -0.5300
 5020TIP3    H236552   1.408   3.579   2.754 -1.6824  1.1359  0.5815
 5021TIP3   OH236553   1.448   1.928   0.938  0.6810  0.5107  0.3716
 5021TIP3    H136554   1.426   1.949   0.848  0.1578 -0.2717  0.3101
 5021TIP3    H236555   1.513   1.857   0.931  0.3269  0.1612  0.6159
 5022TIP3   OH236556   5.723   2.575   5.044 -0.0855 -0.1967  0.1019
 5022TIP3    H136557   5.765   2.550   5.127  0.0644 -0.0174  0.0814
 5022TIP3    H236558   5.679   2.658   5.064 -1.1255 -0.8041  0.3428
 5023TIP3   OH236559   4.132   1.536  16.091  0.2910 -0.0276  0.3548
 5023TIP3    H136560   4.102   1.498  16.174 -1.9788  1.5088  0.2852
 5023TIP3    H236561   4.092   1.481  16.024  0.3878 -0.0175  0.2916
 5024TIP3   OH236562   0.779   5.390  11.496 -0.2362 -0.1858  0.3802
 5024TIP3    H136563   0.731   5.328  11.551  2.5421 -2.0019  0.8200
 5024TIP3    H236564   0.723   5.401  11.418 -1.2895 -2.3896  0.7871
 5025TIP3   OH236565   1.772   0.035  15.362  0.4457 -0.2668 -0.2189
 5025TIP3    H136566   1.840   0.073  15.307 -0.2194  1.0595 -0.1679
 5025TIP3    H236567   1.690   0.067  15.323 -0.1226 -1.4401  0.0048
 5026TIP3   OH236568   3.294   0.518  11.346 -0.0728 -0.1949  0.0083
 5026TIP3    H136569   3.220   0.489  11.399 -1.5894 -0.5091 -2.1892
 5026TIP3    H236570   3.358   0.447  11.353  0.3830  0.4203  2.5362
 5027TIP3   OH236571   3.429   4.401   2.299 -0.5228  0.0923 -0.3438
 5027TIP3    H136572   3.394   4.490   2.289  1.0145  0.9459  1.6817
 5027TIP3    H236573   3.496   4.394   2.231 -0.0760  0.7744  0.0210
 5028TIP3   OH236574   4.207   0.664  14.812  0.1580  0.4915  0.1221
 5028TIP3    H136575   4.183   0.669  14.720 -0.1486  0.6313  0.2088
 5028TIP3    H236576   4.282   0.723  14.821  0.4286  0.1819 -0.1160
 5029TIP3   OH236577   5.573   5.447  11.806  0.5667 -0.6340  0.2172
 5029TIP3    H136578   5.640   5.387  11.774  2.2911  0.4393  1.6530
 5029TIP3    H236579   5.507   5.391  11.846  0.6341 -1.7211 -1.1929
 5030TIP3   OH236580   1.682   3.280  11.261 -0.0938 -0.4438 -0.3914
 5030TIP3    H136581   1.734   3.317  11.191 -0.2886  1.2825  0.3646
 5030TIP3    H236582   1.735   3.208  11.295  1.9807  1.4991  0.6018
 5031TIP3   OH236583   1.693   3.317  13.172 -0.2507  0.2538 -0.1390
 5031TIP3    H136584   1.681   3.266  13.092 -1.9178  1.2321 -0.5521
 5031TIP3    H236585   1.697   3.252  13.241  0.2056 -0.5629 -0.9242
 5032TIP3   OH236586   0.877   1.980  13.043 -0.0391 -0.1622 -0.2853
 5032TIP3    H136587   0.888   1.966  13.137  2.2088 -1.6398 -0.7389
 5032TIP3    H236588   0.797   1.932  13.021  0.5447 -1.5489  0.5220
 5033TIP3   OH236589   0.388   2.233  12.901  0.2144  0.0294 -0.0572
 5033TIP3    H136590   0.461   2.289  12.927  0.9580 -0.0608 -1.8648
 5033TIP3    H236591   0.377   2.249  12.807 -1.4564 -0.6964 -0.0092
 5034TIP3   OH236592   0.489   5.629   4.668  0.3296 -0.4501 -0.5723
 5034TIP3    H136593   0.435   5.674   4.602 -1.8282  1.7121  2.5221
 5034TIP3    H236594   0.430   5.565   4.707  0.5961  0.5033  1.4346
 5035TIP3   OH236595   1.425   1.609   0.515  0.4757 -0.1555  0.8592
 5035TIP3    H136596   1.500   1.654   0.553 -1.8829  2.0618  3.1167
 5035TIP3    H236597   1.399   1.663   0.441 -0.2396  0.3200  1.4501
 5036TIP3   OH236598   1.918   0.628  16.550 -0.0088  0.2368 -0.1399
 5036TIP3    H136599   2.001   0.662  16.516 -0.2230  0.6630 -0.2497
 5036TIP3    H236600   1.851   0.673  16.498 -0.3328  0.6207  0.5978
 5037TIP3   OH236601   1.432   5.511  14.535 -0.2850 -0.2618 -0.0163
 5037TIP3    H136602   1.518   5.470  14.530  0.7871  2.2291 -3.7951
 5037TIP3    H236603   1.447   5.593  14.581 -0.1795  1.1096 -2.4173
 5038TIP3   OH236604   2.938   5.242  12.464  0.6128 -0.6706  0.3275
 5038TIP3    H136605   3.033   5.236  12.451  0.6929  0.6816  0.2800
 5038TIP3    H236606   2.928   5.273  12.554  0.2473  0.8309 -0.2240
 5039TIP3   OH236607   0.407   0.226  15.127  0.4060  0.0353 -0.2879
 5039TIP3    H136608   0.468   0.172  15.176 -2.2585  0.1278  3.3769
 5039TIP3    H236609   0.337   0.166  15.101 -0.3490  0.8207 -0.1304
 5040TIP3   OH236610   3.628   6.528   4.231 -0.3275  0.5526  0.0072
 5040TIP3    H136611   3.710   6.486   4.207 -0.9942 -0.0764 -1.2415
 5040TIP3    H236612   3.645   6.569   4.316  0.6175 -1.3976  0.7789
 5041TIP3   OH236613   3.311   6.112  12.646 -0.4929 -0.1403 -0.2315
 5041TIP3    H136614   3.374   6.097  12.575  1.8515  1.0577  1.5302
 5041TIP3    H236615   3.257   6.185  12.614 -0.0725 -0.2281 -1.1733
 5042TIP3   OH236616   5.872   0.079  10.378 -0.1544  0.0081 -0.3286
 5042TIP3    H136617   5.814   0.154  10.389  2.3735  1.8161  1.1846
 5042TIP3    H236618   5.954   0.117  10.346  0.4940 -2.3806 -1.5820
 5043TIP3   OH236619   2.505   6.386  14.530  0.2940 -0.2082 -1.2380
 5043TIP3    H136620   2.533   6.453  14.468 -0.4013 -0.7800 -2.1726
 5043TIP3    H236621   2.585   6.364  14.579  0.3129  2.0706 -0.1622
 5044TIP3   OH236622   5.391   5.211  14.186  0.6710  0.0879  0.3013
 5044TIP3    H136623   5.441   5.165  14.119  1.5748 -0.6851  1.4751
 5044TIP3    H236624   5.310   5.160  14.196  0.8241 -0.1626  0.2496
 5045TIP3   OH236625   6.036   2.052  14.427 -0.7446  0.1785 -0.0420
 5045TIP3    H136626   6.088   1.972  14.429  0.2929  0.8224 -0.4208
 5045TIP3    H236627   6.101   2.122  14.416 -1.6799  1.0136 -0.3387
 5046TIP3   OH236628   6.216   0.037   3.330 -0.1265 -0.2422  0.5488
 5046TIP3    H136629   6.234  -0.054   3.351 -1.1808 -0.2283  1.6148
 5046TIP3    H236630   6.182   0.035   3.240 -0.6725 -0.9742  0.7647
 5047TIP3   OH236631   0.994   1.123   4.127  0.6196 -0.2670  0.3175
 5047TIP3    H136632   1.018   1.177   4.051  2.2300 -2.4957 -0.8174
 5047TIP3    H236633   1.077   1.087   4.158 -0.0262  0.5535  3.1343
 5048TIP3   OH236634   5.800   5.293   2.003 -0.4069 -0.4494 -0.0249
 5048TIP3    H136635   5.893   5.293   1.981  0.0862 -0.2629  1.9146
 5048TIP3    H236636   5.785   5.208   2.045 -1.2342 -0.6864 -0.7750
 5049TIP3   OH236637   6.704   5.341  16.909 -0.3892  0.1032  0.5196
 5049TIP3    H136638   6.642   5.399  16.865  0.8701  1.8328  0.9593
 5049TIP3    H236639   6.766   5.315  16.841 -0.1813  0.3629  0.6069
 5050TIP3   OH236640   6.802   3.294   2.213 -0.2592  0.0656  0.4553
 5050TIP3    H136641   6.805   3.210   2.258 -1.3782 -0.0344  0.3546
 5050TIP3    H236642   6.727   3.288   2.154  0.4781  0.6381 -0.5532
 5051TIP3   OH236643   5.738   4.648  11.796 -0.5311  0.2702  0.3982
 5051TIP3    H136644   5.818   4.618  11.838 -1.6198 -0.4820  1.9862
 5051TIP3    H236645   5.714   4.727  11.843 -0.8712  0.3445  0.1008
 5052TIP3   OH236646   5.769   5.349   5.820  0.4136  0.1041  0.1587
 5052TIP3    H136647   5.799   5.262   5.846  1.5472  0.1106 -1.0475
 5052TIP3    H236648   5.812   5.365   5.736 -0.4745  1.4700 -0.0610
 5053TIP3   OH236649   1.754   0.037   0.483 -0.1856  0.1092  0.1143
 5053TIP3    H136650   1.748   0.129   0.457 -0.6937 -0.4459 -1.8557
 5053TIP3    H236651   1.668   0.001   0.462  0.6098 -1.2359 -0.9191
 5054TIP3   OH236652   5.011   4.542  15.581 -0.4604 -0.0691  0.1555
 5054TIP3    H136653   5.034   4.624  15.538 -0.1422  0.1427  0.7248
 5054TIP3    H236654   4.945   4.502  15.524  1.5883 -0.8754 -1.7201
 5055TIP3   OH236655   4.520   1.355  14.295  0.1121  1.0014  0.5174
 5055TIP3    H136656   4.582   1.390  14.231 -0.5339  0.5666 -0.3530
 5055TIP3    H236657   4.574   1.329  14.370  1.1148 -0.4704 -0.7125
 5056TIP3   OH236658   0.141   5.610   1.320  0.1519  0.2850 -0.5524
 5056TIP3    H136659   0.198   5.557   1.376 -1.0326 -0.0130  0.4097
 5056TIP3    H236660   0.098   5.671   1.381 -0.2516  0.7712 -1.3167
 5057TIP3   OH236661   4.865   0.530   4.113 -0.2844  0.1279 -0.4305
 5057TIP3    H136662   4.870   0.584   4.192  1.9035 -0.3164 -0.2181
 5057TIP3    H236663   4.859   0.440   4.145 -0.8252  0.0381 -0.7751
 5058TIP3   OH236664   4.989   1.172   4.314 -0.0350 -0.3144  0.3386
 5058TIP3    H136665   5.013   1.228   4.387  0.0900 -1.2132  1.0010
 5058TIP3    H236666   5.069   1.164   4.261 -0.4731  1.3684 -0.5948
 5059TIP3   OH236667   1.742   4.233   4.627  0.0972 -0.3805  0.3329
 5059TIP3    H136668   1.803   4.305   4.637 -0.9845  0.2309  2.9123
 5059TIP3    H236669   1.655   4.272   4.638 -0.7707 -1.3986 -2.2650
 5060TIP3   OH236670   2.890   2.442   2.374 -0.4037  0.2410 -0.3444
 5060TIP3    H136671   2.796   2.425   2.368 -0.2333 -0.7171 -0.3887
 5060TIP3    H236672   2.904   2.516   2.315 -1.2416  0.8596  0.2111
 5061TIP3   OH236673   1.436   0.274   5.754 -0.0192 -0.4373  0.1819
 5061TIP3    H136674   1.489   0.318   5.688  0.0234 -1.6459 -0.5962
 5061TIP3    H236675   1.481   0.293   5.837 -0.9352  2.3583  0.0636
 5062TIP3   OH236676   5.249   4.273   6.679  0.2733  0.0506 -0.5407
 5062TIP3    H136677   5.216   4.361   6.695 -1.8691 -0.5216 -1.7214
 5062TIP3    H236678   5.297   4.251   6.759 -1.7245  1.1207  0.9915
 5063TIP3   OH236679   0.745   2.329  14.606 -0.5696 -0.1729  0.0092
 5063TIP3    H136680   0.716   2.248  14.565  1.1841 -0.7611 -0.1134
 5063TIP3    H236681   0.689   2.397  14.567 -1.5053 -1.2153 -0.4829
 5064TIP3   OH236682   2.696   2.187  11.132  0.0614 -0.1903 -0.6992
 5064TIP3    H136683   2.783   2.186  11.093  0.2877 -2.4503 -0.2144
 5064TIP3    H236684   2.711   2.182  11.226 -0.5543  2.5564 -0.4030
 5065TIP3   OH236685   3.607   5.240   2.209 -0.0512  0.6785  0.1726
 5065TIP3    H136686   3.546   5.234   2.135  0.1374 -0.4997  0.1094
 5065TIP3    H236687   3.585   5.323   2.251 -0.7375  0.9456 -0.7008
 5066TIP3   OH236688   2.880   1.153  16.080 -0.1170  0.1258  0.1808
 5066TIP3    H136689   2.939   1.216  16.122 -1.8326  0.3512  2.2961
 5066TIP3    H236690   2.906   1.068  16.116 -0.5565  0.1261  0.4925
 5067TIP3   OH236691   4.669   3.186   5.525  0.1206  0.3540  0.4188
 5067TIP3    H136692   4.738   3.214   5.586 -0.7832 -0.9442  2.0901
 5067TIP3    H236693   4.598   3.249   5.539 -0.9750 -1.2644  2.4249
 5068TIP3   OH236694   2.416   6.496  12.286 -0.6751 -0.2420  0.4119
 5068TIP3    H136695   2.406   6.422  12.225  1.7293 -1.4771  1.4513
 5068TIP3    H236696   2.489   6.471  12.342 -1.5103  1.8020  2.5007
 5069TIP3   OH236697   0.101   0.524   0.941 -0.0230  0.0462 -0.1642
 5069TIP3    H136698   0.092   0.551   0.849  0.2126 -1.1033 -0.5298
 5069TIP3    H236699   0.079   0.431   0.941  0.7990 -0.1593  0.8025
 5070TIP3   OH236700   2.612   6.711  11.121  0.0036  0.1248 -0.0740
 5070TIP3    H136701   2.542   6.773  11.099 -0.4151 -0.2701  0.1242
 5070TIP3    H236702   2.609   6.705  11.216  0.9918  0.8882  0.0043
 5071TIP3   OH236703   1.676   5.395   1.196 -0.5389 -0.4747  0.1882
 5071TIP3    H136704   1.602   5.388   1.136 -0.5008  0.1355  0.0642
 5071TIP3    H236705   1.651   5.343   1.272 -1.0441 -0.3656  0.0979
 5072TIP3   OH236706   5.144   4.054  16.030 -0.4540 -0.0538  0.2817
 5072TIP3    H136707   5.112   4.023  15.945 -1.3370 -0.9663  0.9368
 5072TIP3    H236708   5.075   4.111  16.063  0.5597  1.5140 -0.2892
 5073TIP3   OH236709   3.263   1.330  12.435 -0.5258 -1.2531 -0.4296
 5073TIP3    H136710   3.345   1.288  12.406 -1.0495 -3.1229  0.7432
 5073TIP3    H236711   3.215   1.346  12.354  0.3973 -1.4192 -1.0243
 5074TIP3   OH236712   0.095   3.257   1.673 -0.2104 -0.4025 -0.2543
 5074TIP3    H136713   0.052   3.336   1.641 -1.7465 -0.8349  0.6991
 5074TIP3    H236714   0.140   3.284   1.753 -0.1932 -0.3477 -0.2828
 5075TIP3   OH236715   1.491   4.482   4.067 -0.2154  0.2019 -0.0622
 5075TIP3    H136716   1.473   4.566   4.110 -1.4327 -1.0719  1.9727
 5075TIP3    H236717   1.407   4.455   4.030 -0.4045 -1.2771  1.4008
 5076TIP3   OH236718   5.161   3.613  11.494 -0.1859 -0.1425  0.4925
 5076TIP3    H136719   5.249   3.648  11.508 -0.2238  0.5434 -0.9606
 5076TIP3    H236720   5.104   3.671  11.544 -0.1181  1.1686 -0.9161
 5077TIP3   OH236721   2.723   3.177  11.413  0.0962  0.0961 -0.1124
 5077TIP3    H136722   2.654   3.233  11.448 -0.2246  0.1036 -0.7331
 5077TIP3    H236723   2.762   3.135  11.489  0.7890  1.6844  0.4183
 5078TIP3   OH236724   2.394   0.225  14.114  0.1166 -0.4019  0.6825
 5078TIP3    H136725   2.415   0.156  14.177 -0.5003  1.0968  2.6149
 5078TIP3    H236726   2.399   0.306  14.165 -1.0082  0.8111 -1.0571
 5079TIP3   OH236727   5.986   6.642  10.913 -0.5555 -0.1717 -0.2336
 5079TIP3    H136728   6.021   6.553  10.906  1.1893  0.4936 -0.4314
 5079TIP3    H236729   5.974   6.669  10.822  0.4720  0.3584 -0.2233
 5080TIP3   OH236730   0.871   1.478  14.979  0.0579  0.0344 -0.4164
 5080TIP3    H136731   0.905   1.389  14.965  1.7102  0.5499  0.2355
 5080TIP3    H236732   0.949   1.533  14.985 -0.8494  1.1737  1.5933
 5081TIP3   OH236733   6.614   6.402  12.485  0.0371 -0.9448 -0.1141
 5081TIP3    H136734   6.554   6.461  12.530 -0.2393 -1.6701  0.4811
 5081TIP3    H236735   6.687   6.459  12.457 -0.2423 -0.3193  0.4092
 5082TIP3   OH236736   3.425   1.579  10.536 -0.1075  0.5151  0.2590
 5082TIP3    H136737   3.452   1.666  10.507 -0.9119  0.9255  0.7200
 5082TIP3    H236738   3.416   1.587  10.631 -0.5133  0.0187  0.2689
 5083TIP3   OH236739   3.628   1.439   1.326 -0.7246 -0.8690  0.3365
 5083TIP3    H136740   3.723   1.442   1.339 -0.6813  2.2033 -0.2780
 5083TIP3    H236741   3.617   1.406   1.237 -0.2004 -0.5013  0.1311
 5084TIP3   OH236742   0.054   4.060   5.788  0.3597 -0.0440 -0.6718
 5084TIP3    H136743   0.115   4.031   5.856  0.9118  1.4375 -0.5194
 5084TIP3    H236744   0.041   3.983   5.733  1.5786 -0.6519 -0.1169
 5085TIP3   OH236745   4.764   3.931   4.124  0.6151  0.4262 -0.5757
 5085TIP3    H136746   4.806   3.999   4.073  1.7792  0.7174  0.7446
 5085TIP3    H236747   4.690   3.975   4.167 -0.4163  0.1606 -2.0294
 5086TIP3   OH236748   1.174   2.304  11.795 -0.1967  0.3253  0.0098
 5086TIP3    H136749   1.147   2.274  11.708 -0.6685 -0.2009  0.3399
 5086TIP3    H236750   1.164   2.399  11.791 -3.0523  0.0835  0.4418
 5087TIP3   OH236751   1.876   1.209   1.535 -0.0047 -0.7631  0.3505
 5087TIP3    H136752   1.858   1.276   1.470  0.1066 -1.3088 -0.2510
 5087TIP3    H236753   1.963   1.229   1.568 -0.7185  0.4752  1.5281
 5088TIP3   OH236754   3.279   6.093  14.825 -0.0442  0.6559 -0.3337
 5088TIP3    H136755   3.314   6.168  14.873  0.2843  0.3745 -0.1252
 5088TIP3    H236756   3.230   6.043  14.890  0.7832  0.0325 -0.1733
 5089TIP3   OH236757   3.155   2.943  12.551  0.0406 -0.5827  0.1143
 5089TIP3    H136758   3.075   2.994  12.566 -1.5746 -2.2194 -2.4656
 5089TIP3    H236759   3.223   3.008  12.537 -1.2478  0.8517  0.2882
 5090TIP3   OH236760   1.741   1.207  16.700 -0.2649 -0.1548  0.0455
 5090TIP3    H136761   1.708   1.229  16.787  0.0331  0.0243  0.1169
 5090TIP3    H236762   1.701   1.271  16.642 -0.2800 -0.1280  0.0851
 5091TIP3   OH236763   3.529   0.788   4.222 -0.3218 -0.9075  0.9444
 5091TIP3    H136764   3.509   0.836   4.142 -3.7192 -0.1788  2.1564
 5091TIP3    H236765   3.608   0.738   4.201  0.2830  1.1863 -2.0217
 5092TIP3   OH236766   4.731   6.450  11.692 -0.0351 -0.5210  0.3006
 5092TIP3    H136767   4.737   6.447  11.787 -1.0851 -1.3026  0.3550
 5092TIP3    H236768   4.778   6.372  11.662 -1.4266 -1.3795  0.2900
 5093TIP3   OH236769   3.913   5.448  14.294  0.1430  0.1299  0.1086
 5093TIP3    H136770   3.956   5.477  14.214  0.4548 -2.6078 -0.7853
 5093TIP3    H236771   3.824   5.426  14.267 -1.1993  3.5056  1.4806
 5094TIP3   OH236772   0.494   5.504  16.672  0.4421  0.0220  0.1903
 5094TIP3    H136773   0.500   5.589  16.716  0.3698 -0.5984  1.4009
 5094TIP3    H236774   0.457   5.525  16.586  0.5574  1.2297  0.4204
 5095TIP3   OH236775   3.958   5.340   5.797  0.3954  0.2745  0.3217
 5095TIP3    H136776   3.950   5.245   5.795  0.2488  0.3180 -1.7713
 5095TIP3    H236777   3.892   5.371   5.734  2.0556  1.6435 -0.7724
 5096TIP3   OH236778   3.841   3.107  14.633  0.7420  0.5434  0.3319
 5096TIP3    H136779   3.888   3.043  14.687  1.6397  0.2874 -0.7314
 5096TIP3    H236780   3.809   3.056  14.559 -0.7774  0.8232  0.7723
 5097TIP3   OH236781   5.340   5.460  15.580 -0.5063  0.0759 -0.0620
 5097TIP3    H136782   5.345   5.463  15.485  1.4991 -0.9208 -0.0137
 5097TIP3    H236783   5.394   5.533  15.609  1.6605 -1.6210  0.3186
 5098TIP3   OH236784   0.179   2.350  12.451  0.0682  0.7821  0.2631
 5098TIP3    H136785   0.141   2.437  12.437 -0.4250  0.2303 -2.0802
 5098TIP3    H236786   0.125   2.292  12.398  0.4749 -0.9646  1.6954
 5099TIP3   OH236787   2.016   0.157   5.660  0.7005  1.0910 -0.0240
 5099TIP3    H136788   2.090   0.151   5.600  0.6928  1.1034 -0.0345
 5099TIP3    H236789   2.055   0.143   5.747  0.4115 -1.0203 -0.1948
 5100TIP3   OH236790   5.310   0.954   4.917 -0.1680  0.2048 -0.0624
 5100TIP3    H136791   5.380   0.890   4.935  0.1745  0.4686 -0.4487
 5100TIP3    H236792   5.230   0.907   4.939  0.1536  0.0315  0.7730
 5101TIP3   OH236793   1.570   0.691  16.541 -0.1025 -0.8874  0.2587
 5101TIP3    H136794   1.503   0.675  16.476 -0.9786 -0.7627  1.1215
 5101TIP3    H236795   1.528   0.673  16.625  1.1595 -1.5609  0.7691
 5102TIP3   OH236796   5.301   5.654  16.015 -0.2803 -0.3804 -0.4524
 5102TIP3    H136797   5.216   5.675  16.054  0.2855 -1.0555  1.2258
 5102TIP3    H236798   5.330   5.735  15.975 -0.6490  0.5130  1.0365
 5103TIP3   OH236799   2.231   5.434   3.400  0.2153 -0.4809  0.2941
 5103TIP3    H136800   2.295   5.494   3.438 -1.0110 -0.8485  3.0089
 5103TIP3    H236801   2.278   5.392   3.327  2.6166  0.2410  1.3836
 5104TIP3   OH236802   6.658   1.242   3.726  0.0693 -0.4806  0.0779
 5104TIP3    H136803   6.696   1.178   3.786  1.1289  0.5460  0.5230
 5104TIP3    H236804   6.596   1.291   3.779  1.3960  0.7816  0.5018
 5105TIP3   OH236805   2.720   1.669   1.857 -0.6332 -0.5900 -0.4479
 5105TIP3    H136806   2.735   1.592   1.911 -1.9053 -0.6650 -0.1838
 5105TIP3    H236807   2.662   1.639   1.788 -1.7218  0.2870  0.0657
 5106TIP3   OH236808   2.329   5.295   5.501 -0.1008  0.2005 -0.0105
 5106TIP3    H136809   2.286   5.374   5.468 -0.6005  0.3554  1.0062
 5106TIP3    H236810   2.287   5.224   5.454 -0.6757  0.4346  0.1518
 5107TIP3   OH236811   5.614   6.503   2.540 -0.6134  0.1287  0.1695
 5107TIP3    H136812   5.656   6.420   2.519 -0.0314  0.1542  1.2056
 5107TIP3    H236813   5.573   6.489   2.625  0.9232  1.4156  1.1448
 5108TIP3   OH236814   2.213   3.573   1.842 -0.3334  0.2211 -0.1383
 5108TIP3    H136815   2.197   3.624   1.922 -0.8198 -1.9110  1.1624
 5108TIP3    H236816   2.186   3.484   1.865 -0.8820 -0.3427 -2.8384
 5109TIP3   OH236817   6.402   6.224   4.122 -0.0181  0.2888  0.0783
 5109TIP3    H136818   6.396   6.297   4.060 -2.1098  0.0693 -0.0289
 5109TIP3    H236819   6.408   6.265   4.207 -0.1353  0.6045 -0.0653
 5110TIP3   OH236820   6.709   3.198   1.123 -0.4416  0.3088  0.6504
 5110TIP3    H136821   6.615   3.181   1.117 -0.3818 -0.1290  0.9146
 5110TIP3    H236822   6.720   3.286   1.087 -0.7729 -0.1890 -0.7196
 5111TIP3   OH236823   2.561   5.018   0.283  0.2100  0.5950  0.3859
 5111TIP3    H136824   2.598   5.059   0.205  2.2547 -2.8975 -0.5719
 5111TIP3    H236825   2.471   4.995   0.257  0.2688  1.1248 -0.3047
 5112TIP3   OH236826   3.810   3.170   5.283  0.3066 -0.0163 -0.5681
 5112TIP3    H136827   3.864   3.244   5.311 -0.1469  0.3428 -0.6328
 5112TIP3    H236828   3.815   3.171   5.188 -0.7607  0.7428 -0.6274
 5113TIP3   OH236829   5.642   4.670   0.341 -0.0351 -0.0608 -0.4518
 5113TIP3    H136830   5.663   4.763   0.353  1.0516 -0.3964  0.2605
 5113TIP3    H236831   5.652   4.655   0.247  0.7193  0.3199 -0.4330
 5114TIP3   OH236832   4.923   1.251  12.476  0.5192  0.9379 -0.2913
 5114TIP3    H136833   4.925   1.185  12.544 -0.2523  1.1971 -0.0125
 5114TIP3    H236834   4.933   1.334  12.522  1.1498  1.0377 -0.6047
 5115TIP3   OH236835   1.647   1.166   2.009 -0.0692  0.0034  0.5843
 5115TIP3    H136836   1.682   1.158   1.921 -0.6693 -0.1077  0.3516
 5115TIP3    H236837   1.637   1.260   2.023 -0.8121 -0.0144  0.1956
 5116TIP3   OH236838   0.314   4.450  15.061  0.1691  0.1971 -0.2997
 5116TIP3    H136839   0.368   4.529  15.064  0.1341  0.3168 -2.1295
 5116TIP3    H236840   0.294   4.431  15.152  2.1682  0.9382  0.3236
 5117TIP3   OH236841   3.477   3.990   6.491 -0.1382  0.9469  0.2428
 5117TIP3    H136842   3.551   3.967   6.548 -1.5934 -0.7907  1.4615
 5117TIP3    H236843   3.400   3.978   6.545 -1.4494  1.1285 -1.5365
 5118TIP3   OH236844   6.624   4.500   0.566 -0.2700  0.0858  0.5134
 5118TIP3    H136845   6.565   4.515   0.491  0.1885  4.0461  0.8106
 5118TIP3    H236846   6.573   4.528   0.642  0.4019 -0.8252  1.2978
 5119TIP3   OH236847   6.411   5.367   1.537 -0.1699 -0.7490 -0.2209
 5119TIP3    H136848   6.490   5.351   1.486 -0.3767  3.0543 -1.9228
 5119TIP3    H236849   6.357   5.422   1.480 -1.4285  1.6720  3.1481
 5120TIP3   OH236850   4.798   6.679   5.070 -0.1629  0.2083 -0.3381
 5120TIP3    H136851   4.851   6.666   5.149 -0.5554 -1.2098 -0.2915
 5120TIP3    H236852   4.709   6.656   5.097 -0.3272 -0.1204 -1.1396
 5121TIP3   OH236853   1.050   0.224  13.243 -0.1074  0.6117  0.1392
 5121TIP3    H136854   1.123   0.163  13.250 -0.4694 -0.0684 -1.7831
 5121TIP3    H236855   0.973   0.171  13.265 -0.4878  0.2128 -2.1136
 5122TIP3   OH236856   5.516   1.297   2.562 -0.5645 -0.4742 -0.5155
 5122TIP3    H136857   5.478   1.286   2.649 -1.1941 -0.7706 -0.8225
 5122TIP3    H236858   5.465   1.367   2.522 -0.0978 -0.1493 -0.5509
 5123TIP3   OH236859   5.557   3.588  16.935  0.1146  0.6522 -0.6197
 5123TIP3    H136860   5.559   3.631  16.850 -0.7147  0.8530 -0.5454
 5123TIP3    H236861   5.510   3.649  16.992  3.0651  1.7738  0.6867
 5124TIP3   OH236862   6.330   5.005  16.614 -0.0038 -0.2792 -0.0563
 5124TIP3    H136863   6.373   5.090  16.604 -1.0024  0.1612 -0.6942
 5124TIP3    H236864   6.316   4.996  16.708 -2.3298  1.5096 -0.1882
 5125TIP3   OH236865   2.118   1.373  13.507  0.8077 -0.2802 -0.0349
 5125TIP3    H136866   2.144   1.427  13.581  0.8270  2.1474 -1.7561
 5125TIP3    H236867   2.037   1.331  13.535  1.8354 -0.9436  2.0539
 5126TIP3   OH236868   2.620   2.623  11.387  0.1223 -0.3933  0.0562
 5126TIP3    H136869   2.643   2.651  11.476 -0.0618  0.2346 -0.0885
 5126TIP3    H236870   2.640   2.699  11.333 -0.1985 -0.6199 -0.3789
 5127TIP3   OH236871   5.643   5.900  16.959  0.0428 -0.2824  0.0563
 5127TIP3    H136872   5.692   5.959  16.901  1.0025 -1.5591 -0.4441
 5127TIP3    H236873   5.705   5.878  17.028 -0.4638 -0.3476  0.4908
 5128TIP3   OH236874   0.271   5.761   4.163  0.0714  0.1458 -0.2524
 5128TIP3    H136875   0.257   5.830   4.099  1.3113  0.7733  0.1225
 5128TIP3    H236876   0.366   5.747   4.163 -0.0136 -0.5333  0.7329
 5129TIP3   OH236877   3.058   1.262   0.532  0.1333  0.0258  0.6594
 5129TIP3    H136878   3.005   1.184   0.543  0.0302  0.1321  0.9134
 5129TIP3    H236879   3.092   1.281   0.619  0.4853  0.0319  0.5222
 5130TIP3   OH236880   1.708   4.925   6.253  1.0534 -0.1394 -0.4187
 5130TIP3    H136881   1.795   4.957   6.278  0.6844  1.3535 -0.9790
 5130TIP3    H236882   1.649   4.965   6.316  0.4783  1.1190 -1.7068
 5131TIP3   OH236883   6.361   2.840   1.174 -0.1257 -0.0754 -0.2866
 5131TIP3    H136884   6.450   2.840   1.138 -0.6974  3.0395 -1.8568
 5131TIP3    H236885   6.305   2.820   1.100 -0.9078  0.7052  0.0787
 5132TIP3   OH236886   0.222   0.429  15.609 -0.1698 -0.0811 -0.0374
 5132TIP3    H136887   0.142   0.399  15.566 -0.2963 -0.0758  0.1957
 5132TIP3    H236888   0.209   0.409  15.701  0.4108 -0.7782 -0.0964
 5133TIP3   OH236889   0.154   3.611   5.474 -0.0123 -0.4889 -0.2084
 5133TIP3    H136890   0.209   3.558   5.532 -0.0270 -1.6874 -1.2787
 5133TIP3    H236891   0.209   3.629   5.398 -0.7183 -0.7570 -0.7880
 5134TIP3   OH236892   2.047   0.391  12.526  0.9977 -0.1129  0.1548
 5134TIP3    H136893   2.134   0.398  12.487 -0.0732  0.5258 -2.2483
 5134TIP3    H236894   2.012   0.480  12.523 -0.7129 -0.8000 -1.3778
 5135TIP3   OH236895   3.349   6.413   4.175 -0.9915  0.0486 -0.0510
 5135TIP3    H136896   3.355   6.318   4.177  0.0124  0.1074  0.1969
 5135TIP3    H236897   3.430   6.443   4.216 -0.9325  1.0146 -0.8339
 5136TIP3   OH236898   5.512   4.099   2.151 -0.0568 -0.2244 -0.4867
 5136TIP3    H136899   5.557   4.086   2.235 -0.3657 -0.4138 -0.3486
 5136TIP3    H236900   5.470   4.015   2.133 -0.0154 -0.1738 -0.8185
 5137TIP3   OH236901   4.706   4.615  15.884  0.8487  0.7006 -0.8466
 5137TIP3    H136902   4.679   4.706  15.870  0.4814  0.5176 -1.3274
 5137TIP3    H236903   4.626   4.571  15.913  0.8013  0.3084 -1.5861
 5138TIP3   OH236904   4.519   4.531  14.929  0.3510  0.2183  0.5097
 5138TIP3    H136905   4.583   4.598  14.952  1.2297 -0.2600 -0.5118
 5138TIP3    H236906   4.442   4.580  14.902  1.3016  0.8426 -1.1269
 5139TIP3   OH236907   2.501   5.106  12.698  0.3320 -0.3525  0.3660
 5139TIP3    H136908   2.520   5.163  12.623 -0.7800  0.5749  0.7646
 5139TIP3    H236909   2.529   5.157  12.774  1.6545 -1.3763  0.5840
 5140TIP3   OH236910   5.838   3.854   2.494  0.0813  0.5298  0.0802
 5140TIP3    H136911   5.927   3.826   2.472 -0.0405  0.4357 -0.2990
 5140TIP3    H236912   5.828   3.831   2.587 -0.7211 -2.5830 -0.6971
 5141TIP3   OH236913   2.307   0.026  15.798  0.0252 -0.2579 -0.0697
 5141TIP3    H136914   2.269  -0.018  15.722  0.8747 -0.0909 -0.6062
 5141TIP3    H236915   2.375   0.083  15.760  1.3816 -1.1881  0.9269
 5142TIP3   OH236916   1.530   1.478   1.997  0.1426 -0.0635  0.4430
 5142TIP3    H136917   1.457   1.540   1.991  0.0250 -0.2571 -0.2575
 5142TIP3    H236918   1.572   1.497   2.081 -0.4809  0.3114  0.6706
 5143TIP3   OH236919   5.582   0.884   3.913  0.0910 -0.4231  1.1221
 5143TIP3    H136920   5.582   0.856   3.821  0.5268  0.8302  0.7372
 5143TIP3    H236921   5.489   0.889   3.936 -0.1021  1.6125  0.0128
 5144TIP3   OH236922   3.378   2.314   0.611  0.0400  0.1459  0.0749
 5144TIP3    H136923   3.367   2.248   0.680  2.0010  2.2713  2.5738
 5144TIP3    H236924   3.471   2.309   0.589 -0.2072  0.7545 -1.1116
 5145TIP3   OH236925   6.756   0.164  14.409 -0.5103 -0.4770 -0.7534
 5145TIP3    H136926   6.741   0.188  14.318  1.3670  0.4130 -0.8686
 5145TIP3    H236927   6.683   0.204  14.457 -1.5291 -0.9933 -1.8586
 5146TIP3   OH236928   4.837   4.571  14.471 -0.2123 -0.0792 -0.1583
 5146TIP3    H136929   4.779   4.580  14.547 -1.3992 -0.3482 -1.0155
 5146TIP3    H236930   4.903   4.507  14.499  0.0690  0.7306  1.0588
 5147TIP3   OH236931   2.905   0.679  15.440 -0.3044 -0.3473  0.0169
 5147TIP3    H136932   2.900   0.682  15.344  0.1786 -2.5236 -0.1104
 5147TIP3    H236933   2.890   0.587  15.461  1.7104 -0.2839  1.9029
 5148TIP3   OH236934   0.469   5.002  13.906  0.6546 -1.0921 -0.1517
 5148TIP3    H136935   0.491   5.092  13.882  0.3190 -0.6097  1.3062
 5148TIP3    H236936   0.405   5.010  13.976  0.3774 -2.4721 -0.2247
 5149TIP3   OH236937   5.921   1.143  12.262  0.0485  0.0803  0.1482
 5149TIP3    H136938   6.012   1.135  12.290 -0.0889  3.0923  1.7138
 5149TIP3    H236939   5.876   1.181  12.337 -1.9974  0.9061 -1.4385
 5150TIP3   OH236940   5.542   4.552   0.783 -0.0002 -0.5830 -0.3734
 5150TIP3    H136941   5.557   4.631   0.835  0.0513 -0.4437 -0.6004
 5150TIP3    H236942   5.597   4.485   0.824 -1.0450 -0.8513  0.6397
 5151TIP3   OH236943   4.723   3.122   0.728 -0.3611 -0.0861  0.3499
 5151TIP3    H136944   4.762   3.119   0.640  1.8089 -0.2217  1.2975
 5151TIP3    H236945   4.709   3.215   0.744 -0.3282 -0.0287  0.0562
 5152TIP3   OH236946   1.123   0.499  17.043  0.1454 -0.5748 -0.4935
 5152TIP3    H136947   1.068   0.577  17.048  2.3015  0.8998  0.9499
 5152TIP3    H236948   1.101   0.460  16.958 -1.7874  0.9387 -0.7445
 5153TIP3   OH236949   0.783   6.578   0.067  0.2558  0.2374 -0.1468
 5153TIP3    H136950   0.712   6.630   0.028 -0.5840  0.2799  1.4013
 5153TIP3    H236951   0.799   6.509   0.003 -2.7848 -1.1337  0.4427
 5154TIP3   OH236952   5.474   2.296   4.577  0.5555  0.3520 -0.3903
 5154TIP3    H136953   5.390   2.268   4.613  0.1846  0.1397 -1.3814
 5154TIP3    H236954   5.520   2.215   4.557  0.1311  0.4319 -1.7852
 5155TIP3   OH236955   4.875   5.901  16.140  0.4911  0.3888 -0.7529
 5155TIP3    H136956   4.862   5.992  16.164  1.0304  1.1598 -3.2598
 5155TIP3    H236957   4.831   5.891  16.055  1.9493 -1.1862 -1.3667
 5156TIP3   OH236958   6.767   5.867   4.536 -0.0387 -0.0990  0.7505
 5156TIP3    H136959   6.818   5.791   4.565  0.7144  0.7048  1.5820
 5156TIP3    H236960   6.796   5.883   4.446 -0.4267 -0.9887  0.4719
 5157TIP3   OH236961   0.294   6.372  15.692  0.0789  0.0069  0.1807
 5157TIP3    H136962   0.203   6.367  15.663 -0.2236 -0.8060  1.2220
 5157TIP3    H236963   0.329   6.449  15.648 -1.1482  0.3964 -0.1341
 5158TIP3   OH236964   2.397   3.786   5.566 -0.7269 -0.0555  0.4522
 5158TIP3    H136965   2.336   3.841   5.517 -0.2967  0.8205  0.8932
 5158TIP3    H236966   2.383   3.811   5.658  0.1347 -0.0197  0.5759
 5159TIP3   OH236967   2.204   5.611  13.790  0.4219  0.3609  0.4000
 5159TIP3    H136968   2.145   5.674  13.748 -0.0359 -0.4350 -0.1421
 5159TIP3    H236969   2.279   5.664  13.818  0.1118  1.1241 -0.1976
 5160TIP3   OH236970   5.664   6.739  10.851  0.4437 -0.3466 -0.7841
 5160TIP3    H136971   5.730   6.699  10.794  0.2542  0.4161 -1.5457
 5160TIP3    H236972   5.685   6.832  10.851 -0.3300 -0.1683 -0.6290
 5161TIP3   OH236973   1.799   6.315   2.026 -0.2097  0.3671  0.1976
 5161TIP3    H136974   1.842   6.266   1.955 -0.8521 -1.7510  1.2414
 5161TIP3    H236975   1.871   6.361   2.068  0.5364 -0.2589 -0.3520
 5162TIP3   OH236976   3.192   2.862   0.966  0.9286 -0.4581  0.0166
 5162TIP3    H136977   3.246   2.922   1.017 -0.3204  0.1572  0.6485
 5162TIP3    H236978   3.247   2.785   0.952  2.1362  0.3512  0.2058
 5163TIP3   OH236979   5.530   4.442  14.206  0.0240 -0.0167  0.3170
 5163TIP3    H136980   5.509   4.482  14.291 -0.6399 -0.6743  0.4678
 5163TIP3    H236981   5.624   4.458  14.194  0.3781 -0.9341  1.7215
 5164TIP3   OH236982   3.024   6.682  16.893 -0.1330 -0.4915 -0.5556
 5164TIP3    H136983   2.966   6.619  16.850  2.4294 -1.3703 -2.8518
 5164TIP3    H236984   3.087   6.628  16.940  0.3695  0.4145 -0.1826
 5165TIP3   OH236985   5.062   0.600  15.351 -0.4099  0.1064  0.0246
 5165TIP3    H136986   5.147   0.571  15.319 -0.9103 -3.9717  2.0112
 5165TIP3    H236987   5.082   0.672  15.411  1.4830  0.2079 -0.7063
 5166TIP3   OH236988   6.430   1.624   5.204  0.0151 -0.1432 -0.1376
 5166TIP3    H136989   6.509   1.669   5.232 -1.0355  1.1270  0.8379
 5166TIP3    H236990   6.451   1.590   5.117  2.0080 -0.8263  0.5721
 5167TIP3   OH236991   2.656   1.729  10.486  0.2760 -0.0502 -0.5285
 5167TIP3    H136992   2.751   1.719  10.493 -0.0551 -2.9311  0.7312
 5167TIP3    H236993   2.622   1.640  10.500 -2.5281  0.6737 -2.3850
 5168TIP3   OH236994   3.945   2.063   2.225 -0.0658  0.5524 -0.4280
 5168TIP3    H136995   3.999   2.117   2.167  2.0718 -0.0887  0.9242
 5168TIP3    H236996   3.967   2.093   2.313 -0.6987 -0.8497  0.2188
 5169TIP3   OH236997   1.148   4.885   4.081  0.4312 -0.5452 -0.1625
 5169TIP3    H136998   1.218   4.918   4.024 -2.8342  0.0599 -4.0495
 5169TIP3    H236999   1.119   4.803   4.039 -1.0904 -0.8414  1.4085
 5170TIP3   OH237000   4.843   5.428   4.870 -0.2109  0.7174  0.1818
 5170TIP3    H137001   4.876   5.498   4.813 -0.6242 -0.5912 -1.7362
 5170TIP3    H237002   4.791   5.473   4.937  0.4354  2.3146 -0.3800
 5171TIP3   OH237003   5.683   6.120  15.362  0.7014  0.3661 -0.4183
 5171TIP3    H137004   5.732   6.165  15.431 -0.7427  0.2130  0.7247
 5171TIP3    H237005   5.600   6.166  15.357  0.4488 -0.1800 -1.4632
 5172TIP3   OH237006   0.312   1.592   4.144  0.1957 -0.2462  0.1705
 5172TIP3    H137007   0.361   1.615   4.064 -0.8515 -1.9236 -0.9828
 5172TIP3    H237008   0.253   1.522   4.116 -2.4366  1.3319  1.6840
 5173TIP3   OH237009   2.553   4.956   4.464 -0.4575  0.8671 -0.0371
 5173TIP3    H137010   2.536   4.885   4.526  1.3306 -0.7251 -1.3072
 5173TIP3    H237011   2.540   4.917   4.378  2.3434  1.4990 -0.8262
 5174TIP3   OH237012   5.176   5.194   0.669  0.1446  0.4721  0.0462
 5174TIP3    H137013   5.146   5.230   0.752 -1.4578 -0.3711 -0.1559
 5174TIP3    H237014   5.256   5.146   0.691  0.5949  1.5521  0.8208
 5175TIP3   OH237015   4.603   0.106  13.085  0.5658  0.2327  0.4067
 5175TIP3    H137016   4.657   0.040  13.129  0.5599 -0.0815 -0.0621
 5175TIP3    H237017   4.626   0.099  12.993  1.7326  1.9771  0.5431
 5176TIP3   OH237018   1.364   3.309   4.458  0.0660 -0.2276  0.2751
 5176TIP3    H137019   1.340   3.401   4.472 -0.6757 -0.2606 -0.6973
 5176TIP3    H237020   1.441   3.313   4.400  0.3222 -0.2099  0.6159
 5177TIP3   OH237021   4.384   3.572   3.176  0.1791  0.2828  0.3508
 5177TIP3    H137022   4.465   3.536   3.212  0.8079  0.8768 -0.4694
 5177TIP3    H237023   4.326   3.496   3.168  1.2061 -0.4287 -0.5578
 5178TIP3   OH237024   3.895   0.256   1.068  0.4719 -0.2043  0.1881
 5178TIP3    H137025   3.823   0.307   1.030 -0.6313 -1.6811  0.2684
 5178TIP3    H237026   3.872   0.247   1.160  1.4068  0.4131  0.4832
 5179TIP3   OH237027   1.850   3.740  14.282 -0.2891  0.0965 -0.0124
 5179TIP3    H137028   1.932   3.776  14.248 -0.1775 -0.1571 -0.0122
 5179TIP3    H237029   1.875   3.698  14.365 -0.7181  1.5005  0.8447
 5180TIP3   OH237030   2.299   5.138   5.144  0.6192  0.4605  0.7071
 5180TIP3    H137031   2.222   5.084   5.165 -0.6507  2.5092  1.4045
 5180TIP3    H237032   2.297   5.143   5.048  1.2937 -1.4657  0.5565
 5181TIP3   OH237033   1.216   0.661  15.763  0.4132  0.1979 -0.2483
 5181TIP3    H137034   1.136   0.612  15.778 -0.6020  2.3684  1.8088
 5181TIP3    H237035   1.187   0.740  15.716  0.8985  2.1500  2.5795
 5182TIP3   OH237036   3.867   5.085  12.996 -0.1807  0.1125 -0.3025
 5182TIP3    H137037   3.902   5.124  13.076  0.4437  0.3665 -0.7026
 5182TIP3    H237038   3.941   5.039  12.957 -0.1363  1.1436 -1.4425
 5183TIP3   OH237039   3.686   0.041   1.936 -0.0842 -0.1881 -0.4796
 5183TIP3    H137040   3.740   0.013   1.862  0.8484 -0.2722  0.2072
 5183TIP3    H237041   3.688   0.136   1.932 -3.5823 -0.1603 -3.0465
 5184TIP3   OH237042   3.812   3.239   6.226  0.0409 -0.4710  0.1433
 5184TIP3    H137043   3.719   3.260   6.221 -0.1054 -0.6023  2.0635
 5184TIP3    H237044   3.835   3.253   6.317  2.5067  2.0029 -0.7802
 5185TIP3   OH237045   2.458   1.145  11.456 -0.0654  0.4252  0.0453
 5185TIP3    H137046   2.494   1.174  11.540  0.2304  0.1969 -0.0002
 5185TIP3    H237047   2.364   1.161  11.463  0.0826  1.2933  0.0542
 5186TIP3   OH237048   3.790   2.777  13.739  0.5095  0.3115  0.2403
 5186TIP3    H137049   3.754   2.689  13.753  0.2878  0.7577  2.7219
 5186TIP3    H237050   3.866   2.763  13.683  0.6434 -1.4987  0.8387
 5187TIP3   OH237051   3.008   0.741   4.621  0.0067  0.1219  0.3668
 5187TIP3    H137052   3.102   0.728   4.621  0.4065  2.6054 -1.4143
 5187TIP3    H237053   2.976   0.690   4.546  0.0338 -0.1198  0.5203
 5188TIP3   OH237054   6.105   3.576  10.551 -0.2190  0.0192 -0.2520
 5188TIP3    H137055   6.138   3.509  10.490 -0.9298 -1.3815  0.8813
 5188TIP3    H237056   6.174   3.586  10.616 -1.1340 -1.4326  0.9732
 5189TIP3   OH237057   3.729   0.451   3.529  0.3449  0.1159 -0.0046
 5189TIP3    H137058   3.643   0.411   3.513  0.9169 -1.4299  0.6558
 5189TIP3    H237059   3.717   0.543   3.506 -0.8470 -0.5291 -2.1724
 5190TIP3   OH237060   6.518   0.488  16.154 -0.0166 -0.7900  0.0639
 5190TIP3    H137061   6.516   0.582  16.134  0.0944 -0.6756  0.5594
 5190TIP3    H237062   6.427   0.460  16.145  0.0190 -0.7269 -0.5039
 5191TIP3   OH237063   3.304   4.406  11.149  0.5270 -0.2483  0.1048
 5191TIP3    H137064   3.263   4.374  11.069  2.2151 -2.6656  0.1333
 5191TIP3    H237065   3.257   4.360  11.219 -0.4399  1.2813  0.4839
 5192TIP3   OH237066   6.553   1.356  11.180 -0.1955  0.9358 -0.2851
 5192TIP3    H137067   6.551   1.445  11.144  0.1635  1.2456  0.4444
 5192TIP3    H237068   6.541   1.299  11.104 -3.1328  1.6659 -0.4476
 5193TIP3   OH237069   6.057   3.825  11.844 -0.7007 -0.0297 -0.3967
 5193TIP3    H137070   6.103   3.861  11.920 -1.9626  0.5853  0.0974
 5193TIP3    H237071   6.070   3.889  11.775  1.0226 -0.9126 -0.9286
 5194TIP3   OH237072   4.107   6.790   1.601  0.2065 -0.7589 -0.3530
 5194TIP3    H137073   4.085   6.814   1.511  2.1926  1.4908 -0.2976
 5194TIP3    H237074   4.077   6.865   1.653  1.0943 -1.0491  0.5868
 5195TIP3   OH237075   0.798   0.126   5.933  0.6828 -0.0071 -0.5081
 5195TIP3    H137076   0.766   0.213   5.953  3.3492  1.2032 -1.3044
 5195TIP3    H237077   0.805   0.082   6.019  0.0025  0.7986 -0.0411
 5196TIP3   OH237078   5.046   0.065   0.770  0.0974 -0.0733 -0.3932
 5196TIP3    H137079   5.095  -0.017   0.760 -0.8868 -0.9134  1.3965
 5196TIP3    H237080   4.984   0.064   0.697 -1.1802 -1.8764  0.6599
 5197TIP3   OH237081   3.701   2.315  14.008 -0.0869 -0.2036 -0.4035
 5197TIP3    H137082   3.684   2.274  13.923 -1.3370  0.9837 -0.7494
 5197TIP3    H237083   3.797   2.318  14.014  0.0169 -0.4643 -1.6935
 5198TIP3   OH237084   5.746   0.875   2.233  0.2487 -0.0105  0.5669
 5198TIP3    H137085   5.702   0.959   2.221  0.5892  0.0960  0.0470
 5198TIP3    H237086   5.823   0.896   2.287  0.1279 -0.0533  0.7566
 5199TIP3   OH237087   1.812   3.771  12.370 -0.3568 -0.1487  0.4430
 5199TIP3    H137088   1.857   3.742  12.290 -0.8798  0.7725 -0.1871
 5199TIP3    H237089   1.719   3.762  12.350 -0.4850 -0.3241  1.1077
 5200TIP3   OH237090   0.948   1.692   1.014  0.0257 -0.7280  0.3918
 5200TIP3    H137091   0.938   1.777   1.055 -0.0572 -0.9749  0.8858
 5200TIP3    H237092   0.879   1.690   0.947  0.7900  0.0567 -0.4175
 5201TIP3   OH237093   5.109   0.822   0.480 -0.0137 -0.0806 -0.3669
 5201TIP3    H137094   5.045   0.890   0.460  0.2563  0.1973 -0.2922
 5201TIP3    H237095   5.088   0.750   0.420 -0.2530  0.0983 -0.4971
 5202TIP3   OH237096   2.599   6.343   5.910 -0.4291 -0.1597 -0.4706
 5202TIP3    H137097   2.624   6.419   5.964 -0.2288 -0.1579 -0.5654
 5202TIP3    H237098   2.671   6.334   5.847  0.5405 -1.6411  0.8015
 5203TIP3   OH237099   2.629   2.764   1.377  0.0069  0.0140 -0.4560
 5203TIP3    H137100   2.717   2.791   1.351  0.2194 -0.3567 -0.1187
 5203TIP3    H237101   2.625   2.671   1.353 -0.1237 -0.0908 -0.0218
 5204TIP3   OH237102   5.218   4.150   0.022 -0.4088  0.2948  0.1729
 5204TIP3    H137103   5.126   4.130   0.007 -0.3927  0.1408  0.2743
 5204TIP3    H237104   5.266   4.074  -0.012 -0.4306 -0.5684  2.0293
 5205TIP3   OH237105   0.935   2.995  16.198  0.5567  0.1856 -0.0191
 5205TIP3    H137106   1.017   2.951  16.178 -0.9181 -1.7039 -2.2051
 5205TIP3    H237107   0.913   3.042  16.117 -1.0618 -0.2951  0.1102
 5206TIP3   OH237108   0.224   0.592   2.010  0.0534  0.2341  0.1162
 5206TIP3    H137109   0.228   0.671   1.956 -4.5877  0.1067 -0.6007
 5206TIP3    H237110   0.251   0.522   1.951 -0.3569  0.6984 -0.6355
 5207TIP3   OH237111   0.464   6.119   4.567 -0.2510  0.1283  0.0296
 5207TIP3    H137112   0.368   6.111   4.573 -0.1316 -0.7710  0.7977
 5207TIP3    H237113   0.492   6.138   4.656  0.4160 -1.0589  0.0747
 5208TIP3   OH237114   2.665   1.609  16.742  0.1887 -0.5797  0.1973
 5208TIP3    H137115   2.579   1.572  16.761  0.3436 -0.8364  0.3956
 5208TIP3    H237116   2.724   1.569  16.807  0.1746  0.7595  1.0486
 5209TIP3   OH237117   2.103   3.583  13.589 -0.0206  0.1074 -0.2414
 5209TIP3    H137118   2.058   3.642  13.650  0.6081  0.2521  0.0896
 5209TIP3    H237119   2.108   3.500  13.636  1.1537  0.4300  0.2245
 5210TIP3   OH237120   5.405   6.813  11.137  0.1558  0.3948 -0.2103
 5210TIP3    H137121   5.461   6.772  11.071 -0.9602 -0.5272 -0.6064
 5210TIP3    H237122   5.334   6.750  11.150 -0.8896  1.6291  0.1409
 5211TIP3   OH237123   3.924   3.246   6.498  0.9360 -0.1063  1.2930
 5211TIP3    H137124   4.005   3.288   6.527  0.3358  0.3989  2.2831
 5211TIP3    H237125   3.863   3.260   6.571 -0.4001  0.5522  0.0583
 5212TIP3   OH237126   6.151   1.093  12.033 -0.2237 -0.0768  1.0310
 5212TIP3    H137127   6.155   1.137  12.119  1.4839 -1.8363  1.8900
 5212TIP3    H237128   6.202   1.150  11.975  1.1813 -0.3898  1.9176
 5213TIP3   OH237129   2.542   6.167   5.629  0.4447 -0.3948 -0.1080
 5213TIP3    H137130   2.480   6.234   5.661 -0.4491 -1.8226  1.2167
 5213TIP3    H237131   2.625   6.191   5.670 -0.4677 -1.6107  2.5926
 5214TIP3   OH237132   4.395   3.572  16.864  0.3104 -0.3544 -0.0665
 5214TIP3    H137133   4.444   3.627  16.802 -0.8898 -0.4473 -1.1175
 5214TIP3    H237134   4.454   3.500  16.884  1.7644  1.0887  1.0178
 5215TIP3   OH237135   1.388   2.704  15.184 -0.1168  0.9654  0.0600
 5215TIP3    H137136   1.471   2.735  15.147  0.4334 -0.7296 -0.1776
 5215TIP3    H237137   1.414   2.639  15.249 -1.2772 -0.1564 -0.5718
 5216TIP3   OH237138   4.600   4.242  12.804 -0.0567 -0.3889  0.0977
 5216TIP3    H137139   4.528   4.301  12.782  0.5143  0.4494  0.4364
 5216TIP3    H237140   4.666   4.299  12.844  1.5816 -0.8170 -1.9077
 5217TIP3   OH237141   5.266   5.081  11.469 -0.0126  0.2324 -0.2399
 5217TIP3    H137142   5.294   5.051  11.383  2.3840 -1.6722  1.1387
 5217TIP3    H237143   5.343   5.125  11.506 -0.1968 -1.1036  1.8558
 5218TIP3   OH237144   6.604   4.523  14.892 -0.3214  0.4254  0.0275
 5218TIP3    H137145   6.540   4.527  14.821  1.2663 -0.9672 -1.5467
 5218TIP3    H237146   6.553   4.499  14.970 -1.4981 -2.5015 -1.5470
 5219TIP3   OH237147   1.487   1.353   5.442 -0.2600  0.5060 -0.1504
 5219TIP3    H137148   1.488   1.287   5.511  2.3348  0.2946 -0.3609
 5219TIP3    H237149   1.490   1.437   5.490  2.3919  0.3512  0.0308
 5220TIP3   OH237150   6.772   6.346  16.447 -0.0053  0.1855  0.3099
 5220TIP3    H137151   6.817   6.403  16.510 -1.1266  0.5174  0.8255
 5220TIP3    H237152   6.679   6.362  16.462 -0.3468 -1.9342  0.5810
 5221TIP3   OH237153   4.579   1.267   5.777  0.0275  0.3978 -0.1947
 5221TIP3    H137154   4.496   1.300   5.812  0.1924  1.0973 -0.4601
 5221TIP3    H237155   4.559   1.178   5.749 -0.1769 -0.0883  1.4472
 5222TIP3   OH237156   5.610   3.102   5.683  0.3063  0.2119 -0.5109
 5222TIP3    H137157   5.660   3.165   5.631 -1.0183  0.3695 -1.6063
 5222TIP3    H237158   5.592   3.030   5.622 -0.4574 -0.0241 -0.0081
 5223TIP3   OH237159   6.514   1.621   3.328  0.1881  0.2116 -0.3237
 5223TIP3    H137160   6.536   1.531   3.351  1.1390  1.2046  2.7960
 5223TIP3    H237161   6.431   1.638   3.371 -1.1833  0.1178 -2.8368
 5224TIP3   OH237162   2.686   3.039   2.340 -0.4620  0.1835 -0.5706
 5224TIP3    H137163   2.660   2.951   2.365 -0.7388  0.7737  1.2778
 5224TIP3    H237164   2.729   3.075   2.418  0.4885  1.3555 -1.5985
 5225TIP3   OH237165   2.732   5.414   6.372 -0.7238  0.6735 -0.1404
 5225TIP3    H137166   2.759   5.385   6.459 -0.3723 -0.2224 -0.5426
 5225TIP3    H237167   2.692   5.337   6.332  0.1456  0.7516 -1.2036
 5226TIP3   OH237168   4.114   1.741  13.639 -0.4102  0.0351  0.4757
 5226TIP3    H137169   4.177   1.670  13.654  1.9336  1.8960 -0.2360
 5226TIP3    H237170   4.153   1.817  13.683 -1.3448  1.6216 -1.3913
 5227TIP3   OH237171   1.475   3.169   4.227 -0.1878 -0.2582  0.1164
 5227TIP3    H137172   1.422   3.100   4.187  1.5005 -1.5512  0.0321
 5227TIP3    H237173   1.522   3.209   4.153  2.1282 -1.9507  0.5786
 5228TIP3   OH237174   3.255   3.155   2.484  0.0554 -0.4659  0.1872
 5228TIP3    H137175   3.161   3.164   2.469  0.4295  0.2647 -1.9046
 5228TIP3    H237176   3.283   3.243   2.510  0.2410 -0.5610  0.3050
 5229TIP3   OH237177   1.891   1.377  14.757 -0.0021  0.2688  0.4798
 5229TIP3    H137178   1.851   1.386  14.844  0.4242  1.1276  0.5917
 5229TIP3    H237179   1.982   1.403  14.769 -0.0727  0.9378 -0.3310
 5230TIP3   OH237180   2.610   0.269   4.506  0.2049 -0.0327 -0.7599
 5230TIP3    H137181   2.612   0.257   4.601  0.3233 -2.8373 -1.0824
 5230TIP3    H237182   2.543   0.336   4.492  0.0683  0.2953  1.2682
 5231TIP3   OH237183   4.429   6.613   2.392  0.4001 -0.4696 -0.0199
 5231TIP3    H137184   4.342   6.639   2.361  0.0574 -0.6674  0.7571
 5231TIP3    H237185   4.489   6.669   2.344 -0.2262  0.5365  0.3639
 5232TIP3   OH237186   0.179   0.345  12.565 -0.3353 -0.6493  0.0704
 5232TIP3    H137187   0.264   0.385  12.586 -0.7353  0.1082  0.2907
 5232TIP3    H237188   0.126   0.418  12.533 -0.9931 -1.0620  0.1995
 5233TIP3   OH237189   3.658   4.197  15.427  0.4345 -0.2156 -0.3636
 5233TIP3    H137190   3.670   4.283  15.385  2.2009 -0.5913 -0.6729
 5233TIP3    H237191   3.577   4.163  15.389  1.0444  0.2531 -2.1314
 5234TIP3   OH237192   1.954   2.832   1.881 -0.4054 -0.4558  0.0190
 5234TIP3    H137193   2.037   2.839   1.927  0.3952 -2.0090 -1.1133
 5234TIP3    H237194   1.949   2.910   1.826  0.5004 -0.5669 -0.2185
 5235TIP3   OH237195   1.531   0.618   5.388 -0.1716  0.8651  0.2936
 5235TIP3    H137196   1.509   0.536   5.432  2.6880  0.8777  1.9032
 5235TIP3    H237197   1.447   0.660   5.371 -1.7478 -2.6973 -1.1866
 5236TIP3   OH237198   2.233   1.319   5.128  0.3772 -0.0819 -0.3409
 5236TIP3    H137199   2.219   1.233   5.169 -0.1542  0.2168  0.1207
 5236TIP3    H237200   2.314   1.309   5.078  1.2176 -0.3749  1.0351
 5237TIP3   OH237201   1.729   2.694   0.394  0.0026 -0.2773 -0.2075
 5237TIP3    H137202   1.822   2.673   0.403  0.3979  1.6291  0.2606
 5237TIP3    H237203   1.694   2.682   0.482 -0.1419 -0.6747 -0.3162
 5238TIP3   OH237204   0.985   2.130  16.746 -0.3777 -0.2185 -0.1594
 5238TIP3    H137205   0.892   2.106  16.746 -0.7534  1.0335 -3.2006
 5238TIP3    H237206   0.991   2.202  16.683  2.6756 -0.3358 -0.0592
 5239TIP3   OH237207   6.380   5.998  13.739  0.5002 -0.2203 -0.1381
 5239TIP3    H137208   6.357   6.084  13.775  0.4959  0.3996 -1.5825
 5239TIP3    H237209   6.476   5.997  13.739  0.5470  0.7510 -2.2760
 5240TIP3   OH237210   5.256   2.969   3.897  0.5418 -0.2906  0.3306
 5240TIP3    H137211   5.162   2.964   3.878  0.6316 -1.4797  0.1763
 5240TIP3    H237212   5.261   2.970   3.992  0.2617  2.2862  0.3552
 5241TIP3   OH237213   3.170   1.021   2.803  0.1600  0.2369  0.3610
 5241TIP3    H137214   3.181   0.961   2.877 -0.6269  0.1313  0.3985
 5241TIP3    H237215   3.123   0.970   2.737  0.7295  0.3757 -0.1608
 5242TIP3   OH237216   3.074   6.783  15.405  0.2829 -0.3513 -0.3638
 5242TIP3    H137217   3.049   6.858  15.460  2.9680  0.5637 -0.3203
 5242TIP3    H237218   3.033   6.801  15.320  0.7962  1.1292 -0.3158
 5243TIP3   OH237219   0.388   4.915   6.574 -0.2535 -0.9025 -0.4380
 5243TIP3    H137220   0.398   5.000   6.531  2.2357 -0.4724  0.9176
 5243TIP3    H237221   0.366   4.936   6.664  2.2290 -1.6263  0.3666
 5244TIP3   OH237222   4.713   4.065   1.847  0.0100 -0.1249 -0.4336
 5244TIP3    H137223   4.753   4.101   1.769  0.7403  0.2806  0.1237
 5244TIP3    H237224   4.726   4.132   1.914 -3.2278  0.8384 -0.6946
 5245TIP3   OH237225   4.728   3.190  16.979  0.4126  0.1964  0.2010
 5245TIP3    H137226   4.795   3.237  17.029  0.7147 -1.3663  1.3189
 5245TIP3    H237227   4.777   3.125  16.929 -0.1166  0.1849 -0.3022
 5246TIP3   OH237228   1.244   2.600   3.836 -0.0601 -0.5905  0.2156
 5246TIP3    H137229   1.248   2.509   3.866 -1.0740 -0.9009 -0.5577
 5246TIP3    H237230   1.220   2.593   3.744 -0.2205  0.4771  0.1747
 5247TIP3   OH237231   6.731   3.812  12.839 -0.3875 -0.3114  0.3081
 5247TIP3    H137232   6.771   3.898  12.856 -1.8109  0.5138 -0.4649
 5247TIP3    H237233   6.755   3.792  12.749 -0.3268 -0.5774  0.3847
 5248TIP3   OH237234   1.575   1.660  12.614 -0.4558 -0.1534 -0.6910
 5248TIP3    H137235   1.549   1.750  12.596 -2.6380 -0.7289 -0.6414
 5248TIP3    H237236   1.558   1.648  12.707  1.3615 -0.1584 -0.3364
 5249TIP3   OH237237   3.259   2.089  11.275 -0.2967 -0.0787 -0.1044
 5249TIP3    H137238   3.172   2.108  11.311 -0.9916 -0.8634 -1.3056
 5249TIP3    H237239   3.242   2.022  11.208  1.6341 -2.6673  1.8822
 5250TIP3   OH237240   3.411   3.865   1.286  0.2161 -0.0971  0.1488
 5250TIP3    H137241   3.375   3.848   1.373  0.6319  0.2204  0.3866
 5250TIP3    H237242   3.430   3.959   1.286 -0.3700  0.0226 -0.5072
 5251TIP3   OH237243   1.546   4.771   0.281  0.1035 -0.2958 -0.6226
 5251TIP3    H137244   1.495   4.735   0.208 -0.7608 -0.8674  0.2479
 5251TIP3    H237245   1.625   4.717   0.284 -0.5548 -1.2668 -0.1972
 5252TIP3   OH237246   4.716   3.835  11.978  0.4615 -0.4545 -0.1893
 5252TIP3    H137247   4.660   3.907  11.949  2.2978  1.6800  1.5035
 5252TIP3    H237248   4.799   3.849  11.933  1.5205 -0.2652  1.7640
 5253TIP3   OH237249   0.043   0.565   0.068  0.0734  0.3129  0.3502
 5253TIP3    H137250   0.083   0.580  -0.018  0.6842 -0.8687  0.4181
 5253TIP3    H237251  -0.011   0.642   0.083  2.8388  2.2939  0.5303
 5254TIP3   OH237252   2.241   1.273   6.142  0.2804 -0.0850 -0.3472
 5254TIP3    H137253   2.215   1.288   6.233  2.8598 -0.4138  0.5122
 5254TIP3    H237254   2.335   1.253   6.148  0.0825 -2.0220 -2.8879
 5255TIP3   OH237255   0.540   4.928  15.637 -0.3546 -0.0625 -0.3753
 5255TIP3    H137256   0.469   4.886  15.684 -0.3002 -0.0880 -0.3177
 5255TIP3    H237257   0.610   4.938  15.702 -0.5291  0.5159 -0.2688
 5256TIP3   OH237258   2.996   0.982   1.119 -0.0612 -0.4555  0.5554
 5256TIP3    H137259   3.078   0.935   1.107  0.1946 -0.3216  1.6873
 5256TIP3    H237260   2.950   0.972   1.036  1.3663  0.0002 -0.3180
 5257TIP3   OH237261   2.354   1.165  15.445  0.4109 -0.3008  0.4808
 5257TIP3    H137262   2.274   1.116  15.464  1.8971 -2.1285  2.2968
 5257TIP3    H237263   2.381   1.199  15.530  0.8141  1.5354 -0.3540
 5258TIP3   OH237264   6.399   3.878   5.106 -0.1656 -0.6851 -0.4058
 5258TIP3    H137265   6.448   3.930   5.043  0.7630 -1.6302 -0.4567
 5258TIP3    H237266   6.431   3.907   5.191  1.1986 -1.9803 -0.4569
 5259TIP3   OH237267   1.768   2.922   5.241 -0.1089  0.2407 -0.6965
 5259TIP3    H137268   1.762   2.923   5.337 -0.9604 -1.3373 -0.7234
 5259TIP3    H237269   1.845   2.976   5.222  1.0327 -0.7329  0.9596
 5260TIP3   OH237270   4.836   3.362  13.083 -0.1128  0.3766 -0.2859
 5260TIP3    H137271   4.895   3.424  13.040 -0.8201  0.5113 -1.0964
 5260TIP3    H237272   4.815   3.298  13.014 -0.4470  0.0076  0.1571
 5261TIP3   OH237273   3.625   6.466   1.669 -0.2001 -0.2471  0.1212
 5261TIP3    H137274   3.712   6.486   1.704  0.4328  0.4141 -1.7409
 5261TIP3    H237275   3.571   6.452   1.746  1.5783 -0.7393  1.3178
 5262TIP3   OH237276   1.742   4.904  15.748 -0.7813  0.6997 -0.7460
 5262TIP3    H137277   1.774   4.992  15.731  0.7325  0.7110  1.9017
 5262TIP3    H237278   1.817   4.847  15.731 -0.1612  0.4373  2.6030
 5263TIP3   OH237279   4.618   0.425  12.246 -0.6026  0.3325  0.2428
 5263TIP3    H137280   4.592   0.449  12.157 -0.8263  0.4075  0.3278
 5263TIP3    H237281   4.672   0.347  12.235  1.2757  1.6693 -0.1482
 5264TIP3   OH237282   0.514   2.116   1.216  0.0730 -0.2839 -0.5683
 5264TIP3    H137283   0.474   2.170   1.285 -0.6042 -0.5500 -0.7499
 5264TIP3    H237284   0.525   2.176   1.142  0.5272 -0.0720 -0.3329
 5265TIP3   OH237285   4.863   5.331   0.144  0.2330  0.2757  0.0232
 5265TIP3    H137286   4.939   5.328   0.085  1.0275 -0.6861  1.0738
 5265TIP3    H237287   4.887   5.397   0.209  0.2593 -0.1720  0.4688
 5266TIP3   OH237288   0.816   0.480  13.299 -0.1819 -0.0121 -0.0294
 5266TIP3    H137289   0.733   0.520  13.275 -0.6744 -0.5879  0.7214
 5266TIP3    H237290   0.856   0.456  13.215 -0.4381  0.9013 -0.4292
 5267TIP3   OH237291   2.785   0.684   5.052 -0.2017  0.2116  0.2418
 5267TIP3    H137292   2.702   0.725   5.076 -1.0738 -1.0013 -0.6488
 5267TIP3    H237293   2.851   0.752   5.069 -1.4666  1.5302  0.0110
 5268TIP3   OH237294   3.234   6.683   2.996 -0.3169  0.0243  0.0091
 5268TIP3    H137295   3.310   6.722   2.951 -0.0466 -0.2445  0.2269
 5268TIP3    H237296   3.273   6.633   3.067 -0.6504 -0.8107 -0.3914
 5269TIP3   OH237297   0.846   0.270  14.902  1.0264  0.0751 -0.6873
 5269TIP3    H137298   0.877   0.361  14.906 -0.3576  0.5363 -0.0192
 5269TIP3    H237299   0.893   0.232  14.828  3.1185  0.7553  0.2329
 5270TIP3   OH237300   1.350   4.269   3.917 -0.1552  0.6769 -0.0611
 5270TIP3    H137301   1.269   4.312   3.942 -0.3311  0.0284  0.4990
 5270TIP3    H237302   1.353   4.190   3.971  1.4589  1.3232  0.8444
 5271TIP3   OH237303   2.146   2.043  13.181 -0.3726 -0.0452  0.4890
 5271TIP3    H137304   2.108   2.131  13.181  0.6295  0.4067  1.3734
 5271TIP3    H237305   2.191   2.036  13.097 -0.1639  0.4306  0.5579
 5272TIP3   OH237306   6.319   1.388   0.609  0.7735  0.2652 -0.2352
 5272TIP3    H137307   6.279   1.462   0.653  1.9410  1.4197 -1.0836
 5272TIP3    H237308   6.268   1.312   0.639 -0.7671  1.4499  0.2210
 5273TIP3   OH237309   6.361   1.863  11.039 -0.2971  0.5240 -0.2051
 5273TIP3    H137310   6.365   1.957  11.059 -1.1342  0.1319  1.9346
 5273TIP3    H237311   6.408   1.854  10.956  2.7531  2.3962  1.2121
 5274TIP3   OH237312   0.621   5.792   4.953 -0.0455  0.9832 -0.2804
 5274TIP3    H137313   0.648   5.778   4.862  2.6854  1.5188  0.3960
 5274TIP3    H237314   0.547   5.852   4.947 -0.8118 -0.1019 -2.2061
 5275TIP3   OH237315   0.781   0.225   4.251  0.0778 -0.0152 -0.5561
 5275TIP3    H137316   0.731   0.305   4.267  1.6852  0.9634 -0.2139
 5275TIP3    H237317   0.798   0.225   4.157 -0.3527 -0.2024 -0.6301
 5276TIP3   OH237318   2.953   5.086   0.450 -0.1284 -0.3247 -0.0485
 5276TIP3    H137319   3.015   5.091   0.523 -0.0506 -0.2687 -0.1185
 5276TIP3    H237320   2.997   5.131   0.378 -0.7868  0.9106  0.2920
 5277TIP3   OH237321   0.240   0.283   1.467  0.5561 -0.1267  0.3989
 5277TIP3    H137322   0.196   0.273   1.383 -0.3472  0.5403  0.7760
 5277TIP3    H237323   0.240   0.196   1.505  0.2441 -0.2746  0.0580
 5278TIP3   OH237324   0.287   1.317  14.034 -0.6003 -0.4049  0.3260
 5278TIP3    H137325   0.200   1.292  14.001 -0.7759 -0.6856  0.9931
 5278TIP3    H237326   0.306   1.253  14.102  0.6854 -1.0917 -0.6560
 5279TIP3   OH237327   6.760   6.682   0.207 -0.5147  0.2983 -0.3472
 5279TIP3    H137328   6.824   6.701   0.275 -0.4789  0.2822 -0.3761
 5279TIP3    H237329   6.813   6.655   0.131 -0.5245  0.9281 -0.5798
 5280TIP3   OH237330   2.027   0.619  14.204  0.0614 -0.6178  0.5751
 5280TIP3    H137331   2.115   0.626  14.241  0.6515 -2.2181 -0.4933
 5280TIP3    H237332   2.029   0.539  14.151 -1.0050  1.1639 -2.2682
 5281TIP3   OH237333   6.294   5.925   5.893  0.5140  0.0728 -0.0917
 5281TIP3    H137334   6.211   5.972   5.891 -0.3737 -1.5556 -2.0613
 5281TIP3    H237335   6.283   5.860   5.962 -0.4117 -1.1151 -1.3319
 5282TIP3   OH237336   2.644   5.220   4.906 -0.0117 -0.5649  0.4922
 5282TIP3    H137337   2.598   5.234   4.823 -0.4625  2.4497  1.1903
 5282TIP3    H237338   2.591   5.266   4.971  2.4145  0.5136  1.7880
 5283TIP3   OH237339   0.767   6.245   1.167 -0.4317 -0.1621  0.3062
 5283TIP3    H137340   0.720   6.304   1.108 -0.4780 -0.3654  0.1419
 5283TIP3    H237341   0.842   6.215   1.116 -1.0946 -1.2357 -0.0431
 5284TIP3   OH237342   2.068   2.296  15.595 -0.6015 -0.0355  0.7062
 5284TIP3    H137343   2.048   2.204  15.617  0.5631 -0.2497  0.8841
 5284TIP3    H237344   2.113   2.329  15.672  1.8808 -0.2516 -0.6255
 5285TIP3   OH237345   0.799   3.223  13.537 -0.4561 -0.0162 -0.0742
 5285TIP3    H137346   0.717   3.255  13.500 -1.1214 -0.2346  1.2127
 5285TIP3    H237347   0.867   3.271  13.489 -1.3822  2.1142  0.7198
 5286TIP3   OH237348   3.379   1.990   4.542 -0.3835  0.4407 -0.1892
 5286TIP3    H137349   3.338   1.905   4.524  3.3628 -1.4481 -0.2847
 5286TIP3    H237350   3.372   2.038   4.459 -0.6600 -0.5857 -0.7741
 5287TIP3   OH237351   5.879   3.308  14.419  0.1865 -0.4992  0.0933
 5287TIP3    H137352   5.794   3.338  14.453  0.6672  1.9887 -0.8221
 5287TIP3    H237353   5.858   3.231  14.367 -1.7827  1.0908 -1.5473
 5288TIP3   OH237354   2.814   5.116   3.343  0.4849  0.0581  0.3782
 5288TIP3    H137355   2.743   5.056   3.318 -0.6319  1.8432 -0.8600
 5288TIP3    H237356   2.891   5.060   3.348 -0.7095 -1.6595  0.2222
 5289TIP3   OH237357   5.752   1.894  13.389  0.1888 -0.1282 -0.3407
 5289TIP3    H137358   5.684   1.962  13.381 -1.1410 -1.5451 -1.4914
 5289TIP3    H237359   5.816   1.916  13.321  1.6498  2.0135  1.6573
 5290TIP3   OH237360   2.111   0.767  11.219  0.0548 -0.0845  0.6257
 5290TIP3    H137361   2.046   0.749  11.287  0.8228 -0.9164  1.1466
 5290TIP3    H237362   2.073   0.729  11.140  0.3097 -1.4043  1.1208
 5291TIP3   OH237363   3.844   3.339   1.542  0.2077 -0.1282  0.3913
 5291TIP3    H137364   3.868   3.403   1.609  0.6595 -0.3583  0.4525
 5291TIP3    H237365   3.921   3.283   1.535  0.1304 -0.1446 -0.2716
 5292TIP3   OH237366   1.703   5.521  15.683  0.2368  0.2723  0.2503
 5292TIP3    H137367   1.682   5.429  15.698  1.9240 -0.4442 -1.6267
 5292TIP3    H237368   1.684   5.536  15.591  2.4367  1.1012 -0.0901
 5293TIP3   OH237369   0.943   0.317  12.779 -0.0205  0.0276  0.1096
 5293TIP3    H137370   0.869   0.378  12.787  0.7002  1.1398 -1.2486
 5293TIP3    H237371   0.992   0.351  12.704  0.9091 -1.7177 -0.0831
 5294TIP3   OH237372   1.961   4.852  14.796 -0.1008  0.0242  0.3206
 5294TIP3    H137373   1.923   4.839  14.710 -0.3943 -0.4341  0.5144
 5294TIP3    H237374   2.003   4.938  14.792  1.3554 -0.7135 -0.8340
 5295TIP3   OH237375   2.885   1.984  11.760  0.3712 -0.4260 -0.0083
 5295TIP3    H137376   2.908   1.924  11.689 -0.3367  0.5290 -1.0590
 5295TIP3    H237377   2.872   1.927  11.836  1.1937 -1.4512 -0.6197
 5296TIP3   OH237378   3.708   0.368  12.373  0.2422 -0.0356 -0.5012
 5296TIP3    H137379   3.803   0.373  12.372  0.1954  1.0683 -1.6862
 5296TIP3    H237380   3.683   0.384  12.464  1.2146 -1.0145 -0.0593
 5297TIP3   OH237381   1.839   4.659   4.584  0.1113 -0.0448 -0.0483
 5297TIP3    H137382   1.832   4.701   4.499 -3.5621  0.2724  0.3297
 5297TIP3    H237383   1.828   4.566   4.566  1.0285 -0.1488 -0.0916
 5298TIP3   OH237384   5.062   2.142  14.975  0.0748  0.1220  0.2558
 5298TIP3    H137385   5.101   2.093  15.047  1.6671  0.8130 -0.1194
 5298TIP3    H237386   5.108   2.226  14.975 -0.5018  0.4554 -1.0281
 5299TIP3   OH237387   5.695   0.384  16.421 -0.1099  0.3080 -0.0084
 5299TIP3    H137388   5.705   0.479  16.415  0.9405  0.2460  0.6844
 5299TIP3    H237389   5.761   0.356  16.484  0.8116 -1.0809 -1.5178
 5300TIP3   OH237390   0.224   0.527  13.479 -0.0606 -0.1434 -0.4987
 5300TIP3    H137391   0.155   0.469  13.511  0.2897  0.8224  2.1113
 5300TIP3    H237392   0.293   0.468  13.447 -2.1804 -1.1089 -3.4769
 5301TIP3   OH237393   4.327   0.182  14.043 -0.4391 -0.0606  0.2364
 5301TIP3    H137394   4.404   0.145  14.087 -1.3896  0.0392  2.0225
 5301TIP3    H237395   4.362   0.224  13.965  1.4596  0.8069  1.5102
 5302TIP3   OH237396   6.076   4.667  12.966  0.2242 -0.0357 -0.6688
 5302TIP3    H137397   6.061   4.596  13.029 -0.5632 -0.1618 -0.9862
 5302TIP3    H237398   6.165   4.696  12.984  0.8988 -1.7250 -1.1488
 5303TIP3   OH237399   1.999   2.540   2.117 -0.0453  0.1101  0.7234
 5303TIP3    H137400   1.969   2.610   2.176 -3.3798  1.0678 -1.9331
 5303TIP3    H237401   1.923   2.484   2.105  0.9837 -0.9002 -1.4569
 5304TIP3   OH237402   1.320   5.865  14.382  0.6196 -0.3614 -0.1788
 5304TIP3    H137403   1.383   5.924  14.340  0.0555  0.3021 -0.0953
 5304TIP3    H237404   1.369   5.784  14.396  1.5030  0.1974  0.0074
 5305TIP3   OH237405   2.893   3.937   2.903 -0.2700  0.2642  0.0183
 5305TIP3    H137406   2.892   3.846   2.872 -0.1457 -0.2302  1.4579
 5305TIP3    H237407   2.800   3.961   2.906 -0.2201  1.0061 -2.6755
 5306TIP3   OH237408   5.090   5.778   0.384  0.1823  0.2372 -0.5581
 5306TIP3    H137409   5.112   5.813   0.471  1.1236  0.7026 -0.9708
 5306TIP3    H237410   5.032   5.844   0.346  2.2367  1.5543 -1.4715
 5307TIP3   OH237411   6.167   0.145  11.006 -0.0428 -0.5424  0.4652
 5307TIP3    H137412   6.105   0.186  10.945  1.7636 -0.5797 -1.4394
 5307TIP3    H237413   6.189   0.213  11.069  1.9087  1.0409 -1.8817
 5308TIP3   OH237414   0.838   5.792  14.639  0.1476 -0.1694 -0.4083
 5308TIP3    H137415   0.755   5.816  14.597 -0.4663  0.7207  1.2488
 5308TIP3    H237416   0.888   5.873  14.642 -0.6847  0.2892  2.4438
 5309TIP3   OH237417   3.865   3.164   3.353  0.3520  0.2188  0.4297
 5309TIP3    H137418   3.933   3.171   3.286 -0.0339  0.8365  0.1003
 5309TIP3    H237419   3.817   3.246   3.348  0.0693  0.1060  1.1983
 5310TIP3   OH237420   1.319   5.863   1.348  0.2511  0.8109  0.2531
 5310TIP3    H137421   1.274   5.939   1.312  0.7484  1.6455  1.3956
 5310TIP3    H237422   1.250   5.810   1.388  0.2584  2.1164  2.0527
 5311TIP3   OH237423   2.839   4.444   4.542 -0.7759  0.1878  0.6921
 5311TIP3    H137424   2.781   4.380   4.584  1.3999 -2.6732 -0.4743
 5311TIP3    H237425   2.919   4.442   4.595 -0.0408  0.6025 -0.3894
 5312TIP3   OH237426   1.936   0.170  16.903 -0.3838 -0.2426  0.2915
 5312TIP3    H137427   1.850   0.147  16.868 -1.0855 -0.6664  2.2480
 5312TIP3    H237428   1.995   0.158  16.829 -2.1253  0.9760 -1.3705
 5313TIP3   OH237429   1.666   1.737   2.106 -0.1144  0.2559  0.4675
 5313TIP3    H137430   1.757   1.762   2.126  0.5223 -1.7138  0.1478
 5313TIP3    H237431   1.640   1.683   2.181 -1.4223  1.6790  1.0815
 5314TIP3   OH237432   2.090   2.679  15.580  0.4358 -0.1620 -0.2558
 5314TIP3    H137433   1.997   2.658  15.594  0.5201  0.2232  0.9182
 5314TIP3    H237434   2.115   2.627  15.503 -0.7810 -0.1676 -0.6588
 5315TIP3   OH237435   3.285   0.678   1.357  0.3153 -0.4792  0.1835
 5315TIP3    H137436   3.265   0.727   1.437  0.6392 -1.7216  1.0360
 5315TIP3    H237437   3.263   0.739   1.286 -1.1057  0.2035  1.1789
 5316TIP3   OH237438   6.259   0.365   2.220 -0.0407  0.2212  0.3899
 5316TIP3    H137439   6.205   0.416   2.160 -0.4390 -0.4172  0.1974
 5316TIP3    H237440   6.246   0.274   2.192  1.2984  0.0773  0.2019
 5317TIP3   OH237441   6.359   4.207  14.574 -0.2751 -0.0432 -0.0398
 5317TIP3    H137442   6.389   4.140  14.635 -1.7854 -1.5290 -0.9031
 5317TIP3    H237443   6.344   4.160  14.492  2.5739  2.0715 -1.8514
 5318TIP3   OH237444   4.245   2.644   1.510 -0.1109 -0.3719 -0.3302
 5318TIP3    H137445   4.253   2.550   1.496 -3.0232 -0.6526 -0.3522
 5318TIP3    H237446   4.204   2.677   1.431  0.8047  0.9207 -0.2801
 5319TIP3   OH237447   3.839   6.329   4.472 -0.2382  0.7121  0.3067
 5319TIP3    H137448   3.792   6.269   4.415 -1.5363  0.7868  1.2836
 5319TIP3    H237449   3.804   6.312   4.559  0.2621  2.0363  0.7828
 5320TIP3   OH237450   3.800   1.875   1.003 -0.2411 -0.5526 -0.0817
 5320TIP3    H137451   3.795   1.889   0.908 -2.5057 -0.3369  0.0400
 5320TIP3    H237452   3.716   1.834   1.025 -0.1316  0.2917  1.9882
 5321TIP3   OH237453   0.826   3.333   3.150 -0.4663  0.1595  0.0232
 5321TIP3    H137454   0.834   3.389   3.227  0.4511 -1.6247  1.2646
 5321TIP3    H237455   0.907   3.348   3.101 -0.5865  0.5148 -0.0694
 5322TIP3   OH237456   6.602   0.637  17.156 -0.0074 -0.1526  0.6166
 5322TIP3    H137457   6.561   0.685  17.084  0.5580 -0.3462  0.1710
 5322TIP3    H237458   6.529   0.588  17.196 -0.2536 -0.3435 -0.0551
 5323TIP3   OH237459   3.462   4.335   0.023 -0.1165  0.3838 -0.1086
 5323TIP3    H137460   3.500   4.252   0.052 -0.3132  0.8348  1.5131
 5323TIP3    H237461   3.462   4.389   0.102 -1.4427  1.3819 -0.7877
 5324TIP3   OH237462   2.853   4.949  15.283  0.6318  0.0506  0.2424
 5324TIP3    H137463   2.803   4.893  15.224  0.4792 -0.2706  0.6804
 5324TIP3    H237464   2.944   4.938  15.254  0.5828 -0.2781  0.2118
 5325TIP3   OH237465   0.642   6.192  11.536  0.9246  0.4943  1.1882
 5325TIP3    H137466   0.696   6.271  11.533 -0.1708  1.2092  0.4142
 5325TIP3    H237467   0.568   6.215  11.592 -1.6409  1.4349 -2.4505
 5326TIP3   OH237468   1.286   6.195   1.484 -0.0382 -0.2832 -0.3424
 5326TIP3    H137469   1.379   6.215   1.478  0.4462 -2.0150  0.9940
 5326TIP3    H237470   1.276   6.151   1.568 -1.7545 -1.7154 -1.2558
 5327TIP3   OH237471   0.487   0.213   1.122 -0.8569 -0.4516  0.0644
 5327TIP3    H137472   0.568   0.165   1.142 -0.3598  0.2254 -0.3113
 5327TIP3    H237473   0.491   0.227   1.028 -0.6029  1.0525  0.2984
 5328TIP3   OH237474   4.906   3.535   5.531  0.0697  0.1748  0.7193
 5328TIP3    H137475   4.897   3.499   5.443 -3.1263  0.5741  0.8200
 5328TIP3    H237476   4.866   3.468   5.588  0.5579  0.6802  1.6688
 5329TIP3   OH237477   2.419   2.080  16.370  0.0033  0.0835 -0.0469
 5329TIP3    H137478   2.405   2.169  16.337  1.7445 -0.0023 -1.0628
 5329TIP3    H237479   2.497   2.086  16.424 -1.0333 -0.4324  1.5470
 5330TIP3   OH237480   2.361   0.417   4.750 -0.6809  0.1060  0.2775
 5330TIP3    H137481   2.347   0.496   4.803 -1.3284 -0.9901  1.7598
 5330TIP3    H237482   2.275   0.375   4.746 -0.2770 -0.6781 -0.2491
 5331TIP3   OH237483   5.573   4.192  12.166 -0.3763  0.0882  0.1001
 5331TIP3    H137484   5.643   4.235  12.215  0.7037 -0.9162 -0.5270
 5331TIP3    H237485   5.599   4.200  12.074  0.6654 -3.2096  0.0495
 5332TIP3   OH237486   6.196   0.132  11.623  0.1868  0.4059 -0.1294
 5332TIP3    H137487   6.101   0.146  11.613  0.3341  1.5485  0.0076
 5332TIP3    H237488   6.235   0.187  11.554  0.7698  0.2563  0.0833
 5333TIP3   OH237489   0.938   5.243  15.143 -0.5460  0.1973  0.2461
 5333TIP3    H137490   0.957   5.319  15.088 -4.0568  0.3164 -0.8926
 5333TIP3    H237491   0.943   5.168  15.082 -0.3762 -0.1414  0.6705
 5334TIP3   OH237492   2.826   4.035   5.306 -0.3939  0.9255  0.4346
 5334TIP3    H137493   2.832   4.131   5.303 -0.6279  0.9398  0.4067
 5334TIP3    H237494   2.787   4.017   5.392 -0.3092  0.8528  0.4573
 5335TIP3   OH237495   2.371   1.613  16.424  0.5051 -0.5921  0.1991
 5335TIP3    H137496   2.299   1.583  16.368 -0.1373 -0.4678  0.9567
 5335TIP3    H237497   2.403   1.692  16.380 -0.0953 -0.4088  0.0861
 5336TIP3   OH237498   5.582   2.771   2.555 -0.5518  0.4236 -0.2859
 5336TIP3    H137499   5.568   2.679   2.533 -0.1273  0.3461 -0.2291
 5336TIP3    H237500   5.501   2.814   2.528 -1.0857 -0.1000  0.4318
 5337TIP3   OH237501   3.051   1.187   2.561 -0.1619  0.4418  0.6855
 5337TIP3    H137502   3.105   1.224   2.491  1.1362  1.9275  2.4048
 5337TIP3    H237503   3.068   1.093   2.556  0.0222  0.5433 -0.8956
 5338TIP3   OH237504   3.221   4.392  15.968  0.2546 -0.7277  0.5597
 5338TIP3    H137505   3.310   4.356  15.972  0.1249 -0.9895  1.2814
 5338TIP3    H237506   3.165   4.315  15.966  0.0759 -0.5693 -1.1147
 5339TIP3   OH237507   0.526   3.518   4.058 -0.2264 -0.1531 -0.4373
 5339TIP3    H137508   0.502   3.448   4.119 -0.1660  0.0702 -0.1539
 5339TIP3    H237509   0.571   3.582   4.112  1.1567 -0.6351 -0.9992
 5340TIP3   OH237510   2.508   2.176   5.915  0.1889  0.0084 -0.0894
 5340TIP3    H137511   2.475   2.250   5.966 -2.9967  1.1924 -3.7022
 5340TIP3    H237512   2.443   2.107   5.928  0.0437 -0.1216 -1.4824
 5341TIP3   OH237513   4.820   3.307   2.027  0.3436 -0.1128 -0.1625
 5341TIP3    H137514   4.878   3.232   2.044 -0.4001 -0.4439  1.0531
 5341TIP3    H237515   4.856   3.348   1.949  2.6611  0.1255  0.9676
 5342TIP3   OH237516   1.234   6.276   1.147 -0.6526  0.1528 -0.6345
 5342TIP3    H137517   1.292   6.331   1.094  2.2403 -2.4382 -0.3097
 5342TIP3    H237518   1.182   6.338   1.197 -0.8829  2.6315 -3.7746
 5343TIP3   OH237519   6.180   1.670   5.329  0.2575  0.2363  0.0309
 5343TIP3    H137520   6.204   1.632   5.245 -1.1944  0.8977 -0.6917
 5343TIP3    H237521   6.262   1.707   5.362  0.7524  0.3359 -1.2714
 5344TIP3   OH237522   6.290   1.332  13.683 -0.2663 -0.1070 -0.2455
 5344TIP3    H137523   6.351   1.349  13.754  0.3122 -0.6018 -0.6215
 5344TIP3    H237524   6.213   1.385  13.704  1.0530  2.0893 -0.8148
 5345TIP3   OH237525   0.465   4.500  16.345 -0.1645  0.0111 -0.4949
 5345TIP3    H137526   0.395   4.499  16.410 -0.7004  1.2396 -1.0240
 5345TIP3    H237527   0.495   4.591  16.344  2.9323 -0.9524  1.2799
 5346TIP3   OH237528   3.935   4.792   2.844 -0.3226 -0.4853  0.5918
 5346TIP3    H137529   3.862   4.836   2.887  0.5150 -0.1811  1.7326
 5346TIP3    H237530   3.953   4.715   2.898 -0.3986 -1.0666 -0.2038
 5347TIP3   OH237531   4.186   5.563   3.245  0.1539 -0.3141  0.6134
 5347TIP3    H137532   4.211   5.471   3.236 -0.4602 -0.6723  2.4814
 5347TIP3    H237533   4.232   5.592   3.324 -1.8343  0.2207  1.5832
 5348TIP3   OH237534   5.219   4.632   0.135 -0.1845  0.0759 -0.5736
 5348TIP3    H137535   5.280   4.680   0.192  1.2789 -2.1802 -0.1760
 5348TIP3    H237536   5.133   4.650   0.173  0.4786  1.1160  0.4899
 5349TIP3   OH237537   0.296   1.164  11.923  0.4005  0.2494  0.5781
 5349TIP3    H137538   0.314   1.120  11.840 -0.7179 -1.3586  1.1659
 5349TIP3    H237539   0.366   1.229  11.931  1.4335 -0.6525 -0.8551
 5350TIP3   OH237540   6.308   5.984   1.000 -0.2867 -0.8720  0.4617
 5350TIP3    H137541   6.295   5.909   0.943  1.4530 -1.3238  0.6014
 5350TIP3    H237542   6.328   6.057   0.941 -1.2110 -0.7026  0.3617
 5351TIP3   OH237543   2.650   3.482   2.899 -0.3934  0.2470  0.0715
 5351TIP3    H137544   2.668   3.541   2.972 -1.2619 -0.2562  0.7046
 5351TIP3    H237545   2.700   3.403   2.920  1.2102  0.9263 -1.0472
 5352TIP3   OH237546   5.180   5.668   4.099  0.1338  0.3209 -1.0260
 5352TIP3    H137547   5.199   5.577   4.078 -0.2477 -0.3731  1.4074
 5352TIP3    H237548   5.255   5.696   4.152 -0.4614  0.9382 -0.5074
 5353TIP3   OH237549   4.680   1.742  11.779 -0.3757  0.2230 -0.7772
 5353TIP3    H137550   4.621   1.716  11.850  0.0324  0.9245 -0.1762
 5353TIP3    H237551   4.693   1.662  11.728  2.2159 -1.2329  2.0092
 5354TIP3   OH237552   2.152   3.584   2.663 -0.2104 -0.0988 -0.4931
 5354TIP3    H137553   2.119   3.494   2.661 -0.1134 -0.1112 -2.8962
 5354TIP3    H237554   2.129   3.616   2.751 -1.0391 -2.1567  0.0761
 5355TIP3   OH237555   4.600   1.480  13.694  0.2356  0.2572 -0.1346
 5355TIP3    H137556   4.681   1.480  13.745  0.0701 -1.4793  0.1729
 5355TIP3    H237557   4.530   1.475  13.760 -0.0497 -0.0077 -0.4520
 5356TIP3   OH237558   3.738   0.473  15.390 -0.2252 -0.3671 -0.1707
 5356TIP3    H137559   3.713   0.522  15.311  1.3931  0.8380  0.0522
 5356TIP3    H237560   3.829   0.498  15.406 -0.4767 -0.7638  1.9655
 5357TIP3   OH237561   1.950   6.412  15.115 -0.1401  0.1346  0.3753
 5357TIP3    H137562   1.936   6.319  15.133 -0.2814 -0.2847 -1.7855
 5357TIP3    H237563   1.868   6.441  15.075  0.3401  0.9044 -0.0518
 5358TIP3   OH237564   4.213   2.963  13.142  0.4325  0.4534 -0.0646
 5358TIP3    H137565   4.269   2.894  13.106 -1.8828 -0.4038 -2.1189
 5358TIP3    H237566   4.191   2.933  13.230  3.2716  0.8834  0.8498
 5359TIP3   OH237567   4.696   4.105  14.350  0.1495 -0.3701  0.1222
 5359TIP3    H137568   4.693   4.162  14.273  0.1857 -0.6354 -0.0759
 5359TIP3    H237569   4.676   4.018  14.316  0.4158 -0.5291  0.3714
 5360TIP3   OH237570   5.942   4.444   3.299  0.2851  0.1912 -0.2201
 5360TIP3    H137571   5.908   4.492   3.224  0.0557 -0.8140 -0.7624
 5360TIP3    H237572   5.996   4.375   3.262 -0.0084 -0.4498  0.5310
 5361TIP3   OH237573   2.688   0.292  14.351 -0.2673 -0.2829  0.0538
 5361TIP3    H137574   2.742   0.360  14.391  1.3811 -0.9166 -1.0550
 5361TIP3    H237575   2.642   0.251  14.425  0.1922  0.7548  0.9276
 5362TIP3   OH237576   6.649   5.351   1.386  0.2380 -0.1707 -0.6378
 5362TIP3    H137577   6.659   5.407   1.309  1.1463 -2.6926 -2.4338
 5362TIP3    H237578   6.717   5.381   1.446 -1.0486  2.4183 -0.3757
 5363TIP3   OH237579   3.879   6.763   6.133 -0.1588 -0.0487 -0.2504
 5363TIP3    H137580   3.847   6.687   6.085 -0.5575 -1.0615  1.5650
 5363TIP3    H237581   3.846   6.751   6.223  3.3280  0.0917  1.1198
 5364TIP3   OH237582   6.738   3.536   0.764 -0.3729 -0.2967 -0.1402
 5364TIP3    H137583   6.780   3.499   0.686 -0.1786  1.1676 -0.7470
 5364TIP3    H237584   6.655   3.490   0.771 -0.2271 -0.7033 -1.0113
 5365TIP3   OH237585   0.998   5.110  12.763 -0.0670  0.4242  0.6268
 5365TIP3    H137586   1.044   5.031  12.735  0.2336  0.2721  1.5263
 5365TIP3    H237587   0.919   5.112  12.708  0.4974  0.1332 -0.2071
 5366TIP3   OH237588   5.795   2.708   0.465  0.9047  0.2132  0.2057
 5366TIP3    H137589   5.786   2.688   0.372  1.7675 -0.6910  0.3171
 5366TIP3    H237590   5.726   2.772   0.482 -0.7301 -1.3158 -0.5375
 5367TIP3   OH237591   2.104   2.464   3.410  0.1107 -0.4407 -0.0204
 5367TIP3    H137592   2.017   2.426   3.398  0.0033 -0.3216  0.3704
 5367TIP3    H237593   2.145   2.410   3.477  1.3389 -2.1474 -2.0588
 5368TIP3   OH237594   3.913   4.587   6.300  0.2901 -0.2074  0.0830
 5368TIP3    H137595   3.933   4.505   6.344 -3.7807 -0.1817  2.1905
 5368TIP3    H237596   3.857   4.563   6.226 -0.0975  0.5720  0.1133
 5369TIP3   OH237597   6.064   6.405  15.121  0.6721  0.3963  0.2885
 5369TIP3    H137598   6.136   6.369  15.069 -0.4361 -0.3252 -0.7764
 5369TIP3    H237599   6.063   6.352  15.201  1.7111  0.8150  0.5799
 5370TIP3   OH237600   5.556   5.381   2.548  0.5359  0.0025  0.4570
 5370TIP3    H137601   5.631   5.334   2.585  0.8247  0.1886  0.1137
 5370TIP3    H237602   5.591   5.467   2.524 -0.1558  0.6716  1.7752
 5371TIP3   OH237603   3.203   4.383  10.914  0.4285 -0.6739  0.1042
 5371TIP3    H137604   3.287   4.392  10.869  0.3075 -3.1492 -0.6917
 5371TIP3    H237605   3.161   4.468  10.903  0.4805 -1.1218 -4.3114
 5372TIP3   OH237606   0.789   1.613   0.722 -0.1842 -0.4929  0.5561
 5372TIP3    H137607   0.880   1.623   0.751  0.1274 -0.2427 -0.4883
 5372TIP3    H237608   0.789   1.531   0.673 -0.6473 -0.7870  1.0555
 5373TIP3   OH237609   5.985   5.399   3.976  0.0053 -0.3976  0.3490
 5373TIP3    H137610   5.911   5.403   3.916  0.4213 -1.1204 -0.2061
 5373TIP3    H237611   5.957   5.339   4.045 -0.1609 -0.1774  0.4774
 5374TIP3   OH237612   3.612   3.807   3.159  0.7545  1.0806 -0.2278
 5374TIP3    H137613   3.670   3.741   3.121 -0.6994  0.7588 -1.9466
 5374TIP3    H237614   3.661   3.840   3.235  2.1092 -0.9215 -0.1776
 5375TIP3   OH237615   0.826   4.287   0.651  0.4109  0.3085 -0.4115
 5375TIP3    H137616   0.812   4.209   0.706  3.1515  0.7473  1.0112
 5375TIP3    H237617   0.865   4.352   0.711 -3.5102  3.4650 -1.1105
 5376TIP3   OH237618   2.893   0.027  17.289 -0.2310  0.5256  0.3582
 5376TIP3    H137619   2.829   0.092  17.317  1.2228  2.5323 -0.8445
 5376TIP3    H237620   2.874   0.011  17.197  0.6908  0.8032  0.1071
 5377TIP3   OH237621   1.741   0.349   4.213  0.0526  0.3087  0.0781
 5377TIP3    H137622   1.750   0.364   4.119 -1.7781 -0.6216 -0.2709
 5377TIP3    H237623   1.647   0.358   4.230  0.3289  0.2354  1.7779
 5378TIP3   OH237624   2.088   0.146  14.166  0.0670  0.0794 -1.1033
 5378TIP3    H137625   2.120   0.066  14.124  1.4800  0.9568 -1.7310
 5378TIP3    H237626   2.086   0.125  14.259  1.0137 -0.5038 -1.2056
 5379TIP3   OH237627   6.131   1.454   6.840 -0.1920 -0.0087  0.5085
 5379TIP3    H137628   6.190   1.400   6.892  0.6687 -1.2615 -1.7057
 5379TIP3    H237629   6.047   1.408   6.844 -0.1320 -0.0947  0.7847
 5380TIP3   OH237630   2.729   0.415   4.308 -1.0156 -0.4529 -0.1732
 5380TIP3    H137631   2.782   0.352   4.259  2.2767  1.7517  0.4177
 5380TIP3    H237632   2.682   0.361   4.372  2.6459 -2.2832  1.1364
 5381TIP3   OH237633   1.909   2.372   0.199 -0.3694 -0.2058  0.0366
 5381TIP3    H137634   1.827   2.345   0.241 -0.6253 -1.2219 -1.0999
 5381TIP3    H237635   1.888   2.374   0.105  0.0353  2.5818 -0.0402
 5382TIP3   OH237636   4.864   3.273   2.989 -0.1360  0.0001 -0.1968
 5382TIP3    H137637   4.777   3.277   2.949 -0.6135  0.3961  0.8750
 5382TIP3    H237638   4.853   3.219   3.067  0.5768  0.0945 -0.0232
 5383TIP3   OH237639   5.567   6.619   5.416  0.6917 -0.3198 -0.7608
 5383TIP3    H137640   5.535   6.576   5.496 -0.9711  0.1539 -1.1533
 5383TIP3    H237641   5.492   6.619   5.357  1.3168  1.1663 -1.5813
 5384TIP3   OH237642   6.723   4.148   3.073 -0.3959 -0.8432 -0.3741
 5384TIP3    H137643   6.659   4.191   3.015 -0.1711  0.7972  0.5692
 5384TIP3    H237644   6.754   4.074   3.022 -0.7129  0.1823 -2.1202
 5385TIP3   OH237645   5.602   5.079   5.727 -0.1200 -0.1168 -0.1148
 5385TIP3    H137646   5.606   5.137   5.651  1.6422  2.1748  1.6773
 5385TIP3    H237647   5.692   5.048   5.738  0.4371  2.4507  3.1615
 5386TIP3   OH237648   1.605   5.223  11.475 -0.5853 -0.1025  0.3482
 5386TIP3    H137649   1.620   5.297  11.534 -0.0211  0.2792 -0.2585
 5386TIP3    H237650   1.599   5.147  11.532 -1.6383  0.4722  1.0221
 5387TIP3   OH237651   5.839   3.700   3.645  0.4182  0.8337  0.9299
 5387TIP3    H137652   5.846   3.795   3.656  0.9504  0.8440  0.5096
 5387TIP3    H237653   5.884   3.681   3.563  0.7544  0.1533  1.2661
 5388TIP3   OH237654   2.180   1.141  11.546 -0.1547 -0.0132  0.5890
 5388TIP3    H137655   2.144   1.064  11.591 -0.9448 -0.6263 -1.0711
 5388TIP3    H237656   2.142   1.137  11.458  0.5468  1.7612  0.1991
 5389TIP3   OH237657   6.809   0.324   1.976 -0.5457 -0.2290  0.2285
 5389TIP3    H137658   6.746   0.252   1.977  1.0260 -1.6209  1.4331
 5389TIP3    H237659   6.885   0.290   1.930  0.0603  0.8017  0.4464
 5390TIP3   OH237660   1.969   2.952  13.948  0.0717  0.1811  0.8361
 5390TIP3    H137661   1.996   2.861  13.936  3.2634  1.2727 -1.2789
 5390TIP3    H237662   1.974   2.966  14.042 -1.9078 -2.2105  1.3386
 5391TIP3   OH237663   3.577   4.311   2.500 -0.5397  0.3967 -0.0661
 5391TIP3    H137664   3.521   4.345   2.431 -0.9743  0.0247  0.0995
 5391TIP3    H237665   3.604   4.224   2.470 -0.4198  0.3881  0.0624
 5392TIP3   OH237666   4.907   5.850   6.144 -0.9446 -0.3845 -0.3777
 5392TIP3    H137667   4.834   5.805   6.186 -0.4070 -1.8918 -1.0105
 5392TIP3    H237668   4.888   5.845   6.050 -0.2666 -0.3933 -0.5207
 5393TIP3   OH237669   6.312   2.011   4.049  0.4021  0.6819  0.5610
 5393TIP3    H137670   6.237   2.016   4.109 -0.6831  1.4537 -0.8263
 5393TIP3    H237671   6.287   1.942   3.987  0.6409  1.2540 -0.1722
 5394TIP3   OH237672   2.024   2.706  11.009 -0.3493  0.2249  1.0261
 5394TIP3    H137673   2.033   2.730  11.101  1.1147  1.9952  0.4449
 5394TIP3    H237674   2.113   2.706  10.975 -0.9709  0.8321 -0.6860
 5395TIP3   OH237675   5.328   1.088   1.225  0.5685  0.0467  0.3896
 5395TIP3    H137676   5.246   1.040   1.213  0.6144  0.0735 -0.0076
 5395TIP3    H237677   5.307   1.178   1.203  1.1098 -0.2260 -1.3234
 5396TIP3   OH237678   6.350   2.218   1.822  0.5743  0.0445  0.1242
 5396TIP3    H137679   6.343   2.185   1.912 -0.2880 -0.9296 -0.2884
 5396TIP3    H237680   6.304   2.302   1.825  0.0648 -0.2346  0.4825
 5397TIP3   OH237681   5.526   4.852  11.269 -0.3994 -0.4945 -0.0532
 5397TIP3    H137682   5.592   4.912  11.233 -0.8987  0.6846  0.9952
 5397TIP3    H237683   5.443   4.888  11.240 -0.6821 -1.0451  0.0647
 5398TIP3   OH237684   0.495   6.338   0.225 -0.1858 -0.2391 -0.1999
 5398TIP3    H137685   0.437   6.362   0.298 -0.1800 -0.7657 -0.0240
 5398TIP3    H237686   0.583   6.343   0.262 -0.0936  0.8455 -0.5446
 5399TIP3   OH237687   5.656   0.779  15.906  0.2048  0.2540 -0.2614
 5399TIP3    H137688   5.579   0.829  15.880  1.1365  0.7116 -2.2502
 5399TIP3    H237689   5.661   0.791  16.001 -0.8592  2.1189 -0.4150
 5400TIP3   OH237690   2.864   3.159  12.915 -0.2696 -0.4804  0.2852
 5400TIP3    H137691   2.839   3.212  12.839  1.7154  0.8194  0.5193
 5400TIP3    H237692   2.845   3.215  12.990  1.7754 -0.0729  0.5338
 5401TIP3   OH237693   4.823   4.850   4.472  0.0560  0.1752  1.2699
 5401TIP3    H137694   4.892   4.784   4.471 -2.7453 -2.8664  0.5108
 5401TIP3    H237695   4.804   4.863   4.565  0.0707 -0.7747  1.4180
 5402TIP3   OH237696   2.658   5.756  13.062 -0.0664 -0.0062 -0.2901
 5402TIP3    H137697   2.751   5.740  13.049 -0.2506 -0.0124 -1.7036
 5402TIP3    H237698   2.627   5.680  13.111  0.2750 -1.0096 -1.5982
 5403TIP3   OH237699   4.471   2.636   2.354  0.0213 -0.2591 -0.3240
 5403TIP3    H137700   4.451   2.680   2.437 -0.7756 -1.6513  0.2420
 5403TIP3    H237701   4.472   2.707   2.289 -0.1523  0.7384  0.7390
 5404TIP3   OH237702   2.968   6.218  14.716  0.4227 -0.1020 -0.3741
 5404TIP3    H137703   3.003   6.140  14.672  0.8173  0.9515 -1.9868
 5404TIP3    H237704   2.941   6.187  14.802  0.9915 -1.9285 -0.8277
 5405TIP3   OH237705   6.785   3.686   2.916  0.0613 -0.2072 -0.0805
 5405TIP3    H137706   6.825   3.630   2.982  0.0514 -1.6977 -1.2982
 5405TIP3    H237707   6.739   3.625   2.858  0.3333  1.0334 -1.6352
 5406TIP3   OH237708   3.387   5.238   1.777 -0.1106 -0.7682  0.3168
 5406TIP3    H137709   3.415   5.268   1.691 -3.0707 -1.1225 -0.8196
 5406TIP3    H237710   3.436   5.292   1.839  2.4403 -0.8761 -1.5632
 5407TIP3   OH237711   2.650   0.567  16.215  0.6793  0.4588  0.1534
 5407TIP3    H137712   2.648   0.630  16.287  0.7299  0.5561  0.0720
 5407TIP3    H237713   2.722   0.597  16.159  0.5489  0.4644 -0.0093
 5408TIP3   OH237714   2.110   4.930  17.243  0.6837 -0.2340  0.7553
 5408TIP3    H137715   2.017   4.921  17.266  0.2811 -0.0600 -0.7897
 5408TIP3    H237716   2.123   4.870  17.170  0.8787  2.5400 -1.5632
 5409TIP3   OH237717   4.286   4.613  12.095  0.4505  0.0693 -0.1851
 5409TIP3    H137718   4.206   4.609  12.043  1.3345  0.6902 -1.6407
 5409TIP3    H237719   4.322   4.525  12.091  0.3818  0.0522 -0.4036
 5410TIP3   OH237720   3.510   4.010  12.643 -0.1900 -0.2496  0.8419
 5410TIP3    H137721   3.468   3.979  12.723  1.0482  0.8784  1.9657
 5410TIP3    H237722   3.506   4.106  12.649  0.4002 -0.1518 -0.1700
 5411TIP3   OH237723   4.189   2.241  14.915 -0.7176 -0.5207 -0.3150
 5411TIP3    H137724   4.216   2.216  14.827  0.7757  0.2562 -0.0941
 5411TIP3    H237725   4.098   2.270  14.905 -0.3315  0.2266 -1.7279
 5412TIP3   OH237726   2.273   1.067   5.204  0.3873 -0.6490  0.5418
 5412TIP3    H137727   2.344   1.054   5.267  1.2052 -1.3947 -0.5158
 5412TIP3    H237728   2.314   1.052   5.119 -0.9564 -0.6920 -0.0976
 5413TIP3   OH237729   6.152   4.590   6.362  0.1332  0.3934 -0.1478
 5413TIP3    H137730   6.161   4.680   6.395  2.2545  0.1246  0.0518
 5413TIP3    H237731   6.240   4.554   6.366 -0.5500 -1.4306 -1.0600
 5414TIP3   OH237732   1.256   0.538   3.083 -0.5673  0.1633 -0.1283
 5414TIP3    H137733   1.312   0.607   3.049  0.1716 -0.7254 -0.7484
 5414TIP3    H237734   1.175   0.583   3.109 -0.3018  1.1725 -1.0102
 5415TIP3   OH237735   3.541   6.786   0.451 -0.2055 -0.2540  0.1568
 5415TIP3    H137736   3.467   6.846   0.454 -1.1998 -1.4098 -0.5151
 5415TIP3    H237737   3.605   6.829   0.396 -1.1533 -0.0470 -0.8125
 5416TIP3   OH237738   5.698   3.647   0.508  0.0561 -0.5831  0.4473
 5416TIP3    H137739   5.750   3.680   0.435  1.2948 -0.0100  1.5681
 5416TIP3    H237740   5.676   3.557   0.483  0.1126 -0.2563 -0.8043
 5417TIP3   OH237741   3.947   4.872   6.355  0.4571  0.3647 -0.4099
 5417TIP3    H137742   4.036   4.897   6.379  0.5553 -0.5304  0.1852
 5417TIP3    H237743   3.948   4.776   6.358 -0.1828  0.3145 -1.6413
 5418TIP3   OH237744   1.265   0.518   4.012 -0.2038  0.3276 -0.3761
 5418TIP3    H137745   1.342   0.476   3.974  1.1754  1.5237  1.0141
 5418TIP3    H237746   1.210   0.445   4.040  0.7442 -0.5586 -0.7615
 5419TIP3   OH237747   5.863   2.476   2.953  0.0557 -0.2150  0.3957
 5419TIP3    H137748   5.858   2.398   2.898 -0.8808 -1.3888  2.1018
 5419TIP3    H237749   5.771   2.501   2.968  0.3401  1.2432 -0.1451
 5420TIP3   OH237750   1.326   5.444   0.559 -0.1210  0.3186  0.0211
 5420TIP3    H137751   1.321   5.537   0.581 -0.1833  0.2257  0.4075
 5420TIP3    H237752   1.349   5.402   0.642  0.8202  0.0889 -0.3534
 5421TIP3   OH237753   1.020   0.145  11.950 -0.2816  0.6263  0.2240
 5421TIP3    H137754   1.047   0.233  11.924 -0.2514  0.8797  1.0926
 5421TIP3    H237755   0.944   0.126  11.895  0.2666  0.8298 -0.6032
 5422TIP3   OH237756   3.428   4.136  13.660  0.1361 -0.4018  0.7814
 5422TIP3    H137757   3.462   4.117  13.747 -2.4828 -1.1618  1.6907
 5422TIP3    H237758   3.380   4.219  13.669 -0.0893 -0.4436  0.0642
 5423TIP3   OH237759   1.486   4.692  16.105  0.5239 -0.7877  0.4970
 5423TIP3    H137760   1.579   4.714  16.108  0.6773 -1.3281 -0.1266
 5423TIP3    H237761   1.469   4.651  16.189  0.8355 -0.6256  0.6409
 5424TIP3   OH237762   0.116   2.010  13.868  0.2341  0.0024  0.0584
 5424TIP3    H137763   0.107   2.100  13.837 -0.6977  0.7784  2.4430
 5424TIP3    H237764   0.127   1.957  13.789 -2.1269  1.8693 -1.5591
 5425TIP3   OH237765   0.180   4.270  14.052  0.1690 -0.5172  0.2986
 5425TIP3    H137766   0.249   4.250  13.988 -0.5681 -0.5789 -0.4804
 5425TIP3    H237767   0.147   4.356  14.025  2.1031  1.0244  2.5733
 5426TIP3   OH237768   2.976   4.290  17.118 -0.3105  0.0817  0.1488
 5426TIP3    H137769   2.951   4.268  17.207  0.8582 -0.6664  0.3060
 5426TIP3    H237770   3.071   4.303  17.122 -0.1083 -0.8588 -1.1664
 5427TIP3   OH237771   2.384   0.387   5.209  0.5703 -0.0511  0.2286
 5427TIP3    H137772   2.421   0.308   5.170 -0.0393 -1.1177  1.7941
 5427TIP3    H237773   2.295   0.392   5.173  0.4633 -0.3045  0.4620
 5428TIP3   OH237774   2.881   5.500   3.115 -0.2777  0.7443 -0.1951
 5428TIP3    H137775   2.848   5.519   3.027 -2.3643  0.4246  0.4877
 5428TIP3    H237776   2.813   5.534   3.174  0.5630 -0.0481  1.2647
 5429TIP3   OH237777   5.424   6.374  12.440  0.5226 -0.1174 -0.0265
 5429TIP3    H137778   5.383   6.389  12.525  0.5026  3.1421 -0.5558
 5429TIP3    H237779   5.464   6.288  12.448 -0.8006 -0.5315  2.7494
 5430TIP3   OH237780   2.514   1.359  16.447  0.2004 -0.2865 -0.2145
 5430TIP3    H137781   2.471   1.444  16.436 -0.6609 -0.6173  0.5302
 5430TIP3    H237782   2.538   1.333  16.358 -1.6372 -0.3567 -0.7098
 5431TIP3   OH237783   3.431   0.817  10.488 -0.6104 -0.3950 -0.1841
 5431TIP3    H137784   3.507   0.765  10.462  0.8678  0.7406  1.7711
 5431TIP3    H237785   3.437   0.896  10.435 -0.6508 -0.4691 -0.3003
 5432TIP3   OH237786   0.981   6.472  16.309 -0.6363  0.5147 -0.4174
 5432TIP3    H137787   1.044   6.443  16.375 -0.2232  1.7948 -0.2294
 5432TIP3    H237788   0.937   6.547  16.349 -1.9174 -0.0595 -0.7456
 5433TIP3   OH237789   3.575   3.076   6.511 -0.4534  0.1934 -0.1424
 5433TIP3    H137790   3.512   3.139   6.476 -0.1888 -0.7363 -2.3561
 5433TIP3    H237791   3.644   3.129   6.549 -1.5673  1.2247  0.4717
 5434TIP3   OH237792   3.028   2.237   1.759 -0.0072  0.4847  0.5627
 5434TIP3    H137793   2.937   2.214   1.741  0.8434 -1.7459 -1.1772
 5434TIP3    H237794   3.026   2.330   1.781 -2.3981  1.0372 -1.7337
 5435TIP3   OH237795   5.911   3.208  16.146 -0.4053  0.6069  0.8240
 5435TIP3    H137796   5.854   3.283  16.131  0.3112  1.4086  2.0534
 5435TIP3    H237797   5.864   3.154  16.210 -0.4429  0.5532  0.7503
 5436TIP3   OH237798   1.758   6.539   4.240  0.5464  0.1781 -0.3304
 5436TIP3    H137799   1.810   6.536   4.160  0.2274 -1.1733 -0.4943
 5436TIP3    H237800   1.769   6.628   4.272  2.4937  0.0920 -0.6729
 5437TIP3   OH237801   4.593   6.061   2.569  0.4740 -0.2343  0.2265
 5437TIP3    H137802   4.687   6.061   2.587  0.5463  0.1086 -0.1594
 5437TIP3    H237803   4.585   6.092   2.479  0.0777 -1.5997 -0.2241
 5438TIP3   OH237804   1.514   5.931   1.524  0.4406 -0.6978  0.0423
 5438TIP3    H137805   1.486   5.873   1.595  0.7162 -0.3213  0.4632
 5438TIP3    H237806   1.442   5.927   1.461 -0.7378  0.4872  1.2548
 5439TIP3   OH237807   2.515   5.763  14.703  0.7861  0.0966  0.3677
 5439TIP3    H137808   2.438   5.720  14.739  0.1196  0.0034 -1.1130
 5439TIP3    H237809   2.492   5.855  14.699 -0.4906 -0.2788 -2.9413
 5440TIP3   OH237810   4.424   0.745  15.304 -0.4070  0.1357  0.6269
 5440TIP3    H137811   4.349   0.788  15.263  0.2511  0.6396 -0.0688
 5440TIP3    H237812   4.393   0.657  15.326 -0.2823 -0.7968 -2.5860
 5441TIP3   OH237813   4.436   4.255   6.704  0.1766 -0.6404 -0.1548
 5441TIP3    H137814   4.530   4.239   6.712  0.1641 -0.5362  0.1887
 5441TIP3    H237815   4.428   4.351   6.703 -0.1026 -0.6255  1.8846
 5442TIP3   OH237816   2.965   6.517  14.475  1.0023  0.3464  0.3490
 5442TIP3    H137817   2.898   6.538  14.541  0.1573  0.3584 -0.4967
 5442TIP3    H237818   3.037   6.480  14.525 -0.2021 -0.9971  1.1495
 5443TIP3   OH237819   5.967   2.178  15.907  0.1333  0.0154 -0.5639
 5443TIP3    H137820   6.042   2.138  15.951  0.8318 -0.1617 -1.8881
 5443TIP3    H237821   5.904   2.107  15.897  0.2703 -0.1153 -0.4983
 5444TIP3   OH237822   3.181   0.612   5.965  0.0277  0.2843  0.2730
 5444TIP3    H137823   3.269   0.581   5.984 -0.0366  0.7890  1.4455
 5444TIP3    H237824   3.186   0.707   5.976 -0.4618  0.4055 -0.4920
 5445TIP3   OH237825   5.064   0.084  16.106  0.3436 -0.2885  0.3306
 5445TIP3    H137826   5.014   0.132  16.171  0.3399  0.1681 -0.0116
 5445TIP3    H237827   5.061   0.138  16.027  0.9725 -0.4789  0.1638
 5446TIP3   OH237828   3.573   5.991   1.727 -0.2993  0.2075 -0.0422
 5446TIP3    H137829   3.639   6.052   1.760  0.1478 -1.5157  2.3884
 5446TIP3    H237830   3.615   5.947   1.654  0.1135  1.3201 -0.4867
 5447TIP3   OH237831   0.225   4.150  13.064  0.0235 -0.5726 -0.2184
 5447TIP3    H137832   0.283   4.198  13.005 -0.2114  0.8792  0.7088
 5447TIP3    H237833   0.283   4.092  13.114  0.3584 -0.9655 -1.0465
 5448TIP3   OH237834   6.791   3.431   3.099 -0.7301 -0.6335 -0.3913
 5448TIP3    H137835   6.705   3.389   3.107 -0.6002 -0.8082  0.1349
 5448TIP3    H237836   6.788   3.503   3.162 -0.9609  0.1633 -1.3130
 5449TIP3   OH237837   6.195   1.684  16.815  0.0851  0.0076  0.3033
 5449TIP3    H137838   6.232   1.624  16.750  2.5516  1.4250  0.3228
 5449TIP3    H237839   6.265   1.747  16.832 -1.7398  1.7174  1.7667
 5450TIP3   OH237840   2.052   4.693   4.765 -0.1862  0.3410  0.5345
 5450TIP3    H137841   1.971   4.702   4.714 -0.3477  0.6587  0.8468
 5450TIP3    H237842   2.058   4.600   4.786 -1.7064  0.6820  2.5553
 5451TIP3   OH237843   3.965   4.042  14.563 -0.8493 -0.2099 -0.0058
 5451TIP3    H137844   3.967   4.130  14.524  0.9277 -0.4114 -0.3845
 5451TIP3    H237845   4.018   3.988  14.505  1.6777 -0.5810  2.5357
 5452TIP3   OH237846   3.151   2.624  12.021  0.5682  0.4660  0.5161
 5452TIP3    H137847   3.227   2.602  11.967 -0.4475 -0.1347 -0.6992
 5452TIP3    H237848   3.160   2.570  12.099  0.5920 -0.7207 -0.3077
 5453TIP3   OH237849   0.726   1.432  12.567  0.4135 -0.3685  0.2542
 5453TIP3    H137850   0.682   1.369  12.511 -0.7415  0.2902  0.3942
 5453TIP3    H237851   0.678   1.428  12.650  1.3345 -0.4592  0.7850
 5454TIP3   OH237852   5.296   6.187  11.173 -0.2781 -0.1099 -0.0366
 5454TIP3    H137853   5.377   6.209  11.218 -0.8578 -0.0535  1.0127
 5454TIP3    H237854   5.312   6.206  11.081  0.8647 -0.0254  0.1815
 5455TIP3   OH237855   3.979   6.473  15.631  0.3216  0.0202 -0.6462
 5455TIP3    H137856   3.897   6.449  15.587  0.5856  0.2547 -1.2647
 5455TIP3    H237857   3.970   6.567  15.648 -0.3172 -0.3107  0.9481
 5456TIP3   OH237858   5.518   1.745  16.634  0.0545 -0.7383  0.1054
 5456TIP3    H137859   5.530   1.657  16.669  2.4245 -0.4790  0.0743
 5456TIP3    H237860   5.607   1.775  16.616 -0.8591  0.8879 -1.8189
 5457TIP3   OH237861   1.145   0.075   1.943  0.0001 -0.2506  0.6827
 5457TIP3    H137862   1.097   0.112   1.869 -1.9472 -1.4313  1.3229
 5457TIP3    H237863   1.237   0.086   1.919 -0.5760 -0.4026 -1.8149
 5458TIP3   OH237864   2.964   2.764   3.489 -0.1967 -0.3942 -0.2507
 5458TIP3    H137865   2.974   2.682   3.441  1.6914  0.2925 -1.0897
 5458TIP3    H237866   2.872   2.765   3.516 -0.3943 -2.4903 -0.7356
 5459TIP3   OH237867   1.580   2.293   4.591  0.6199  0.0205 -0.2299
 5459TIP3    H137868   1.622   2.369   4.549 -1.3176  1.4492  0.3754
 5459TIP3    H237869   1.548   2.326   4.674  1.4942 -1.9908  0.9324
 5460TIP3   OH237870   4.507   5.806   2.323  0.3731 -0.5633  0.3712
 5460TIP3    H137871   4.535   5.874   2.384  3.0336 -2.0823  0.9625
 5460TIP3    H237872   4.568   5.813   2.250  0.7219 -2.2932  0.4621
 5461TIP3   OH237873   5.648   3.229  15.472  0.0737  0.2880  0.2762
 5461TIP3    H137874   5.649   3.200  15.381 -1.6396 -0.4973  0.4860
 5461TIP3    H237875   5.688   3.316  15.471 -1.2744  0.9168 -1.4598
 5462TIP3   OH237876   4.260   1.966  13.696 -0.3314 -0.4707  0.0232
 5462TIP3    H137877   4.345   1.949  13.655  0.7107  0.8227  1.5752
 5462TIP3    H237878   4.236   2.054  13.666 -1.3872 -1.0168 -0.8009
 5463TIP3   OH237879   1.337   1.609  14.193 -0.1648  0.1635  0.2988
 5463TIP3    H137880   1.367   1.527  14.154  0.5696  0.0219  1.1663
 5463TIP3    H237881   1.242   1.599  14.200 -0.2840  0.0897 -1.2107
 5464TIP3   OH237882   3.933   1.401   6.027 -0.0345 -0.2934 -0.0418
 5464TIP3    H137883   3.998   1.363   5.967  0.2450  2.2094 -1.4164
 5464TIP3    H237884   3.984   1.460   6.083 -0.7417 -0.2613  0.5686
 5465TIP3   OH237885   4.415   3.033   4.346 -0.1617 -0.1958  0.1734
 5465TIP3    H137886   4.449   3.010   4.432  1.5174  1.5595  0.0211
 5465TIP3    H237887   4.325   3.062   4.363 -0.0793 -0.5556  1.2321
 5466TIP3   OH237888   6.288   2.495  17.111  0.6550 -0.3880 -0.4187
 5466TIP3    H137889   6.208   2.522  17.066  1.1691  0.9215 -0.5769
 5466TIP3    H237890   6.343   2.574  17.111  1.6126 -1.0447  0.4059
 5467TIP3   OH237891   0.011   3.100  14.970 -0.3347 -0.3308  0.1025
 5467TIP3    H137892  -0.042   3.163  14.921 -1.3376 -0.4789  0.9582
 5467TIP3    H237893   0.081   3.152  15.008 -0.8871  0.1975  0.4091
 5468TIP3   OH237894   4.343   2.186   4.825 -0.5992  0.1015 -0.0838
 5468TIP3    H137895   4.310   2.209   4.738 -1.1505 -0.5163 -0.0461
 5468TIP3    H237896   4.403   2.257   4.848 -0.4967  0.2962 -0.9428
 5469TIP3   OH237897   3.669   5.724   2.280  0.2141  0.0606  0.6317
 5469TIP3    H137898   3.689   5.809   2.318 -0.0264  0.6500 -0.5449
 5469TIP3    H237899   3.605   5.742   2.211 -0.3574 -1.1519  0.8251
 5470TIP3   OH237900   0.496   6.569   5.216  0.4312 -0.0055  0.5405
 5470TIP3    H137901   0.538   6.488   5.190  0.7666  1.3621 -3.5712
 5470TIP3    H237902   0.501   6.625   5.138 -2.0700  3.0213  2.4156
 5471TIP3   OH237903   0.886   3.331   2.860  0.1807 -0.2332  0.5152
 5471TIP3    H137904   0.856   3.422   2.865  3.4318  1.0567 -1.9802
 5471TIP3    H237905   0.819   3.287   2.808 -0.2708  1.2927 -0.2422
 5472TIP3   OH237906   6.231   4.049   4.744  0.0018  0.1169 -0.6188
 5472TIP3    H137907   6.270   4.135   4.756  3.2110 -1.3460 -0.0187
 5472TIP3    H237908   6.248   4.027   4.653  1.0227 -0.7109 -0.2399
 5473TIP3   OH237909   4.339   4.750  12.623  0.6821 -0.1131 -0.3766
 5473TIP3    H137910   4.253   4.791  12.616 -0.3407 -2.0689  0.1555
 5473TIP3    H237911   4.323   4.659  12.597  2.2561 -0.9024  1.3218
 5474TIP3   OH237912   5.494   0.154  14.696 -0.8338  0.6012  0.2878
 5474TIP3    H137913   5.416   0.157  14.752  0.3504  0.3198  2.0221
 5474TIP3    H237914   5.563   0.121  14.754  0.6702  1.2434 -1.1007
 5475TIP3   OH237915   5.203   5.079   0.152  0.1206 -0.0693 -0.1791
 5475TIP3    H137916   5.293   5.070   0.122  1.0252  0.1986  2.2920
 5475TIP3    H237917   5.192   5.010   0.217 -1.1750  0.4259  0.1603
 5476TIP3   OH237918   4.904   2.894   2.999  0.4363  0.0315 -0.0794
 5476TIP3    H137919   4.908   2.969   3.058 -0.2899 -0.6722  0.8857
 5476TIP3    H237920   4.820   2.852   3.019  0.1350 -0.1647 -1.6836
 5477TIP3   OH237921   1.740   3.835  15.342 -0.0679 -0.0588 -0.3781
 5477TIP3    H137922   1.695   3.920  15.338 -0.6511 -0.3960 -1.0928
 5477TIP3    H237923   1.670   3.772  15.361  0.3770 -0.3694  0.2187
 5478TIP3   OH237924   2.091   3.841  11.284 -0.2702 -0.3550 -0.1965
 5478TIP3    H137925   2.096   3.815  11.376 -1.4940 -1.3062 -0.3956
 5478TIP3    H237926   2.088   3.758  11.236  2.7658  0.0809 -1.2612
 5479TIP3   OH237927   5.940   4.098  12.125 -0.4083  0.1867  0.5883
 5479TIP3    H137928   6.013   4.093  12.063  0.7611  2.0962  1.7886
 5479TIP3    H237929   5.923   4.007  12.150 -1.5777 -0.7558 -3.2671
 5480TIP3   OH237930   4.064   4.573   0.183  0.1829 -0.7995  0.4661
 5480TIP3    H137931   4.016   4.491   0.167 -0.2201 -0.4663 -0.0600
 5480TIP3    H237932   4.025   4.635   0.121  0.1464 -0.0830  1.2033
 5481TIP3   OH237933   2.945   4.332  16.162  0.1604  0.4047 -0.3102
 5481TIP3    H137934   2.868   4.372  16.122 -0.3232  0.2921  0.4896
 5481TIP3    H237935   2.989   4.286  16.090 -0.2825  0.8313 -0.8534
 5482TIP3   OH237936   3.940   4.702   0.679  0.4203  0.6309 -0.1128
 5482TIP3    H137937   3.922   4.793   0.654  1.0453  0.8699  0.2926
 5482TIP3    H237938   3.992   4.667   0.607 -0.9284  0.1855 -0.8974
 5483TIP3   OH237939   0.714   4.479  11.255  0.2297  0.5275  0.4252
 5483TIP3    H137940   0.667   4.424  11.191  1.4138 -1.2947  1.0826
 5483TIP3    H237941   0.732   4.560  11.207 -1.4194  0.3002 -0.6259
 5484TIP3   OH237942   5.340   5.584  17.160 -0.0315 -0.3044 -0.0361
 5484TIP3    H137943   5.349   5.639  17.082 -1.7643 -1.3261 -0.9816
 5484TIP3    H237944   5.407   5.617  17.220  0.0785  1.7221 -1.2268
 5485TIP3   OH237945   6.219   6.008   3.064 -0.4861  0.2732  0.2476
 5485TIP3    H137946   6.307   5.971   3.063  0.3325  2.1664  0.4859
 5485TIP3    H237947   6.207   6.042   2.976 -1.1375 -0.2854  0.1123
 5486TIP3   OH237948   2.876   2.245   5.149 -0.1042  0.0618 -0.8621
 5486TIP3    H137949   2.788   2.252   5.112 -0.8086  0.3856  0.8121
 5486TIP3    H237950   2.862   2.251   5.243  1.8440  1.3298 -0.6372
 5487TIP3   OH237951   4.882   2.777  14.404  0.3328  0.5289 -0.1802
 5487TIP3    H137952   4.910   2.713  14.469 -0.3748 -1.1700 -1.5086
 5487TIP3    H237953   4.789   2.790  14.421 -0.4452 -1.8263 -2.3875
 5488TIP3   OH237954   5.147   6.502   3.095  0.0528 -0.2965 -0.2208
 5488TIP3    H137955   5.079   6.435   3.106 -0.1608 -0.1291 -0.4933
 5488TIP3    H237956   5.103   6.585   3.114  0.3074 -0.2299  0.0789
 5489TIP3   OH237957   6.155   0.288   4.233 -0.2704 -1.0869 -0.6480
 5489TIP3    H137958   6.234   0.292   4.286 -0.7026 -1.4689  0.0416
 5489TIP3    H237959   6.173   0.219   4.168  1.0285  0.7591 -2.3202
 5490TIP3   OH237960   3.978   3.626   0.874  0.5187  0.1409 -0.2081
 5490TIP3    H137961   3.962   3.720   0.882  1.2396  0.2102  0.4483
 5490TIP3    H237962   3.978   3.610   0.779 -1.3492  0.4806 -0.2852
 5491TIP3   OH237963   4.422   1.040   4.610 -0.4216 -0.3697 -0.6114
 5491TIP3    H137964   4.406   1.109   4.546 -0.9063 -0.3957 -0.5208
 5491TIP3    H237965   4.489   0.985   4.570 -1.2951 -0.8451 -1.4436
 5492TIP3   OH237966   2.451   6.250  16.857 -0.1581 -0.1991 -0.1460
 5492TIP3    H137967   2.483   6.235  16.946 -1.1757 -0.3791  0.2055
 5492TIP3    H237968   2.400   6.330  16.864 -2.1812 -1.4530 -0.0327
 5493TIP3   OH237969   4.603   5.195   5.906 -0.2392  0.2942  0.0401
 5493TIP3    H137970   4.687   5.151   5.890 -1.4627 -2.0814 -0.0458
 5493TIP3    H237971   4.587   5.182   5.999 -0.4373  0.9033  0.0914
 5494TIP3   OH237972   4.847   3.273   1.504  0.0890 -0.1070  0.4397
 5494TIP3    H137973   4.933   3.316   1.499  1.6789 -3.2185 -0.4200
 5494TIP3    H237974   4.791   3.324   1.446  1.6035  1.4672  0.3219
 5495TIP3   OH237975   4.838   1.477  14.613 -0.4881  0.5483  0.0761
 5495TIP3    H137976   4.905   1.423  14.573  0.6453  1.0808  1.2398
 5495TIP3    H237977   4.756   1.433  14.592  0.3203 -0.8289 -0.2061
 5496TIP3   OH237978   5.962   1.568  17.197 -0.2642  0.1538  0.1065
 5496TIP3    H137979   5.984   1.521  17.277 -1.3850  0.2424  0.4753
 5496TIP3    H237980   5.870   1.545  17.180 -0.5500  1.4894 -0.2029
 5497TIP3   OH237981   5.784   4.567  13.363 -0.5138 -0.0452  0.3065
 5497TIP3    H137982   5.715   4.505  13.387  0.5043 -0.9033  1.0518
 5497TIP3    H237983   5.852   4.513  13.324 -0.8355  0.9688 -1.7048
 5498TIP3   OH237984   0.593   0.253   2.771 -0.3167  0.3711 -0.6584
 5498TIP3    H137985   0.504   0.282   2.791 -1.3390 -1.6452 -2.1599
 5498TIP3    H237986   0.640   0.263   2.854 -1.9991  1.1880  0.2232
 5499TIP3   OH237987   0.405   5.383   0.111  0.0403  0.2707 -0.0122
 5499TIP3    H137988   0.494   5.414   0.091  0.1315  0.2748  0.3753
 5499TIP3    H237989   0.349   5.457   0.090  0.2163  0.5625  0.5123
 5500TIP3   OH237990   3.073   4.726  14.039 -0.8128  0.4964 -0.5003
 5500TIP3    H137991   3.097   4.809  14.081 -0.0357  0.0165  0.0135
 5500TIP3    H237992   2.978   4.731  14.029 -1.1963  0.1420  2.3900
 5501TIP3   OH237993   2.612   5.691   1.209 -0.3162 -0.3729  0.0526
 5501TIP3    H137994   2.677   5.622   1.197  0.2508  0.2816 -0.6355
 5501TIP3    H237995   2.534   5.645   1.242 -0.0292 -1.3746 -0.6444
 5502TIP3   OH237996   6.480   6.774   6.274  0.1082  0.3065  0.0412
 5502TIP3    H137997   6.480   6.829   6.196 -0.9245  1.6858  0.9716
 5502TIP3    H237998   6.487   6.836   6.347  2.3625 -1.0374  1.0166
 5503TIP3   OH237999   2.979   1.260   1.206  0.1857  0.3682  0.0748
 5503TIP3    H138000   3.059   1.309   1.185  0.4132  0.5311  1.2715
 5503TIP3    H238001   2.997   1.171   1.176  1.0802  0.2470  0.9612
 5504TIP3   OH238002   1.920   1.923   0.906 -0.1388  0.1219 -0.2005
 5504TIP3    H138003   1.933   2.007   0.863 -0.3022 -0.4457 -1.3784
 5504TIP3    H238004   1.947   1.858   0.841  0.3848 -0.7234  0.8452
 5505TIP3   OH238005   6.639   3.220   0.206 -0.0219 -0.4883 -0.4446
 5505TIP3    H138006   6.707   3.196   0.143  0.7440 -1.0731  0.5788
 5505TIP3    H238007   6.583   3.282   0.159  1.0112 -0.2724 -1.4214
 5506TIP3   OH238008   3.932   6.117   3.831  0.0156  0.2162  0.0107
 5506TIP3    H138009   4.014   6.107   3.879 -0.9222 -0.0396  1.5999
 5506TIP3    H238010   3.874   6.051   3.869 -1.1159  0.7882 -0.7067
 5507TIP3   OH238011   4.586   6.176  16.005  0.1326 -0.2863  0.1565
 5507TIP3    H138012   4.652   6.127  15.956  1.6685  0.5436  1.3371
 5507TIP3    H238013   4.630   6.199  16.087 -1.7985 -0.1215  1.1661
 5508TIP3   OH238014   3.052   2.333  15.046 -0.4923 -0.1712 -0.1339
 5508TIP3    H138015   3.076   2.250  15.004  0.6423  0.9541 -1.7643
 5508TIP3    H238016   3.136   2.372  15.072 -1.0052  0.5616  0.4345
 5509TIP3   OH238017   0.048   0.306   2.835  0.0037 -0.1877 -0.5570
 5509TIP3    H138018   0.022   0.256   2.758 -0.9153 -0.1776 -0.2615
 5509TIP3    H238019   0.003   0.263   2.908  1.3551 -0.5701  0.0603
 5510TIP3   OH238020   3.516   4.107  12.905 -0.1227  0.1098 -0.1755
 5510TIP3    H138021   3.450   4.128  12.971 -0.4232  0.0444 -0.4533
 5510TIP3    H238022   3.544   4.192  12.871 -1.7091  0.0691 -1.6660
 5511TIP3   OH238023   6.375   4.063   3.167 -0.3681 -0.0253  0.2108
 5511TIP3    H138024   6.361   4.075   3.261 -0.5695 -2.2689  0.5129
 5511TIP3    H238025   6.458   4.107   3.150 -0.1928  0.1778  1.5152
 5512TIP3   OH238026   3.329   0.900   5.319 -0.3129  0.3338  0.3813
 5512TIP3    H138027   3.257   0.932   5.266 -0.5151  0.8312  0.9487
 5512TIP3    H238028   3.372   0.834   5.264 -1.3690 -0.1793  0.1528
 5513TIP3   OH238029   6.112   0.095   3.605 -0.3394  0.2480 -0.0657
 5513TIP3    H138030   6.087   0.027   3.543 -0.5143  0.4073 -0.1728
 5513TIP3    H238031   6.108   0.176   3.555 -2.1437  0.5889  0.5604
 5514TIP3   OH238032   0.774   4.916   5.129  0.2623  0.0918 -0.3291
 5514TIP3    H138033   0.688   4.874   5.123  0.2509 -0.5322  3.4136
 5514TIP3    H238034   0.758   4.997   5.176  1.6980  0.0799  0.1875
 5515TIP3   OH238035   1.357   2.274  13.005 -0.5378 -0.3000  0.4993
 5515TIP3    H138036   1.320   2.363  13.001 -0.5399 -0.3135  0.2035
 5515TIP3    H238037   1.283   2.218  13.027 -0.6793 -0.3161 -0.0066
 5516TIP3   OH238038   4.714   3.970  10.766  0.0799 -0.8063  0.1907
 5516TIP3    H138039   4.663   4.051  10.766 -0.9193 -1.4272  0.6219
 5516TIP3    H238040   4.805   3.999  10.770 -0.1338  0.3842 -2.3195
 5517TIP3   OH238041   4.165   1.959   4.660  0.1454  0.2163 -0.1314
 5517TIP3    H138042   4.256   1.929   4.664 -0.2376 -0.9288  0.3230
 5517TIP3    H238043   4.125   1.922   4.739 -1.2809 -1.2145 -1.4845
 5518TIP3   OH238044   0.386   1.706  16.314 -1.1763  0.3147 -0.1015
 5518TIP3    H138045   0.348   1.770  16.374 -0.8094  0.4928 -0.0556
 5518TIP3    H238046   0.316   1.688  16.251 -1.5717  0.0988  0.3963
 5519TIP3   OH238047   3.984   2.038  14.751 -0.1069  0.5270 -0.0312
 5519TIP3    H138048   4.053   1.991  14.705 -0.3935  0.9720 -0.9349
 5519TIP3    H238049   3.978   1.995  14.836 -1.2739 -1.9296 -1.3240
 5520TIP3   OH238050   1.305   2.916   3.166 -0.2699 -0.6600 -0.6212
 5520TIP3    H138051   1.400   2.928   3.162 -0.5145  1.5959  0.1059
 5520TIP3    H238052   1.271   2.961   3.089 -0.8719 -0.3220 -0.1583
 5521TIP3   OH238053   3.427   5.877  11.358  0.0204  0.3037  0.4269
 5521TIP3    H138054   3.493   5.909  11.419  0.2753 -1.1909  0.9468
 5521TIP3    H238055   3.454   5.912  11.273  1.1382  0.2092  0.7380
 5522TIP3   OH238056   4.634   5.749  13.113  0.2628  0.1793 -0.2178
 5522TIP3    H138057   4.605   5.675  13.060  2.4854 -0.4820 -0.5221
 5522TIP3    H238058   4.701   5.713  13.171 -0.2927  1.4595  1.2506
 5523TIP3   OH238059   0.221   3.276   5.292 -0.4663  0.3539  0.5666
 5523TIP3    H138060   0.258   3.220   5.361  0.0289  1.7821  1.4799
 5523TIP3    H238061   0.296   3.327   5.261 -1.3115  1.9882  1.1814
 5524TIP3   OH238062   2.233   2.358  12.476  0.1949  0.7085 -0.1246
 5524TIP3    H138063   2.159   2.320  12.429  0.1087  0.2925  0.3334
 5524TIP3    H238064   2.222   2.452  12.466 -0.1244  0.6365 -0.4738
 5525TIP3   OH238065   6.380   0.889   1.567 -0.9297 -0.9831 -0.3487
 5525TIP3    H138066   6.365   0.834   1.491 -0.1238 -0.1682 -1.1176
 5525TIP3    H238067   6.333   0.846   1.639 -1.9011 -1.6245 -1.3570
 5526TIP3   OH238068   4.256   4.961   6.380 -0.1841  0.3391  0.4216
 5526TIP3    H138069   4.338   5.008   6.396  0.4172 -0.6274  0.2377
 5526TIP3    H238070   4.268   4.920   6.294 -0.2946 -0.9475  0.9942
 5527TIP3   OH238071   3.088   5.907   4.443  0.0935 -0.4688 -0.7036
 5527TIP3    H138072   2.999   5.879   4.464  1.1238 -3.7458 -0.4298
 5527TIP3    H238073   3.092   5.904   4.347 -0.1496 -0.1278 -0.7230
 5528TIP3   OH238074   0.527   1.266   1.222 -0.6277 -0.4576  0.0509
 5528TIP3    H138075   0.493   1.193   1.274 -3.5456  0.9166  0.1793
 5528TIP3    H238076   0.490   1.252   1.134 -0.4753  0.3739 -0.1517
 5529TIP3   OH238077   3.820   2.089  16.093 -0.1206 -0.5607 -0.1157
 5529TIP3    H138078   3.756   2.101  16.163 -2.3393 -1.8167 -1.8582
 5529TIP3    H238079   3.789   2.144  16.022  0.9211 -0.9253 -0.8686
 5530TIP3   OH238080   6.177   3.156   1.909 -0.1699 -0.0208  0.8471
 5530TIP3    H138081   6.124   3.089   1.952  1.3577  0.0154  2.7995
 5530TIP3    H238082   6.225   3.198   1.979  1.0822  1.2010 -0.7066
 5531TIP3   OH238083   3.699   5.801  11.934  0.1106 -0.2971  0.6227
 5531TIP3    H138084   3.706   5.726  11.993  2.1423  0.3899  1.3130
 5531TIP3    H238085   3.678   5.875  11.991 -0.3189 -0.0534  0.1548
 5532TIP3   OH238086   5.585   0.676  11.963 -0.4888 -0.5942 -0.0793
 5532TIP3    H138087   5.532   0.673  12.043 -0.1252  0.0065  0.1885
 5532TIP3    H238088   5.522   0.686  11.892 -0.6292  3.3479  0.4615
 5533TIP3   OH238089   2.059   4.560  16.013  0.6203 -0.5875 -0.1972
 5533TIP3    H138090   2.113   4.634  16.040  1.2248 -0.9712 -0.3455
 5533TIP3    H238091   2.004   4.541  16.089 -1.0057  1.3051 -0.8378
 5534TIP3   OH238092   2.619   4.552  15.784  0.7151  0.0299  0.6667
 5534TIP3    H138093   2.540   4.502  15.803  0.5716  0.9903  2.7910
 5534TIP3    H238094   2.690   4.497  15.818  0.8907 -0.4797 -0.5268
 5535TIP3   OH238095   4.250   5.777   2.218 -0.0037 -0.4417 -0.1522
 5535TIP3    H138096   4.195   5.724   2.275  0.0373  0.2212  0.5165
 5535TIP3    H238097   4.323   5.805   2.275 -0.5477  1.1561 -0.2102
 5536TIP3   OH238098   4.707   1.979  14.364  0.5094  0.1385  0.1141
 5536TIP3    H138099   4.673   2.040  14.298  0.6210  0.4401  0.3303
 5536TIP3    H238100   4.741   1.905  14.314  1.0521  0.5967 -0.1950
 5537TIP3   OH238101   0.674   4.915  12.620 -0.5672 -0.6337  0.4194
 5537TIP3    H138102   0.711   4.998  12.591 -0.6471 -1.5800 -2.5700
 5537TIP3    H238103   0.581   4.934  12.637 -0.3442  0.1077  0.8040
 5538TIP3   OH238104   6.346   5.965  10.885  0.2711  0.0319  0.8040
 5538TIP3    H138105   6.390   5.888  10.920 -0.6272 -1.7601 -1.8034
 5538TIP3    H238106   6.415   6.032  10.879  2.1826 -2.0237 -1.1602
 5539TIP3   OH238107   2.681   0.969   4.671  0.7623 -0.0472 -0.2956
 5539TIP3    H138108   2.678   0.971   4.575 -0.2869 -1.4194 -0.2935
 5539TIP3    H238109   2.670   0.877   4.694 -0.5682  0.4691  1.1979
 5540TIP3   OH238110   1.967   6.764   1.832 -0.1033  0.7805 -0.0872
 5540TIP3    H138111   2.017   6.685   1.853  0.1292  0.7244 -0.8133
 5540TIP3    H238112   1.898   6.733   1.773 -0.9430  0.8725  0.8476
 5541TIP3   OH238113   4.842   2.620   1.330 -0.0039 -0.8923  0.4811
 5541TIP3    H138114   4.910   2.636   1.265 -0.3548  1.4383  0.6349
 5541TIP3    H238115   4.869   2.670   1.407 -1.2214 -0.9925  0.9937
 5542TIP3   OH238116   5.035   2.693   5.759  0.0454  0.0639 -0.7085
 5542TIP3    H138117   4.947   2.668   5.787  0.3451 -0.2665 -0.0268
 5542TIP3    H238118   5.055   2.772   5.810  2.1235 -2.7240  3.1144
 5543TIP3   OH238119   1.904   4.802   5.556  0.3144  0.2857  0.2228
 5543TIP3    H138120   1.962   4.726   5.562  0.6264  0.5687  0.7845
 5543TIP3    H238121   1.840   4.789   5.625 -0.6751 -0.3374 -0.7880
 5544TIP3   OH238122   2.243   2.648  12.284 -0.5943  1.0229 -0.2063
 5544TIP3    H138123   2.318   2.602  12.321  0.6278  1.1917 -2.3924
 5544TIP3    H238124   2.259   2.740  12.303 -1.6564  0.8406  1.7321
 5545TIP3   OH238125   1.041   4.448   5.254 -0.4459 -0.0695 -0.0212
 5545TIP3    H138126   1.094   4.459   5.333  1.3656  0.7782 -1.3013
 5545TIP3    H238127   1.072   4.367   5.215 -1.3755 -0.5157  0.1522
 5546TIP3   OH238128   6.741   3.876  10.193 -0.7908 -0.4721  0.1390
 5546TIP3    H138129   6.685   3.828  10.254 -2.0223 -1.5626 -1.7911
 5546TIP3    H238130   6.826   3.832  10.199 -1.0227 -0.8504  0.7269
 5547TIP3   OH238131   6.584   1.237  17.052  0.4101  0.1681  0.2536
 5547TIP3    H138132   6.594   1.313  16.995 -2.3650 -1.8652 -3.1582
 5547TIP3    H238133   6.499   1.251  17.094  0.9215  0.0075  1.3556
 5548TIP3   OH238134   0.026   4.249   0.234 -0.5268 -0.4238 -0.2952
 5548TIP3    H138135   0.019   4.163   0.276  1.5255 -0.1445  0.6667
 5548TIP3    H238136   0.050   4.228   0.143  1.2447 -0.8457  0.2542
 5549TIP3   OH238137   0.204   1.523  11.608  0.4925 -0.4012 -0.7027
 5549TIP3    H138138   0.221   1.585  11.536 -2.9347  1.2744 -0.1754
 5549TIP3    H238139   0.246   1.563  11.684 -1.9617  1.5173 -0.3013
 5550TIP3   OH238140   3.476   1.538  14.966  0.0163 -0.4294  0.1915
 5550TIP3    H138141   3.455   1.523  15.058  0.1621 -0.7064  0.1776
 5550TIP3    H238142   3.406   1.493  14.918 -1.1655  1.3533  0.1901
 5551TIP3   OH238143   4.120   2.215   0.744 -0.3687 -0.8993 -0.1200
 5551TIP3    H138144   4.145   2.198   0.834 -0.5309  1.7597  0.4801
 5551TIP3    H238145   4.179   2.161   0.691  2.8784  0.9738  1.4498
 5552TIP3   OH238146   5.263   0.671   2.869 -0.7563  0.8881 -0.3742
 5552TIP3    H138147   5.183   0.644   2.824 -0.9109  0.2577  0.2787
 5552TIP3    H238148   5.317   0.710   2.801 -1.4195  0.8756 -0.9100
 5553TIP3   OH238149   3.656   1.605  16.589 -0.1101  0.1653  0.5087
 5553TIP3    H138150   3.630   1.605  16.681  0.8141 -1.8376  0.8113
 5553TIP3    H238151   3.738   1.556  16.588  0.0389  0.4266 -1.3455
 5554TIP3   OH238152   6.653   1.932  16.377  0.5887  0.1391 -0.6444
 5554TIP3    H138153   6.674   1.945  16.469  1.0187 -0.6506 -0.6253
 5554TIP3    H238154   6.595   1.856  16.376 -1.3268  1.5988 -0.8110
 5555TIP3   OH238155   4.824   2.170   4.796  0.1934  0.4204  0.4617
 5555TIP3    H138156   4.842   2.199   4.885 -0.4849  0.2372  0.6628
 5555TIP3    H238157   4.903   2.191   4.747  1.5996 -1.8128  1.6647
 5556TIP3   OH238158   2.586   1.197   3.811  0.1995 -0.4365 -0.4501
 5556TIP3    H138159   2.553   1.118   3.853 -0.3490 -0.6720 -1.3170
 5556TIP3    H238160   2.666   1.169   3.766  1.0169 -0.0957  0.7573
 5557TIP3   OH238161   4.373   5.435   2.876  0.5161  0.0434 -0.4395
 5557TIP3    H138162   4.461   5.423   2.911 -0.0309 -1.4763  0.4615
 5557TIP3    H238163   4.323   5.362   2.913 -0.7132 -0.0545 -2.2668
 5558TIP3   OH238164   5.534   3.931  11.499 -0.3026  0.5059  0.7885
 5558TIP3    H138165   5.543   3.957  11.591  1.5531 -0.8716  1.0165
 5558TIP3    H238166   5.624   3.916  11.469 -0.9299  0.3520 -1.0908
 5559TIP3   OH238167   3.094   4.014   5.068  0.3283 -0.6497  0.1891
 5559TIP3    H138168   3.069   3.990   5.158  1.5513 -3.1355 -0.0824
 5559TIP3    H238169   3.189   4.022   5.072  0.3054  0.1000 -0.7148
 5560TIP3   OH238170   1.434   5.491   3.205 -0.1474  0.5544  0.7004
 5560TIP3    H138171   1.396   5.475   3.118 -0.4033  0.8614  0.7552
 5560TIP3    H238172   1.443   5.404   3.243 -1.7637  0.5399  1.0931
 5561TIP3   OH238173   5.118   2.489   4.666  0.1868  0.7182 -0.1199
 5561TIP3    H138174   5.124   2.461   4.574 -1.2300  0.2730 -0.0935
 5561TIP3    H238175   5.206   2.521   4.687  0.9251 -0.5613 -1.1776
 5562TIP3   OH238176   3.401   3.332  13.579  0.6030  0.5593 -0.5915
 5562TIP3    H138177   3.410   3.238  13.594 -0.7647  0.0758 -2.6073
 5562TIP3    H238178   3.486   3.369  13.604  0.8517 -1.0776  1.0754
 5563TIP3   OH238179   4.821   1.715   5.068  0.4965  0.3884  0.7104
 5563TIP3    H138180   4.750   1.651   5.067  2.0234 -1.3545 -0.1890
 5563TIP3    H238181   4.824   1.748   4.978  0.7675  0.5246  0.7689
 5564TIP3   OH238182   0.435   1.414  11.932 -0.0945 -0.5592 -0.0936
 5564TIP3    H138183   0.399   1.502  11.934 -0.6902 -0.8111  0.1604
 5564TIP3    H238184   0.485   1.410  11.851 -0.5184 -0.1682 -0.3716
 5565TIP3   OH238185   2.150   1.051  14.041 -0.1473 -0.5383 -0.4025
 5565TIP3    H138186   2.225   1.111  14.044  0.1679 -0.9196 -0.6342
 5565TIP3    H238187   2.094   1.079  14.113 -0.2934  0.4235 -0.8835
 5566TIP3   OH238188   6.152   0.077  15.011  0.1650  0.0567  0.2539
 5566TIP3    H138189   6.128   0.165  15.038 -0.6764  1.0826 -3.4682
 5566TIP3    H238190   6.086   0.020  15.053 -1.5733  1.6204 -0.2827
 5567TIP3   OH238191   4.571   0.963   1.159 -0.0645  0.0889 -0.2527
 5567TIP3    H138192   4.624   0.913   1.220  1.9799  1.7717 -0.5962
 5567TIP3    H238193   4.581   1.054   1.188 -2.2973  0.5156 -0.6884
 5568TIP3   OH238194   1.889   2.996   3.198  0.1336 -0.6299  0.1430
 5568TIP3    H138195   1.981   3.007   3.173 -0.1225 -3.7034 -2.4180
 5568TIP3    H238196   1.841   3.047   3.133 -0.0633 -0.1741  0.6426
 5569TIP3   OH238197   6.778   1.197  12.616  0.2557 -0.1530  0.1885
 5569TIP3    H138198   6.687   1.226  12.602  0.4525  1.0568  1.2656
 5569TIP3    H238199   6.826   1.278  12.634  1.6644 -0.7272 -0.9129
 5570TIP3   OH238200   6.337   4.503   5.769 -0.2076  0.1622 -0.4786
 5570TIP3    H138201   6.292   4.441   5.712  0.2843  1.0263 -1.8116
 5570TIP3    H238202   6.325   4.588   5.727 -0.7616  0.9835  1.2653
 5571TIP3   OH238203   4.274   5.712  16.377 -0.2968 -0.9590 -0.0590
 5571TIP3    H138204   4.280   5.636  16.320 -1.1553  0.0541 -1.5151
 5571TIP3    H238205   4.184   5.742  16.369  0.3364  0.9394 -0.4666
 5572TIP3   OH238206   3.736   4.916  17.243 -0.0145  0.3245  0.2561
 5572TIP3    H138207   3.772   4.954  17.162  1.3296 -1.9661 -0.2735
 5572TIP3    H238208   3.651   4.880  17.216  1.0257 -1.6157 -0.4623
 5573TIP3   OH238209   5.569   5.581   6.472  0.0404 -0.5770  0.2212
 5573TIP3    H138210   5.664   5.585   6.462 -0.1680 -1.9221 -2.8846
 5573TIP3    H238211   5.545   5.667   6.507  2.2887  0.1827 -0.0497
 5574TIP3   OH238212   2.605   2.752   5.451 -0.0354 -0.1088  0.0620
 5574TIP3    H138213   2.652   2.753   5.368 -2.8927  0.3663 -1.6228
 5574TIP3    H238214   2.609   2.842   5.482  0.5771 -0.1699  0.1512
 5575TIP3   OH238215   4.441   1.013   2.909  0.2371 -0.0856 -0.7499
 5575TIP3    H138216   4.406   1.014   2.820  1.8479  0.1266 -1.4001
 5575TIP3    H238217   4.502   0.939   2.910  0.8674  0.4385 -0.0821
 5576TIP3   OH238218   2.572   3.446  11.970  0.3488  0.1148 -0.1144
 5576TIP3    H138219   2.621   3.460  11.890 -1.1795  1.9143 -0.7688
 5576TIP3    H238220   2.480   3.447  11.943 -0.1363 -2.7154  1.1430
 5577TIP3   OH238221   0.485   3.204  13.213  0.0320 -1.0248  0.2635
 5577TIP3    H138222   0.404   3.204  13.264 -0.0116  2.5704  0.3797
 5577TIP3    H238223   0.548   3.155  13.265 -1.7264 -2.8425  0.7276
 5578TIP3   OH238224   1.431   3.449  11.392  0.2617  0.2861  0.8027
 5578TIP3    H138225   1.386   3.404  11.321 -0.6242  1.3709  0.6629
 5578TIP3    H238226   1.405   3.402  11.471  0.0706 -0.0164  0.5591
 5579TIP3   OH238227   6.449   0.166  13.453  0.8696  0.1897  0.2977
 5579TIP3    H138228   6.493   0.218  13.386  0.6940  0.1734  0.1692
 5579TIP3    H238229   6.387   0.226  13.493  1.1529  0.2696  0.6181
 5580TIP3   OH238230   0.675   2.964  16.717  0.4684 -0.1649  0.4430
 5580TIP3    H138231   0.606   2.897  16.711 -1.0404  1.3651  0.5145
 5580TIP3    H238232   0.691   2.989  16.626  1.2944 -0.8644  0.3865
 5581TIP3   OH238233   0.825   2.375   2.345  0.2675 -0.0978 -0.1102
 5581TIP3    H138234   0.911   2.376   2.303 -0.5104  1.3420 -1.7454
 5581TIP3    H238235   0.819   2.460   2.389 -0.4130 -0.0954 -0.2000
 5582TIP3   OH238236   1.984   2.636  15.058 -0.2600 -0.0736 -0.3371
 5582TIP3    H138237   2.028   2.588  15.128 -0.8654 -0.2220 -0.0561
 5582TIP3    H238238   2.030   2.720  15.053 -0.0233 -0.1806  0.0263
 5583TIP3   OH238239   1.489   0.990  16.500 -0.5695  0.0451 -0.7268
 5583TIP3    H138240   1.555   0.928  16.532 -1.2317 -0.1447  0.2922
 5583TIP3    H238241   1.539   1.069  16.481  0.0969 -0.4028 -0.8852
 5584TIP3   OH238242   0.560   2.760   4.920  0.0933  0.1540 -0.0041
 5584TIP3    H138243   0.556   2.852   4.896  1.6277  0.0422 -0.8042
 5584TIP3    H238244   0.536   2.713   4.840  0.1816 -0.1477  0.1437
 5585TIP3   OH238245   2.848   0.714  12.847  0.5980 -0.6889  0.4005
 5585TIP3    H138246   2.908   0.783  12.818  1.6554 -1.9658 -0.5304
 5585TIP3    H238247   2.862   0.643  12.785  0.0479 -2.0209  1.7723
 5586TIP3   OH238248   5.393   3.425  14.648  0.0138 -0.4711 -0.5206
 5586TIP3    H138249   5.328   3.369  14.607  0.9362 -3.1597  1.5962
 5586TIP3    H238250   5.466   3.426  14.586 -0.8083  0.1147 -1.5023
 5587TIP3   OH238251   6.539   6.578  16.038  0.3586 -0.0517 -0.0645
 5587TIP3    H138252   6.535   6.508  16.103 -1.2510 -0.1353 -0.2320
 5587TIP3    H238253   6.547   6.658  16.089 -1.6454 -0.0561  0.2831
 5588TIP3   OH238254   0.568   4.003  16.032  0.6822 -0.8145 -0.2245
 5588TIP3    H138255   0.575   4.017  15.938 -0.1364 -0.1658 -0.1950
 5588TIP3    H238256   0.553   4.090  16.069 -1.1099 -1.3142  0.2872
 5589TIP3   OH238257   6.818   4.301  15.467  0.2292 -0.3655  0.1033
 5589TIP3    H138258   6.894   4.251  15.497 -0.4070 -2.1760 -1.2767
 5589TIP3    H238259   6.840   4.328  15.378  0.1892  1.0986  0.5068
 5590TIP3   OH238260   2.875   3.388  14.480 -0.3602  0.1754  0.2624
 5590TIP3    H138261   2.911   3.382  14.391  0.3708  1.3304  0.4641
 5590TIP3    H238262   2.907   3.310  14.525  0.7075  0.4631  0.0159
 5591TIP3   OH238263   2.852   2.742   1.934  0.6812  0.0505 -0.4685
 5591TIP3    H138264   2.845   2.736   1.839 -1.2432  0.7896 -0.3920
 5591TIP3    H238265   2.827   2.832   1.954  0.5909 -0.2444  0.7836
 5592TIP3   OH238266   0.421   3.146  10.196  0.0192  0.4587  0.6687
 5592TIP3    H138267   0.465   3.114  10.275  1.1025  2.4434  0.8793
 5592TIP3    H238268   0.395   3.235  10.217 -1.3763  0.3615 -0.5674
 5593TIP3   OH238269   3.642   4.389   2.109  0.2041 -0.0690  0.1295
 5593TIP3    H138270   3.714   4.337   2.073 -0.3312 -0.5134 -0.3046
 5593TIP3    H238271   3.677   4.424   2.191  0.3562 -1.6054  0.7394
 5594TIP3   OH238272   5.177   2.979  11.887 -0.6143  0.0186 -0.2761
 5594TIP3    H138273   5.117   3.001  11.958 -1.5359 -1.4592 -0.5766
 5594TIP3    H238274   5.189   2.884  11.893  0.3386  0.0571 -1.2809
 5595TIP3   OH238275   2.331   1.995   0.431 -0.7265  0.1210  0.4670
 5595TIP3    H138276   2.354   2.057   0.362 -0.8111  0.1904  0.5011
 5595TIP3    H238277   2.363   1.910   0.399 -1.4011  0.0287  0.0187
 5596TIP3   OH238278   6.524   2.360  16.664  0.4061 -0.1197  0.4107
 5596TIP3    H138279   6.478   2.331  16.585 -2.5967  0.1272  1.9671
 5596TIP3    H238280   6.571   2.282  16.695  1.0137 -0.4038 -1.2014
 5597TIP3   OH238281   1.505   5.231  13.067  0.1760 -0.4149  0.0155
 5597TIP3    H138282   1.580   5.177  13.043  1.2099  0.7082  0.6999
 5597TIP3    H238283   1.466   5.257  12.983  1.2881  0.0115 -0.3767
 5598TIP3   OH238284   6.343   1.991  15.693 -0.0752  0.0208  0.3576
 5598TIP3    H138285   6.313   1.975  15.604 -2.0856 -1.2037  1.2124
 5598TIP3    H238286   6.417   2.051  15.684  0.6672 -1.2340 -2.2261
 5599TIP3   OH238287   2.337   2.575   1.242 -0.6254  0.3770  0.2992
 5599TIP3    H138288   2.338   2.491   1.287  0.5023 -0.1506 -0.6786
 5599TIP3    H238289   2.420   2.577   1.194 -0.4625  2.2203  0.6456
 5600TIP3   OH238290   2.986   6.236   1.747 -0.0949 -0.1978  0.0955
 5600TIP3    H138291   3.021   6.289   1.676 -0.0554 -1.7886 -1.0838
 5600TIP3    H238292   2.911   6.286   1.779 -0.2275  0.4409 -1.1821
 5601TIP3   OH238293   5.240   0.313  16.432 -0.0623  0.7953  0.7011
 5601TIP3    H138294   5.173   0.304  16.500 -0.4916  0.6708  0.2602
 5601TIP3    H238295   5.314   0.262  16.465 -1.7042 -2.7236 -0.7863
 5602TIP3   OH238296   4.734   1.308  16.245  0.1484  0.3063  0.7725
 5602TIP3    H138297   4.643   1.323  16.219  0.2044  0.7646  0.8517
 5602TIP3    H238298   4.769   1.251  16.176  0.5701  2.2687 -0.6841
 5603TIP3   OH238299   2.435   2.499  13.996 -0.2744 -0.1685 -0.4838
 5603TIP3    H138300   2.503   2.456  14.049  0.3330  0.1240 -1.0164
 5603TIP3    H238301   2.472   2.503  13.908 -0.7079  0.5959 -0.6411
 5604TIP3   OH238302   0.350   3.916  13.160  0.0187  0.5675 -0.1832
 5604TIP3    H138303   0.363   3.836  13.210  1.8398  0.8067 -0.2390
 5604TIP3    H238304   0.334   3.886  13.070  0.0692  0.2593 -0.0886
 5605TIP3   OH238305   1.804   1.037  14.127  0.5933  0.1554  0.3222
 5605TIP3    H138306   1.830   1.024  14.218  2.4544  1.2135 -0.0276
 5605TIP3    H238307   1.859   0.976  14.078 -1.7562 -1.8019  0.0445
 5606TIP3   OH238308   1.297   4.112   2.453  0.1688 -0.5569  0.5279
 5606TIP3    H138309   1.218   4.157   2.481 -0.0162  0.0073 -0.8332
 5606TIP3    H238310   1.351   4.181   2.414 -0.4387 -1.6028 -2.2725
 5607TIP3   OH238311   3.258   0.176  12.615 -0.0766  0.3485 -0.0476
 5607TIP3    H138312   3.167   0.149  12.622  0.1241 -0.2969  0.0797
 5607TIP3    H238313   3.278   0.169  12.521  0.3960 -1.3420  0.1651
 5608TIP3   OH238314   1.926   0.998  11.503  0.3043  0.6885  0.1575
 5608TIP3    H138315   1.926   1.027  11.412 -0.5748 -1.6241 -0.6124
 5608TIP3    H238316   1.893   1.073  11.552 -0.2855  1.5834 -1.5548
 5609TIP3   OH238317   0.446   0.879   4.549 -0.4910 -0.8251 -0.6947
 5609TIP3    H138318   0.465   0.803   4.604 -0.2276 -0.7948 -0.7422
 5609TIP3    H238319   0.356   0.865   4.520 -0.4733 -1.0775 -0.6359
 5610TIP3   OH238320   0.026   3.777  12.583  0.1776  0.1060  0.1674
 5610TIP3    H138321   0.056   3.864  12.554  3.1513 -0.7918  0.4066
 5610TIP3    H238322  -0.000   3.733  12.502  0.3308  0.6117 -0.1626
 5611TIP3   OH238323   0.163   1.741   5.201 -0.6284  0.2402  0.2807
 5611TIP3    H138324   0.155   1.780   5.114 -1.0356  0.0769  0.2423
 5611TIP3    H238325   0.197   1.653   5.185 -2.8816 -0.6295  0.0891
 5612TIP3   OH238326   1.207   2.353   1.363 -0.1972  0.0331  0.2831
 5612TIP3    H138327   1.193   2.259   1.360  0.2221 -0.0046 -1.0807
 5612TIP3    H238328   1.277   2.369   1.300 -0.5849  1.3020  0.1416
 5613TIP3   OH238329   0.245   4.837   5.816 -0.0687  0.1022 -0.3865
 5613TIP3    H138330   0.243   4.743   5.796  1.2754 -0.1118  0.4721
 5613TIP3    H238331   0.334   4.864   5.794 -0.5112  1.2253 -0.8064
 5614TIP3   OH238332   3.822   5.542   2.734  0.1625 -0.0548  0.4909
 5614TIP3    H138333   3.911   5.508   2.738  0.5074  0.8110  0.2273
 5614TIP3    H238334   3.831   5.630   2.697 -0.8647 -0.2171 -0.1672
 5615TIP3   OH238335   0.028   4.770   5.461 -0.0024 -0.3913  0.8435
 5615TIP3    H138336   0.047   4.833   5.531 -3.1620  1.1818  0.4005
 5615TIP3    H238337   0.011   4.688   5.507 -1.7949  0.5686  1.9800
 5616TIP3   OH238338   5.782   5.760  12.391 -0.4469  0.2439 -0.0776
 5616TIP3    H138339   5.819   5.696  12.331 -1.9285  0.4250 -1.2138
 5616TIP3    H238340   5.846   5.830  12.394  0.7454 -0.8494  0.4323
 5617TIP3   OH238341   0.928   0.732   0.617 -0.3767  0.5514  0.2587
 5617TIP3    H138342   0.964   0.748   0.530 -2.0342  0.4514 -0.4578
 5617TIP3    H238343   0.915   0.819   0.655 -2.6596  0.7271 -0.8563
 5618TIP3   OH238344   6.244   4.079   0.773  0.0941 -0.0400  0.1881
 5618TIP3    H138345   6.276   4.102   0.686 -0.6817  0.7193  0.0997
 5618TIP3    H238346   6.172   4.018   0.756 -0.2537  0.3434  0.2861
 5619TIP3   OH238347   4.851   6.280   1.910  0.4637 -0.4466  0.1303
 5619TIP3    H138348   4.800   6.348   1.866  2.3710  0.8074 -0.2189
 5619TIP3    H238349   4.867   6.315   1.998  1.0915 -0.6075  0.0871
 5620TIP3   OH238350   2.944   0.027   5.635 -0.3041 -0.0585  0.4262
 5620TIP3    H138351   3.003  -0.037   5.596 -0.1830  0.6267 -0.5042
 5620TIP3    H238352   2.977   0.038   5.725  0.5747 -0.1723  0.1177
 5621TIP3   OH238353   4.700   1.841   3.574 -0.1333  0.5635 -0.0882
 5621TIP3    H138354   4.754   1.776   3.620 -0.2405 -0.4991 -1.4167
 5621TIP3    H238355   4.764   1.899   3.532 -0.0140  0.2211 -0.3915
 5622TIP3   OH238356   0.876   3.535  14.951 -0.1941 -0.1719  0.3633
 5622TIP3    H138357   0.939   3.465  14.967 -0.0795  0.4401  2.6983
 5622TIP3    H238358   0.818   3.535  15.027 -1.1351  1.2799 -0.3117
 5623TIP3   OH238359   3.695   0.377  14.596  0.3746  0.6118  0.2306
 5623TIP3    H138360   3.665   0.468  14.586  1.8399  1.5134  3.4436
 5623TIP3    H238361   3.643   0.343  14.669  0.8506 -0.7082 -0.0364
 5624TIP3   OH238362   6.530   3.885  14.863  0.0263 -0.0846  0.0222
 5624TIP3    H138363   6.555   3.891  14.770 -1.0374  0.6554 -0.2341
 5624TIP3    H238364   6.587   3.818  14.899 -0.0762 -0.9367 -1.3629
 5625TIP3   OH238365   5.620   0.206   2.519 -0.0841 -0.0678 -0.3119
 5625TIP3    H138366   5.605   0.187   2.427  0.4494 -0.0991 -0.3905
 5625TIP3    H238367   5.659   0.127   2.555 -0.2209 -0.0297 -0.0711
 5626TIP3   OH238368   2.512   3.958   3.962  0.2182 -0.4683  0.1568
 5626TIP3    H138369   2.562   4.038   3.980 -2.7810  1.3220  0.8896
 5626TIP3    H238370   2.450   3.953   4.035 -3.4100 -0.3488 -2.8290
 5627TIP3   OH238371   1.879   5.424   4.780 -0.3532  0.4639 -0.3750
 5627TIP3    H138372   1.888   5.486   4.707 -0.6150 -0.4142 -1.1723
 5627TIP3    H238373   1.963   5.426   4.825 -0.2097  1.0646 -0.6731
 5628TIP3   OH238374   4.315   5.268  13.325  0.2208 -0.0841  0.4899
 5628TIP3    H138375   4.353   5.201  13.382 -2.8736 -1.4752  1.0405
 5628TIP3    H238376   4.306   5.224  13.240  1.1445  0.6954 -0.0171
 5629TIP3   OH238377   0.877   2.595  16.458  0.1521  0.0627  0.6971
 5629TIP3    H138378   0.833   2.648  16.392  0.6870  1.3831  1.3667
 5629TIP3    H238379   0.849   2.506  16.441  1.6286  0.1342 -2.3811
 5630TIP3   OH238380   2.952   5.535  15.315  0.5041 -0.1514  0.0316
 5630TIP3    H138381   3.019   5.504  15.254  1.0825  0.6169  0.2787
 5630TIP3    H238382   2.977   5.499  15.400 -0.7140 -1.8473 -0.3040
 5631TIP3   OH238383   5.879   0.242   3.456  0.0263 -0.3243 -0.3380
 5631TIP3    H138384   5.788   0.216   3.470 -0.4442  1.9910  1.1534
 5631TIP3    H238385   5.929   0.188   3.517 -0.5740 -0.0651  0.3825
 5632TIP3   OH238386   0.093   1.142  16.041 -0.0112  0.1124 -0.2137
 5632TIP3    H138387   0.171   1.088  16.034 -0.3195 -0.4368  0.5113
 5632TIP3    H238388   0.085   1.159  16.135 -1.3495 -0.7071 -0.1703
 5633TIP3   OH238389   5.823   2.930  11.362 -0.2138  0.0681 -0.0007
 5633TIP3    H138390   5.806   3.000  11.424 -1.3674  0.6650 -0.9524
 5633TIP3    H238391   5.809   2.970  11.276  0.7534 -0.8932 -0.6176
 5634TIP3   OH238392   5.425   4.359  12.662 -0.2909 -0.5172 -0.3706
 5634TIP3    H138393   5.417   4.342  12.756 -0.6373 -1.0658 -0.4984
 5634TIP3    H238394   5.356   4.423  12.644 -2.0979 -2.5396 -0.7837
 5635TIP3   OH238395   4.937   6.600   4.312  0.1669 -0.0719 -0.3831
 5635TIP3    H138396   5.021   6.642   4.298  0.5492 -0.9264 -0.7254
 5635TIP3    H238397   4.875   6.672   4.322  0.3314  0.6342 -3.7028
 5636TIP3   OH238398   0.233   5.914   3.547 -0.5307 -0.1758  0.1051
 5636TIP3    H138399   0.264   5.839   3.497 -0.0853 -0.2370  0.4664
 5636TIP3    H238400   0.208   5.877   3.632  1.3501  0.3304  0.9109
 5637TIP3   OH238401   5.074   4.030   1.866  0.7682  0.4576 -0.1164
 5637TIP3    H138402   5.092   4.028   1.960  1.2237  1.7305 -0.1685
 5637TIP3    H238403   5.011   3.959   1.853  0.0162  0.8263  1.2982
 5638TIP3   OH238404   6.400   4.438  15.078 -0.8048  0.1275  0.1343
 5638TIP3    H138405   6.341   4.427  15.152 -0.3114 -0.0385  0.5040
 5638TIP3    H238406   6.348   4.485  15.012 -2.2794 -2.4748 -0.6349
 5639TIP3   OH238407   0.225   0.037  15.842  0.3225 -0.0232  0.2920
 5639TIP3    H138408   0.182  -0.046  15.822  1.9549 -0.8682  0.2042
 5639TIP3    H238409   0.237   0.079  15.757 -0.2622  0.1860  0.3103
 5640TIP3   OH238410   0.580   6.750  17.233  0.0359  1.0905  0.4617
 5640TIP3    H138411   0.545   6.834  17.263  0.6434  1.6991 -0.4944
 5640TIP3    H238412   0.665   6.773  17.194  0.3274 -0.0080  0.4452
 5641TIP3   OH238413   2.952   0.316   6.419  0.0856  0.3475 -0.4725
 5641TIP3    H138414   2.901   0.273   6.487  0.3480  0.4911 -0.1798
 5641TIP3    H238415   2.990   0.244   6.368  0.0018  0.2388 -0.3820
 5642TIP3   OH238416   0.194   5.493   3.647 -0.0509 -0.1804  0.0198
 5642TIP3    H138417   0.183   5.486   3.742  0.7852  0.3753  0.1695
 5642TIP3    H238418   0.163   5.409   3.612 -1.5743  0.0909  0.6656
 5643TIP3   OH238419   0.404   3.959  11.343  0.5004  0.3579  0.2154
 5643TIP3    H138420   0.328   4.013  11.324 -0.5705 -0.8625  0.8860
 5643TIP3    H238421   0.476   3.999  11.295 -0.3343  2.1729  0.4653
 5644TIP3   OH238422   1.413   1.452   2.709 -0.5557  0.4438 -0.5607
 5644TIP3    H138423   1.323   1.484   2.703 -0.8323 -0.4811 -1.3717
 5644TIP3    H238424   1.415   1.375   2.652  1.0287  1.0719 -1.3652
 5645TIP3   OH238425   3.276   4.665   1.865  0.0735  0.2760  0.1609
 5645TIP3    H138426   3.352   4.610   1.846  0.3208  0.4435  0.6625
 5645TIP3    H238427   3.242   4.631   1.948  0.3391  0.9961  0.5705
 5646TIP3   OH238428   1.822   0.666  15.271 -0.4308 -0.0941 -0.0673
 5646TIP3    H138429   1.862   0.738  15.223 -0.8257 -0.1257 -0.4495
 5646TIP3    H238430   1.747   0.640  15.217 -0.4261 -0.6341  0.1840
 5647TIP3   OH238431   2.425   5.939  13.682  0.0103 -0.4179  0.1115
 5647TIP3    H138432   2.406   5.888  13.760 -0.6116  1.0554  0.9386
 5647TIP3    H238433   2.412   6.030  13.708  0.6623  0.1568 -1.4577
 5648TIP3   OH238434   3.969   2.420   5.313  0.3389 -0.2321 -0.4429
 5648TIP3    H138435   3.942   2.449   5.400 -0.5154  0.0651 -0.7989
 5648TIP3    H238436   4.062   2.441   5.308  0.5617 -0.8948  0.6618
 5649TIP3   OH238437   2.538   2.169   2.733  0.0749  0.2907 -0.6499
 5649TIP3    H138438   2.591   2.173   2.653  1.4744  0.6449  0.2797
 5649TIP3    H238439   2.501   2.257   2.741 -2.1307 -0.4409 -2.2531
 5650TIP3   OH238440   5.815   1.579  14.161  0.1457  0.0008  0.2465
 5650TIP3    H138441   5.854   1.629  14.089  0.0962  0.9334  0.8665
 5650TIP3    H238442   5.791   1.495  14.121  0.4424  0.3778 -0.7409
 5651TIP3   OH238443   0.503   2.048   3.490  0.2063  0.0897 -0.3561
 5651TIP3    H138444   0.457   2.126   3.458 -0.0530  0.3176  0.5541
 5651TIP3    H238445   0.513   1.992   3.413 -0.1062  0.7780 -0.8978
 5652TIP3   OH238446   2.316   4.413  15.139  0.4053  0.0970 -0.1509
 5652TIP3    H138447   2.234   4.363  15.144  0.2882  0.3951  1.1738
 5652TIP3    H238448   2.369   4.366  15.075  0.0208 -1.3349  0.5429
 5653TIP3   OH238449   4.504   4.113   1.629 -0.3147 -0.8109  0.2726
 5653TIP3    H138450   4.457   4.170   1.689 -0.0647 -1.6843  1.3174
 5653TIP3    H238451   4.515   4.031   1.677  0.9796 -1.1131 -0.5080
 5654TIP3   OH238452   3.134   2.930   1.588  0.1142  0.7698  0.4524
 5654TIP3    H138453   3.180   2.846   1.590  0.4794  0.8651 -2.2212
 5654TIP3    H238454   3.041   2.907   1.595  0.1231  0.0176 -1.6410
 5655TIP3   OH238455   2.290   1.039  12.735  0.4530  0.3010  0.0855
 5655TIP3    H138456   2.260   1.028  12.645 -0.7448  1.6494  0.3059
 5655TIP3    H238457   2.384   1.057  12.727 -0.0215  2.4783 -1.0587
 5656TIP3   OH238458   3.979   3.753   3.714 -0.1882  0.2947  0.0267
 5656TIP3    H138459   3.954   3.670   3.754 -2.6771  0.3085 -1.4003
 5656TIP3    H238460   4.046   3.729   3.650 -0.5282 -0.5494 -0.0221
 5657TIP3   OH238461   6.448   0.966  10.596 -0.8277 -0.3086  0.0632
 5657TIP3    H138462   6.517   1.031  10.586 -1.2554 -0.1770 -2.3920
 5657TIP3    H238463   6.369   1.010  10.563 -1.7466 -1.0479  1.2179
 5658TIP3   OH238464   2.550   0.430  14.965  0.2802 -0.2280  0.3763
 5658TIP3    H138465   2.497   0.480  15.027 -1.4120 -1.7306  0.1902
 5658TIP3    H238466   2.488   0.402  14.897  1.2755 -2.1211  0.2120
 5659TIP3   OH238467   5.632   5.452  15.249  0.5095  0.2714  0.1917
 5659TIP3    H138468   5.630   5.529  15.193  1.4982  0.8231  0.8999
 5659TIP3    H238469   5.543   5.418  15.246 -0.2061  2.0504  0.7353
 5660TIP3   OH238470   5.475   4.657  10.378  0.2120  0.2742  0.3839
 5660TIP3    H138471   5.473   4.562  10.374  0.5619  0.3006 -0.6296
 5660TIP3    H238472   5.526   4.677  10.456 -0.7773 -0.3638  1.2038
 5661TIP3   OH238473   1.931   2.938   0.758  0.2131 -0.7141 -0.1103
 5661TIP3    H138474   1.885   2.885   0.823  0.7300 -1.0271  0.0079
 5661TIP3    H238475   2.024   2.916   0.771  0.5711  1.3544  0.9643
 5662TIP3   OH238476   4.888   3.423   5.280  0.2961  0.3987 -0.3681
 5662TIP3    H138477   4.802   3.382   5.287  0.0422  1.2671  2.0755
 5662TIP3    H238478   4.930   3.378   5.207 -1.0440 -2.2271  0.4146
 5663TIP3   OH238479   2.205   3.022  12.685  0.0947  0.1530 -0.3981
 5663TIP3    H138480   2.162   3.019  12.770  1.4111  1.3191  0.3292
 5663TIP3    H238481   2.178   3.105  12.646  2.1721  1.2488  0.3756
 5664TIP3   OH238482   4.712   0.096  10.570 -0.0441  0.1233  0.4421
 5664TIP3    H138483   4.659   0.065  10.644 -0.7351  0.6755  0.1816
 5664TIP3    H238484   4.738   0.017  10.524 -3.4291  0.0005 -1.3421
 5665TIP3   OH238485   0.143   6.250  12.921 -0.9674 -0.6098  0.0013
 5665TIP3    H138486   0.111   6.264  13.010 -0.8198 -0.2289 -0.0020
 5665TIP3    H238487   0.176   6.160  12.921 -1.7603 -0.9044  0.0870
 5666TIP3   OH238488   5.164   1.247  11.979  0.5994  0.2624 -0.8230
 5666TIP3    H138489   5.142   1.229  12.071 -1.5408  1.1412 -1.1404
 5666TIP3    H238490   5.221   1.174  11.954 -0.1497 -0.8927  0.7231
 5667TIP3   OH238491   6.796   4.007   5.441  0.8508 -0.4024  0.0706
 5667TIP3    H138492   6.852   4.053   5.378 -1.0549  1.9203  0.0001
 5667TIP3    H238493   6.801   4.060   5.521 -0.9513 -0.3386  0.1639
 5668TIP3   OH238494   6.735   4.679  13.963 -0.3702  0.2514  0.0014
 5668TIP3    H138495   6.646   4.707  13.982 -0.5118  1.1606 -1.8424
 5668TIP3    H238496   6.774   4.752  13.915  0.9601 -0.6236 -0.2973
 5669TIP3   OH238497   0.193   5.895  13.781 -0.0429 -0.0980 -0.1172
 5669TIP3    H138498   0.275   5.932  13.815 -0.3548 -0.1252  0.6728
 5669TIP3    H238499   0.170   5.953  13.708  0.7275 -0.1446 -0.4101
 5670TIP3   OH238500   5.094   0.224   5.678  0.2090 -0.4714 -0.3932
 5670TIP3    H138501   5.050   0.277   5.611  0.0241 -2.8019 -2.1671
 5670TIP3    H238502   5.186   0.248   5.671 -0.0506  0.6181 -0.2214
 5671TIP3   OH238503   0.807   4.594  14.073  0.2022  0.8777  0.0347
 5671TIP3    H138504   0.902   4.594  14.060 -0.0626  0.1096 -2.2097
 5671TIP3    H238505   0.778   4.679  14.039  0.2582  1.8726  2.4001
 5672TIP3   OH238506   0.815   3.183  15.259  0.6317  0.1316  0.8516
 5672TIP3    H138507   0.804   3.239  15.336 -2.2783  0.4062  0.3011
 5672TIP3    H238508   0.726   3.162  15.232  1.6412 -2.3074 -0.7655
 5673TIP3   OH238509   0.299   1.772   0.492 -0.3656 -0.3901  0.2296
 5673TIP3    H138510   0.343   1.768   0.407  2.6447  0.6987  1.6437
 5673TIP3    H238511   0.357   1.724   0.551 -1.2745  0.7693  2.1025
 5674TIP3   OH238512   2.370   4.543  16.206 -0.3370  0.5708  0.4681
 5674TIP3    H138513   2.450   4.495  16.225 -0.7436 -0.3524 -0.0826
 5674TIP3    H238514   2.306   4.509  16.268 -0.8575 -0.2492 -0.4958
 5675TIP3   OH238515   3.771   2.220   1.014 -0.1202  0.5560 -0.1099
 5675TIP3    H138516   3.682   2.185   1.007  0.5566 -1.5584  1.3095
 5675TIP3    H238517   3.772   2.265   1.099 -0.2620  1.8750 -0.8017
 5676TIP3   OH238518   3.597   1.278   3.517  0.0989 -0.2319  0.1187
 5676TIP3    H138519   3.634   1.231   3.591 -2.2294 -0.0332  1.4762
 5676TIP3    H238520   3.507   1.298   3.544 -0.5806  0.4689 -2.4722
 5677TIP3   OH238521   1.625   1.518   6.471  0.2151  0.1402 -0.7030
 5677TIP3    H138522   1.701   1.560   6.512 -0.6379 -0.1692  1.2311
 5677TIP3    H238523   1.551   1.574   6.495 -0.3264 -0.1346 -1.7165
 5678TIP3   OH238524   4.629   1.916   3.021 -0.3871  0.4225 -0.7515
 5678TIP3    H138525   4.647   1.824   3.005  0.9913  0.4038  0.7942
 5678TIP3    H238526   4.533   1.923   3.019 -0.5532 -1.2959  0.5038
 5679TIP3   OH238527   6.525   3.044  15.710  0.6038  0.1078  0.5402
 5679TIP3    H138528   6.587   3.039  15.783 -0.8150 -0.7418  1.7272
 5679TIP3    H238529   6.563   3.109  15.651  1.7155  0.9498  2.1224
 5680TIP3   OH238530   1.399   6.167  12.999 -0.2003  0.3221  0.6436
 5680TIP3    H138531   1.490   6.151  12.976 -0.0814  0.1748  1.2105
 5680TIP3    H238532   1.399   6.177  13.094 -1.0047 -1.3168  0.8366
 5681TIP3   OH238533   4.541   4.820   1.596  0.3717 -0.2155  0.3451
 5681TIP3    H138534   4.493   4.818   1.679  2.9453  1.0730  1.9296
 5681TIP3    H238535   4.610   4.753   1.607 -0.3590 -1.3014 -1.4773
 5682TIP3   OH238536   5.918   6.153  15.887  0.5340 -0.1706 -0.4850
 5682TIP3    H138537   5.969   6.149  15.807  2.0097  1.8500  0.3117
 5682TIP3    H238538   5.976   6.194  15.951 -1.4401  0.4907  0.9453
 5683TIP3   OH238539   0.720   1.285  14.742 -0.2882 -0.3800 -0.0341
 5683TIP3    H138540   0.631   1.319  14.736 -0.4246 -0.7174  0.0135
 5683TIP3    H238541   0.709   1.190  14.736  0.1694 -0.3693 -1.1706
 5684TIP3   OH238542   5.959   2.654  15.031  0.1943  0.8221  0.5687
 5684TIP3    H138543   5.893   2.722  15.018 -0.3352  0.0629 -0.7884
 5684TIP3    H238544   6.036   2.702  15.061  0.2612  2.2304 -1.7197
 5685TIP3   OH238545   3.484   5.013   3.715  0.0225  0.4717 -0.3786
 5685TIP3    H138546   3.473   5.047   3.626 -0.3032  0.6375 -0.2728
 5685TIP3    H238547   3.530   4.930   3.703 -0.8869  0.0259 -0.7731
 5686TIP3   OH238548   0.963   4.730   4.463 -0.3396  0.4911 -0.3364
 5686TIP3    H138549   0.976   4.821   4.437 -1.2980  0.9006  0.5874
 5686TIP3    H238550   0.891   4.733   4.526  0.6513 -0.7104  0.8958
 5687TIP3   OH238551   4.042   0.239  14.362 -0.6065 -0.2655  0.0271
 5687TIP3    H138552   4.043   0.214  14.270 -0.4460 -1.0816  0.2435
 5687TIP3    H238553   3.952   0.226  14.390 -0.9991  1.4140 -0.3840
 5688TIP3   OH238554   1.419   6.320   5.835  0.3050 -0.0734  0.5629
 5688TIP3    H138555   1.375   6.291   5.915  0.9087  0.7769  1.2028
 5688TIP3    H238556   1.359   6.384   5.796  0.2414 -0.1150  0.5922
 5689TIP3   OH238557   1.217   6.804  15.963 -0.2237 -0.1955 -0.1306
 5689TIP3    H138558   1.276   6.800  15.888  1.3868  0.2671  1.0766
 5689TIP3    H238559   1.231   6.722  16.009  0.4643  0.4652  0.8691
 5690TIP3   OH238560   5.166   5.086  12.782 -0.2747  0.6087 -0.1016
 5690TIP3    H138561   5.160   5.152  12.713  0.5454  0.0721 -0.6997
 5690TIP3    H238562   5.082   5.040  12.779  0.6807 -1.0729 -2.4588
 5691TIP3   OH238563   2.321   1.364   2.628 -0.2576  0.1592  0.2560
 5691TIP3    H138564   2.235   1.342   2.592 -0.4228  0.1407  0.6582
 5691TIP3    H238565   2.306   1.369   2.723  0.4619 -1.1022  0.4390
 5692TIP3   OH238566   5.567   0.406  14.501 -0.0828  0.2903  0.0027
 5692TIP3    H138567   5.519   0.348  14.560 -1.5603  1.1668 -0.3200
 5692TIP3    H238568   5.514   0.486  14.497  0.6744  0.7385 -1.4641
 5693TIP3   OH238569   6.482   4.648   2.533  0.0439 -0.2302  0.1687
 5693TIP3    H138570   6.537   4.607   2.466  0.6269  2.1996 -0.8742
 5693TIP3    H238571   6.393   4.625   2.507  0.2862  0.3057 -1.2080
 5694TIP3   OH238572   0.938   0.648  12.632 -0.0501  0.4470  0.0328
 5694TIP3    H138573   1.022   0.626  12.673  0.0254 -1.1823 -0.9502
 5694TIP3    H238574   0.895   0.706  12.695  1.8634  1.4096  0.4920
 5695TIP3   OH238575   2.263   6.616  13.819 -0.0216 -0.1631  0.0525
 5695TIP3    H138576   2.236   6.661  13.898  1.1918  2.0100 -0.7279
 5695TIP3    H238577   2.181   6.589  13.777 -0.6529 -1.9014  2.3251
 5696TIP3   OH238578   1.337   1.119   2.506 -0.4158 -0.2427 -0.2197
 5696TIP3    H138579   1.278   1.106   2.581 -1.2939 -1.5933 -1.1123
 5696TIP3    H238580   1.422   1.140   2.545 -1.0559 -0.1565  1.1418
 5697TIP3   OH238581   0.197   4.018  13.415  0.2287  0.3466 -0.2083
 5697TIP3    H138582   0.292   4.022  13.423  0.2003 -0.4589  0.5947
 5697TIP3    H238583   0.164   4.078  13.482  0.1337 -1.1195  1.0841
 5698TIP3   OH238584   4.254   1.084  14.706  0.4312 -0.3731 -0.3207
 5698TIP3    H138585   4.245   1.113  14.615  2.3161 -0.3321 -0.5256
 5698TIP3    H238586   4.301   1.001  14.701 -1.4576 -1.5141  0.5035
 5699TIP3   OH238587   3.786   3.815   1.321  0.7141 -0.0631 -0.3790
 5699TIP3    H138588   3.755   3.731   1.286 -0.7288  0.1684  0.3165
 5699TIP3    H238589   3.873   3.796   1.357  0.1606 -1.3855  0.2804
 5700TIP3   OH238590   1.630   3.128  16.300 -0.2847  0.3521 -0.6000
 5700TIP3    H138591   1.561   3.068  16.273 -0.3100  0.4557 -0.7645
 5700TIP3    H238592   1.695   3.122  16.230 -0.9304  1.5819 -1.3058
 5701TIP3   OH238593   2.784   3.385  12.366 -0.4479 -0.3053 -0.5242
 5701TIP3    H138594   2.841   3.452  12.405 -0.2489  0.1717 -1.6252
 5701TIP3    H238595   2.843   3.312  12.346 -0.6623 -0.8238  0.6627
 5702TIP3   OH238596   5.563   1.303  10.887  0.5062  0.2183 -0.6043
 5702TIP3    H138597   5.561   1.392  10.923 -0.2665  0.5866 -1.5445
 5702TIP3    H238598   5.471   1.277  10.883  0.5364  0.3802 -2.7924
 5703TIP3   OH238599   0.204   5.051  10.514 -0.5109  0.2352 -0.2878
 5703TIP3    H138600   0.208   5.116  10.444 -1.8528  0.5254 -0.1076
 5703TIP3    H238601   0.185   4.968  10.470 -2.0178  0.5347 -0.2021
 5704TIP3   OH238602   4.560   2.427  16.502 -0.4019 -0.4829 -0.0034
 5704TIP3    H138603   4.559   2.331  16.506 -0.0763 -0.4121  1.7354
 5704TIP3    H238604   4.554   2.455  16.593  0.4474  1.1565 -0.4496
 5705TIP3   OH238605   2.592   3.122  14.253  0.0714  0.5685 -0.2239
 5705TIP3    H138606   2.534   3.049  14.235  0.9261 -0.2634  0.3119
 5705TIP3    H238607   2.643   3.133  14.173  0.5520 -0.0105 -0.0051
 5706TIP3   OH238608   0.260   6.785  12.710 -0.3398 -0.0542  0.5239
 5706TIP3    H138609   0.229   6.858  12.763  0.8554  1.6706 -1.1087
 5706TIP3    H238610   0.234   6.707  12.760 -2.6850  1.4243  1.7164
 5707TIP3   OH238611   1.510   4.509   5.021  0.0467  0.0915  0.1215
 5707TIP3    H138612   1.489   4.415   5.019  0.7977 -0.0781  0.1332
 5707TIP3    H238613   1.580   4.520   4.957  0.2580  0.5692  0.4253
 5708TIP3   OH238614   4.987   0.243   1.772  0.4212  0.2868 -0.2301
 5708TIP3    H138615   5.049   0.191   1.721 -1.1833 -0.5209 -1.4028
 5708TIP3    H238616   5.004   0.333   1.745 -0.6654 -0.1529 -2.5742
 5709TIP3   OH238617   1.197   5.216   1.565  0.5612 -0.2737 -0.5980
 5709TIP3    H138618   1.219   5.148   1.629 -2.8042 -0.9264 -0.0360
 5709TIP3    H238619   1.229   5.181   1.482 -0.5419 -2.2671 -0.2126
 5710TIP3   OH238620   3.862   2.501  11.121 -0.5095 -0.7312  0.4151
 5710TIP3    H138621   3.927   2.450  11.073  0.9792  0.8175  0.7505
 5710TIP3    H238622   3.855   2.583  11.072 -2.9309 -1.2349 -0.1594
 5711TIP3   OH238623   1.380   5.820   5.560  0.0487  0.6406  0.3186
 5711TIP3    H138624   1.406   5.840   5.470  0.8110  0.7418  0.5579
 5711TIP3    H238625   1.285   5.829   5.560 -0.2947 -2.2743 -1.2303
 5712TIP3   OH238626   1.091   2.583   0.510  0.6110  0.5165 -0.4257
 5712TIP3    H138627   1.103   2.652   0.445 -1.5061  2.1824  0.8860
 5712TIP3    H238628   1.030   2.522   0.468 -0.4398  1.3824 -0.1745
 5713TIP3   OH238629   2.697   3.268   3.795 -0.3437 -0.2875 -0.0042
 5713TIP3    H138630   2.742   3.310   3.867 -1.4801  0.2927  0.3841
 5713TIP3    H238631   2.631   3.331   3.767 -1.3162 -1.3519 -0.1645
 5714TIP3   OH238632   0.054   3.444  15.751  0.0515  0.1133 -1.0128
 5714TIP3    H138633   0.020   3.478  15.668 -1.2296  0.1418 -0.4904
 5714TIP3    H238634   0.051   3.349  15.741 -0.2631  0.1152 -0.9364
 5715TIP3   OH238635   0.223   0.007   2.805  0.5069 -0.2682 -0.0695
 5715TIP3    H138636   0.236   0.052   2.722  1.8202 -0.8099 -0.1655
 5715TIP3    H238637   0.226   0.077   2.871  0.1011  0.0802 -0.4176
 5716TIP3   OH238638   5.084   0.085  13.387 -0.1464  0.1175  0.2320
 5716TIP3    H138639   5.047   0.172  13.403 -1.1431 -0.2002 -0.2682
 5716TIP3    H238640   5.105   0.051  13.474 -0.0064  0.7575  0.4462
 5717TIP3   OH238641   1.343   3.198   0.751  0.2117 -0.8314 -0.0122
 5717TIP3    H138642   1.439   3.197   0.757  0.2473 -2.5549 -0.7606
 5717TIP3    H238643   1.314   3.125   0.806 -0.5417 -1.8572 -1.7196
 5718TIP3   OH238644   1.371   3.855  13.147  0.5551 -0.2919  0.0523
 5718TIP3    H138645   1.430   3.869  13.220 -1.0484  1.0734  1.1201
 5718TIP3    H238646   1.418   3.890  13.071  0.5845  2.0518  1.1084
 5719TIP3   OH238647   2.327   5.458  11.691 -0.4711 -0.2006 -0.4737
 5719TIP3    H138648   2.365   5.379  11.651  1.5132  1.0259 -1.0948
 5719TIP3    H238649   2.344   5.448  11.784  1.3041  0.2711 -0.7363
 5720TIP3   OH238650   6.212   3.124   5.201 -0.3045 -0.4693  0.2516
 5720TIP3    H138651   6.194   3.218   5.202 -0.1436 -0.4296 -0.3438
 5720TIP3    H238652   6.219   3.102   5.108  0.2593 -0.9588  0.4069
 5721TIP3   OH238653   1.511   3.471  12.795 -0.3097  0.4142  0.5845
 5721TIP3    H138654   1.602   3.445  12.786 -0.4460  0.3517 -0.6451
 5721TIP3    H238655   1.483   3.492  12.706 -1.8985 -0.8972  0.7639
 5722TIP3   OH238656   6.655   1.102  12.116 -0.3965 -0.3286  0.3474
 5722TIP3    H138657   6.576   1.057  12.086  0.2819 -1.9077  0.8394
 5722TIP3    H238658   6.630   1.143  12.199 -0.5745 -1.2108  0.7317
 5723TIP3   OH238659   3.465   1.523   4.916  0.3586  0.0202  0.2427
 5723TIP3    H138660   3.532   1.539   4.982  0.2988  2.1901 -0.1862
 5723TIP3    H238661   3.514   1.495   4.838  0.6070 -0.1374  0.4532
 5724TIP3   OH238662   4.407   5.435   0.073 -0.0905  0.1491 -0.5903
 5724TIP3    H138663   4.339   5.370   0.089 -0.2022  0.4353  0.1239
 5724TIP3    H238664   4.475   5.417   0.138 -1.2032  2.2210  1.2262
 5725TIP3   OH238665   4.347   1.128   1.521  0.0432  0.1660  0.0364
 5725TIP3    H138666   4.429   1.081   1.539  0.5787  0.9238 -0.3770
 5725TIP3    H238667   4.375   1.204   1.469 -0.8710  0.6726  0.2904
 5726TIP3   OH238668   1.070   3.272   0.287 -0.2702 -0.2170 -0.3070
 5726TIP3    H138669   1.062   3.242   0.196 -1.0418 -0.2161 -0.2481
 5726TIP3    H238670   1.023   3.206   0.338  0.8912 -0.6650  0.1861
 5727TIP3   OH238671   2.362   4.468  15.899 -0.1500 -0.0153  0.0400
 5727TIP3    H138672   2.337   4.482  15.990 -2.6772 -1.7232 -0.3331
 5727TIP3    H238673   2.295   4.512  15.848  1.3173  1.0443 -1.0303
 5728TIP3   OH238674   3.614   6.010  13.986  0.5373 -0.1034  0.5105
 5728TIP3    H138675   3.550   5.947  14.022 -0.0945  0.6827  0.7825
 5728TIP3    H238676   3.617   5.989  13.893 -0.4670  0.1418  0.4121
 5729TIP3   OH238677   3.989   0.145   0.650  0.4982  0.2275  0.2474
 5729TIP3    H138678   3.995   0.139   0.554  1.6343 -0.8606  0.3734
 5729TIP3    H238679   4.000   0.238   0.669  3.6566  0.0318 -0.4683
 5730TIP3   OH238680   3.231   5.326   6.253  0.0030  0.5119  0.4323
 5730TIP3    H138681   3.319   5.300   6.222 -0.2286 -0.4313  0.5448
 5730TIP3    H238682   3.224   5.286   6.340 -0.5097  0.6498  0.4521
 5731TIP3   OH238683   3.185   5.910  17.036 -0.2734 -0.4076  0.2604
 5731TIP3    H138684   3.124   5.982  17.052 -1.7783 -1.8558  1.2147
 5731TIP3    H238685   3.193   5.907  16.941  0.8361  1.8418  0.2616
 5732TIP3   OH238686   6.194   5.590  15.603 -0.1651  0.2198  0.1315
 5732TIP3    H138687   6.116   5.535  15.596 -0.0230  0.0144  0.1847
 5732TIP3    H238688   6.160   5.676  15.629 -0.5779  0.6340 -1.6897
 5733TIP3   OH238689   1.311   5.394  15.765  0.0840  0.3567 -0.0354
 5733TIP3    H138690   1.303   5.439  15.681  0.6812 -1.0676 -0.8577
 5733TIP3    H238691   1.234   5.338  15.770  0.5646 -0.3036 -0.0737
 5734TIP3   OH238692   0.696   0.272  14.488  0.2735  0.4830 -0.6124
 5734TIP3    H138693   0.771   0.245  14.541 -1.5480 -0.1378  1.7454
 5734TIP3    H238694   0.657   0.345  14.537 -0.7737  0.6703 -1.7012
 5735TIP3   OH238695   1.415   6.705   0.691  0.2178  0.1143 -0.2028
 5735TIP3    H138696   1.507   6.679   0.689  0.7904  2.0951 -0.9917
 5735TIP3    H238697   1.392   6.720   0.599 -0.9127 -0.4150 -0.0171
 5736TIP3   OH238698   6.670   2.837   0.545 -0.1759  0.5151 -0.4025
 5736TIP3    H138699   6.748   2.789   0.575 -0.9941 -0.5590  0.0432
 5736TIP3    H238700   6.632   2.873   0.625 -0.5517  0.4012 -0.5262
 5737TIP3   OH238701   2.644   4.196   3.906  0.0700  0.3620 -0.0287
 5737TIP3    H138702   2.735   4.172   3.888 -0.1343  0.2947 -1.0511
 5737TIP3    H238703   2.598   4.175   3.824 -0.8578  0.4179  0.4708
 5738TIP3   OH238704   6.736   5.526   5.482 -0.1429 -0.2408 -0.1503
 5738TIP3    H138705   6.810   5.468   5.500 -0.3367 -0.3648  0.2684
 5738TIP3    H238706   6.703   5.499   5.397  0.7854  0.3365 -0.7027
 5739TIP3   OH238707   3.417   4.069  16.482  0.2567 -0.5743  0.2980
 5739TIP3    H138708   3.424   3.985  16.528  0.9818  0.1733  1.5666
 5739TIP3    H238709   3.346   4.114  16.527  1.3343  0.3841  1.0669
 5740TIP3   OH238710   3.334   4.903   0.476  0.2036 -0.3684 -0.2528
 5740TIP3    H138711   3.429   4.904   0.471  0.3483 -0.0070  1.9838
 5740TIP3    H238712   3.315   4.913   0.570 -2.0524  2.8161 -0.9613
 5741TIP3   OH238713   1.516   0.974   5.934 -0.2979 -0.4035  0.2730
 5741TIP3    H138714   1.504   0.991   6.027  0.9486  0.0167  0.3653
 5741TIP3    H238715   1.494   0.881   5.924  0.1601 -0.6084  1.1011
 5742TIP3   OH238716   4.075   6.594  14.048 -0.2467 -0.2100  0.3508
 5742TIP3    H138717   4.046   6.677  14.010  0.1621  0.4651  1.4828
 5742TIP3    H238718   4.055   6.529  13.981 -0.1225  0.8653 -0.7537
 5743TIP3   OH238719   1.851   5.376   5.410  0.4694  0.6500 -0.2731
 5743TIP3    H138720   1.829   5.378   5.317  1.1870  1.6491 -0.4242
 5743TIP3    H238721   1.807   5.298   5.443  0.7920 -0.1125 -1.6030
 5744TIP3   OH238722   3.887   2.675   1.216  0.7957 -0.3078 -0.6064
 5744TIP3    H138723   3.824   2.746   1.227  0.5946 -0.6280  0.4011
 5744TIP3    H238724   3.972   2.714   1.236  1.1098  0.4522 -3.2231
 5745TIP3   OH238725   0.186   0.496  12.240 -0.0986  0.5167  0.0553
 5745TIP3    H138726   0.127   0.514  12.313  1.4662  1.5432  1.1241
 5745TIP3    H238727   0.199   0.581  12.198 -0.6995 -0.0082 -1.1882
 5746TIP3   OH238728   4.395   6.195  17.047 -0.1002 -0.2134  0.3659
 5746TIP3    H138729   4.403   6.199  16.952  1.8060  3.0808  0.5773
 5746TIP3    H238730   4.305   6.222  17.066 -0.9307 -2.3150 -0.5521
 5747TIP3   OH238731   4.420   5.032   2.764  0.0405 -0.3719  0.0898
 5747TIP3    H138732   4.362   5.009   2.837 -0.2384  0.0085 -0.0131
 5747TIP3    H238733   4.486   4.962   2.763 -0.8269 -1.2080 -0.2417
 5748TIP3   OH238734   0.510   5.608  13.772  0.1504  0.2494  0.4730
 5748TIP3    H138735   0.513   5.581  13.864 -1.9969  0.5053  0.6604
 5748TIP3    H238736   0.598   5.641  13.753  0.2045  1.6230  2.8924
 5749TIP3   OH238737   0.417   0.221  13.400  0.3239 -0.3479 -0.3448
 5749TIP3    H138738   0.435   0.303  13.447 -2.8597 -1.2189  2.5993
 5749TIP3    H238739   0.486   0.162  13.429  0.5695  0.2454  0.2946
 5750TIP3   OH238740   2.476   2.894  13.660 -0.3647  0.3107  0.2606
 5750TIP3    H138741   2.448   2.985  13.649  0.8226  1.0220  2.7429
 5750TIP3    H238742   2.571   2.897  13.647 -0.6565 -1.0449 -2.2583
 5751TIP3   OH238743   4.378   6.005  12.696 -0.4903 -0.7971 -0.0480
 5751TIP3    H138744   4.385   5.949  12.773 -3.0628  1.2537  1.8051
 5751TIP3    H238745   4.438   6.078  12.714  0.2188 -1.1919 -0.8096
 5752TIP3   OH238746   5.700   5.412   1.322 -0.2550 -0.0886  0.1219
 5752TIP3    H138747   5.712   5.430   1.416 -1.6643  1.9931 -0.0733
 5752TIP3    H238748   5.749   5.331   1.307  1.8190  0.7242  2.2071
 5753TIP3   OH238749   6.818   1.713  10.626  0.5132 -0.6993 -0.7676
 5753TIP3    H138750   6.794   1.741  10.714 -2.6052  1.5764 -2.2280
 5753TIP3    H238751   6.898   1.761  10.606  0.3418  0.0147  0.2441
 5754TIP3   OH238752   0.747   1.682  12.480  0.1965  0.2495  0.4783
 5754TIP3    H138753   0.670   1.720  12.439  0.8849  0.6316 -0.4618
 5754TIP3    H238754   0.722   1.591  12.496  0.4382 -0.3126 -2.1470
 5755TIP3   OH238755   4.633   4.985   5.194 -0.1281  0.3972 -0.0871
 5755TIP3    H138756   4.600   4.992   5.284  0.3579  0.4676  0.0844
 5755TIP3    H238757   4.724   5.012   5.200 -0.2968  1.1079 -0.7326
 5756TIP3   OH238758   5.097   3.568  16.481 -0.8202 -0.3674 -0.1689
 5756TIP3    H138759   5.051   3.629  16.539 -0.4693 -0.2797  0.0136
 5756TIP3    H238760   5.166   3.530  16.535 -1.2111 -1.1367 -0.2020
 5757TIP3   OH238761   2.284   1.122  16.560 -0.6256 -0.0670 -0.1975
 5757TIP3    H138762   2.325   1.204  16.588  1.7198 -0.7904 -1.4401
 5757TIP3    H238763   2.216   1.148  16.498 -0.5624  0.9876  0.1703
 5758TIP3   OH238764   3.088   3.877  13.316 -0.0520 -0.2000  0.4259
 5758TIP3    H138765   3.026   3.948  13.297  1.5980  1.1184 -0.1012
 5758TIP3    H238766   3.035   3.810  13.360 -2.0565  0.4898 -0.8608
 5759TIP3   OH238767   3.182   1.882  11.099 -0.1177 -0.3423  0.2548
 5759TIP3    H138768   3.186   1.803  11.045 -3.3101 -0.7135  0.4750
 5759TIP3    H238769   3.195   1.954  11.037  0.7142 -0.9477 -0.2781
 5760TIP3   OH238770   1.972   1.088   0.155 -0.1710  0.2467  0.1576
 5760TIP3    H138771   1.953   1.172   0.115  1.5197  0.7670  0.4270
 5760TIP3    H238772   1.905   1.029   0.119 -2.1927  1.9594  0.9788
 5761TIP3   OH238773   2.677   3.802   5.797 -0.2310  0.5068  0.7102
 5761TIP3    H138774   2.731   3.857   5.854  0.0732  1.8533 -0.8381
 5761TIP3    H238775   2.667   3.853   5.717 -0.6394 -1.3669 -0.4678
 5762TIP3   OH238776   1.942   6.575   1.309 -0.2036 -0.4337 -0.0080
 5762TIP3    H138777   1.900   6.508   1.256  0.5960 -1.0294  0.1155
 5762TIP3    H238778   2.026   6.538   1.334  0.3381  0.6937 -0.1072
 5763TIP3   OH238779   3.069   5.217   5.368 -0.9510  0.4521  0.1307
 5763TIP3    H138780   3.049   5.311   5.372  0.0788  0.7337 -1.1399
 5763TIP3    H238781   2.984   5.175   5.354 -1.6257  1.0694  2.2408
 5764TIP3   OH238782   1.557   4.667   0.749  0.2155  0.0793 -0.4271
 5764TIP3    H138783   1.501   4.594   0.775 -0.1996  0.5952  0.1483
 5764TIP3    H238784   1.508   4.712   0.681  0.8708 -0.6995 -1.4270
 5765TIP3   OH238785   5.382   3.648  14.835  0.0061 -0.0752 -0.2381
 5765TIP3    H138786   5.475   3.672  14.835 -0.2144  0.9238  2.0542
 5765TIP3    H238787   5.378   3.565  14.788  1.6725  1.2789 -2.8626
 5766TIP3   OH238788   4.465   2.994  16.205 -0.1957 -0.7215 -0.7178
 5766TIP3    H138789   4.423   3.066  16.159 -0.9438 -0.5575  0.2038
 5766TIP3    H238790   4.558   3.016  16.205 -0.2019 -0.6519 -1.9993
 5767TIP3   OH238791   2.808   6.275  13.876  0.9491  0.1951 -0.0594
 5767TIP3    H138792   2.903   6.278  13.871  0.9486 -0.1171 -0.2344
 5767TIP3    H238793   2.779   6.261  13.786  0.7912 -1.0754  0.1732
 5768TIP3   OH238794   4.483   4.037   4.214  0.4228 -0.1116 -0.7492
 5768TIP3    H138795   4.446   3.953   4.239  0.8329 -0.2545 -0.6195
 5768TIP3    H238796   4.521   4.072   4.295 -1.1980  0.9559 -0.4225
 5769TIP3   OH238797   0.746   6.628   1.297 -0.2291 -0.3136 -0.3622
 5769TIP3    H138798   0.693   6.550   1.311 -1.6750  0.6378 -0.4104
 5769TIP3    H238799   0.763   6.629   1.203 -0.6946 -0.2580 -0.4442
 5770TIP3   OH238800   6.005   3.244   6.516  0.4658 -0.0018  0.5167
 5770TIP3    H138801   6.046   3.158   6.530  1.0177  0.4537  1.7861
 5770TIP3    H238802   5.938   3.228   6.449  0.2216 -1.5251  1.0984
 5771TIP3   OH238803   2.829   1.200  11.771 -0.1771  0.0893 -0.2798
 5771TIP3    H138804   2.880   1.227  11.848 -2.7194  0.4369  1.3327
 5771TIP3    H238805   2.879   1.234  11.696  0.7191  2.5540  1.3706
 5772TIP3   OH238806   2.406   1.556  16.873  0.0254 -0.3258  0.3752
 5772TIP3    H138807   2.325   1.512  16.848 -1.0714  2.2670 -0.8705
 5772TIP3    H238808   2.389   1.589  16.961  0.1792 -0.8393  0.5967
 5773TIP3   OH238809   6.521   4.616   1.273 -0.2013  0.2426 -0.2072
 5773TIP3    H138810   6.504   4.628   1.366 -1.6010 -0.8335 -0.3178
 5773TIP3    H238811   6.501   4.702   1.234  0.0446  0.5906  0.4194
 5774TIP3   OH238812   4.244   2.146  12.198 -0.2310  0.4032 -0.2499
 5774TIP3    H138813   4.233   2.200  12.277  0.7316 -0.8527  0.7628
 5774TIP3    H238814   4.336   2.157  12.175 -0.0341 -0.7813 -0.0449
 5775TIP3   OH238815   0.851   4.065   1.779  0.1589  0.5363 -0.2681
 5775TIP3    H138816   0.884   4.086   1.866 -2.2925 -0.8642  1.0841
 5775TIP3    H238817   0.769   4.017   1.796  0.1964 -0.7296 -3.3175
 5776TIP3   OH238818   0.767   5.918   3.490 -0.0427  0.3460 -0.0903
 5776TIP3    H138819   0.683   5.917   3.444  0.2494 -0.4909 -0.6136
 5776TIP3    H238820   0.805   6.004   3.468 -1.6111  1.5531  1.7338
 5777TIP3   OH238821   2.718   2.624   5.782 -0.1105 -0.6965 -0.2026
 5777TIP3    H138822   2.790   2.687   5.787 -0.0756 -0.6954 -0.7047
 5777TIP3    H238823   2.641   2.679   5.767 -0.4806 -0.5442  2.0578
 5778TIP3   OH238824   3.469   3.559   2.941  0.5593 -0.2791 -0.3495
 5778TIP3    H138825   3.435   3.632   2.992  1.7076 -0.2920  0.4426
 5778TIP3    H238826   3.400   3.540   2.877 -1.5359 -1.1694  2.1083
 5779TIP3   OH238827   5.831   1.652  13.537 -0.1517  0.1803 -0.2524
 5779TIP3    H138828   5.778   1.634  13.615 -2.2544 -0.2354 -1.7294
 5779TIP3    H238829   5.818   1.746  13.521  0.3939  0.2953 -0.0245
 5780TIP3   OH238830   3.411   4.575  16.682 -0.0781 -0.0207 -0.1522
 5780TIP3    H138831   3.342   4.639  16.698  1.1076  1.1615  0.3962
 5780TIP3    H238832   3.469   4.583  16.758  1.2205 -0.2230 -1.0989
 5781TIP3   OH238833   4.779   1.005   0.449 -0.5550 -0.3768 -0.6396
 5781TIP3    H138834   4.684   1.004   0.456 -0.5335 -0.8353 -0.3959
 5781TIP3    H238835   4.809   1.024   0.538 -0.4606  1.7084 -1.0918
 5782TIP3   OH238836   2.016   6.355   5.361 -0.0765 -0.3319 -0.4666
 5782TIP3    H138837   1.959   6.307   5.301 -1.5565  0.4380  0.3178
 5782TIP3    H238838   2.058   6.286   5.413 -2.5335 -0.7992  0.9713
 5783TIP3   OH238839   6.403   2.127  14.737 -0.2877 -0.1042  0.4374
 5783TIP3    H138840   6.477   2.076  14.707 -0.4577  0.6159 -1.2364
 5783TIP3    H238841   6.437   2.216  14.745 -1.0202  0.2678 -0.5449
 5784TIP3   OH238842   3.894   2.431  11.924 -0.2553  0.2441  0.0633
 5784TIP3    H138843   3.989   2.444  11.927  0.0790 -1.9888 -0.0959
 5784TIP3    H238844   3.876   2.410  11.832 -0.5535 -1.6915  0.5443
 5785TIP3   OH238845   4.958   1.705  16.315 -0.2262 -0.4704  0.1748
 5785TIP3    H138846   5.019   1.632  16.325  1.0633  0.5601 -0.0591
 5785TIP3    H238847   5.007   1.771  16.266 -1.7414  0.1277 -0.5740
 5786TIP3   OH238848   1.947   3.805  14.991  0.3111 -0.1371 -0.4446
 5786TIP3    H138849   1.920   3.770  14.906 -1.1270 -0.0562 -0.0411
 5786TIP3    H238850   2.002   3.880  14.970  2.1440 -1.6831 -1.3080
 5787TIP3   OH238851   2.350   1.508  13.564 -0.2088 -0.0851  0.2103
 5787TIP3    H138852   2.319   1.482  13.477  0.4693  1.1445 -0.4152
 5787TIP3    H238853   2.381   1.426  13.603 -3.8840 -1.3124  0.7714
 5788TIP3   OH238854   0.698   4.580   5.120 -0.3042  0.5171 -0.5893
 5788TIP3    H138855   0.652   4.663   5.137 -0.4175  0.4480 -0.5625
 5788TIP3    H238856   0.689   4.531   5.201 -0.2408  0.4756 -0.6083
 5789TIP3   OH238857   0.326   1.268   2.607 -0.1626 -0.4103 -0.3540
 5789TIP3    H138858   0.314   1.359   2.580  2.1041 -0.1858 -0.7377
 5789TIP3    H238859   0.371   1.273   2.691  0.0222 -1.1735 -0.3960
 5790TIP3   OH238860   4.306   3.163  14.867 -0.2683  0.2015 -0.8405
 5790TIP3    H138861   4.311   3.129  14.778  0.5570 -0.2778 -0.6136
 5790TIP3    H238862   4.383   3.218  14.876 -0.9535  1.1659 -0.7967
 5791TIP3   OH238863   4.639   1.653   4.300 -0.5375 -0.5373  0.3690
 5791TIP3    H138864   4.550   1.617   4.299 -0.6361 -0.3142  0.8825
 5791TIP3    H238865   4.686   1.603   4.234 -1.3933  0.2493 -0.8493
 5792TIP3   OH238866   5.321   3.205  16.303 -0.0575 -0.3921 -0.3011
 5792TIP3    H138867   5.307   3.299  16.310  2.3521  0.1365 -1.9435
 5792TIP3    H238868   5.305   3.171  16.391 -0.8214  1.5526  0.3366
 5793TIP3   OH238869   6.270   2.200   5.171 -0.4624  0.9031  0.0433
 5793TIP3    H138870   6.344   2.216   5.230  1.4819 -0.5296 -1.9028
 5793TIP3    H238871   6.193   2.205   5.227  1.2307  0.7087  2.4818
 5794TIP3   OH238872   3.213   1.012   2.015 -0.4341 -0.0133 -0.2923
 5794TIP3    H138873   3.171   0.931   2.045  0.4466 -0.1576  0.5869
 5794TIP3    H238874   3.229   0.998   1.922  1.1706 -1.5134  0.1798
 5795TIP3   OH238875   0.244   3.118   2.689 -0.6998  0.3319  0.1437
 5795TIP3    H138876   0.242   3.178   2.763 -1.2717 -0.1572  0.5283
 5795TIP3    H238877   0.174   3.149   2.631 -0.2992  0.6713 -0.1681
 5796TIP3   OH238878   1.665   0.315   6.480 -0.6309 -0.4242 -0.1816
 5796TIP3    H138879   1.575   0.319   6.514  0.0043 -1.1523  1.6806
 5796TIP3    H238880   1.715   0.372   6.538  0.2041 -0.4653 -0.8593
 5797TIP3   OH238881   0.912   3.603   1.290  0.0927 -0.5099  0.6056
 5797TIP3    H138882   0.890   3.649   1.371  0.8457  0.2226  0.3942
 5797TIP3    H238883   1.007   3.613   1.281  0.2527 -1.9945  0.4872
 5798TIP3   OH238884   3.297   0.168  14.742  0.7518 -0.6404 -0.4328
 5798TIP3    H138885   3.279   0.253  14.782  2.2009 -0.8583  0.7072
 5798TIP3    H238886   3.211   0.125  14.739  0.0427  0.7606 -0.8200
 5799TIP3   OH238887   4.727   4.443  16.270 -0.0213  0.4974  0.3809
 5799TIP3    H138888   4.795   4.510  16.267 -1.5481  2.0228 -0.5384
 5799TIP3    H238889   4.714   4.418  16.178  1.4814 -2.0409  0.8202
 5800TIP3   OH238890   5.722   6.700  12.782 -0.6263  0.5294  0.2591
 5800TIP3    H138891   5.760   6.783  12.752  1.9439 -0.4902  0.5468
 5800TIP3    H238892   5.685   6.661  12.703  0.6830  0.6725 -0.4510
 5801TIP3   OH238893   4.680   5.383  12.182 -0.1603  0.3276 -0.3300
 5801TIP3    H138894   4.591   5.419  12.182 -0.5219 -0.5567 -1.5291
 5801TIP3    H238895   4.734   5.456  12.153 -0.9384 -0.1278 -3.0766
 5802TIP3   OH238896   1.701   4.130   5.383  0.0002 -0.3692  0.1329
 5802TIP3    H138897   1.678   4.223   5.387  2.9867  0.4150  0.2249
 5802TIP3    H238898   1.715   4.104   5.474  0.5884 -0.5260  0.0006
 5803TIP3   OH238899   3.302   5.394  14.703  0.4334 -0.1051 -0.0359
 5803TIP3    H138900   3.370   5.442  14.750 -0.0849  0.4334  0.1598
 5803TIP3    H238901   3.222   5.442  14.719  0.4374  0.8136 -2.4927
 5804TIP3   OH238902   5.268   5.955   0.565 -0.0265  0.8296  0.0205
 5804TIP3    H138903   5.314   5.962   0.481 -1.8103  2.8894 -0.8366
 5804TIP3    H238904   5.304   6.024   0.619  1.2463 -0.6113  1.0634
 5805TIP3   OH238905   5.088   0.405   0.117  0.2398 -0.2215  0.2777
 5805TIP3    H138906   5.078   0.367   0.204 -0.9963  0.3414  0.3844
 5805TIP3    H238907   5.105   0.330   0.060  1.3100 -0.5648  1.0389
 5806TIP3   OH238908   1.685   3.101  16.944 -0.6070  0.3723 -0.6658
 5806TIP3    H138909   1.691   3.170  17.010 -1.1343  1.4589 -1.7330
 5806TIP3    H238910   1.622   3.039  16.981 -1.0600  1.0710 -0.2267
 5807TIP3   OH238911   4.320   6.400   2.172 -0.1525  0.4753 -0.3222
 5807TIP3    H138912   4.287   6.482   2.209 -0.3279  0.5295 -0.6000
 5807TIP3    H238913   4.392   6.427   2.115 -1.2375  0.5949 -1.6747
 5808TIP3   OH238914   3.862   4.031  11.502  0.3638  0.2393  0.0025
 5808TIP3    H138915   3.958   4.030  11.497  0.3606 -4.0963 -1.6022
 5808TIP3    H238916   3.834   4.036  11.410 -0.8866 -0.6674  0.3240
 5809TIP3   OH238917   2.642   3.104  16.518 -0.3137  0.0764 -0.0970
 5809TIP3    H138918   2.585   3.179  16.501  2.0249  1.9708  0.0912
 5809TIP3    H238919   2.611   3.068  16.602 -1.5536  0.7304 -0.2678
 5810TIP3   OH238920   0.993   6.814   1.027  0.8997 -0.3285  0.0131
 5810TIP3    H138921   0.957   6.767   0.952 -1.4660 -1.3107  1.7025
 5810TIP3    H238922   1.005   6.904   0.996 -2.6043 -0.0899 -0.7636
 5811TIP3   OH238923   1.212   0.994   2.306  0.1191 -0.2531 -0.0942
 5811TIP3    H138924   1.255   1.063   2.357  0.6357 -0.7348  0.1370
 5811TIP3    H238925   1.156   0.949   2.368  0.6426 -0.7516  0.0298
 5812TIP3   OH238926   4.482   4.139   3.440  0.5570 -0.6115  0.0122
 5812TIP3    H138927   4.500   4.123   3.532 -1.5575 -1.0584  0.3550
 5812TIP3    H238928   4.569   4.152   3.401  1.4003  1.1854  2.3339
 5813TIP3   OH238929   0.783   5.629  14.327 -0.3276 -0.1015 -0.4576
 5813TIP3    H138930   0.869   5.622  14.370 -0.1450 -0.4176 -0.8679
 5813TIP3    H238931   0.720   5.603  14.394 -0.1737  0.9459  0.1151
 5814TIP3   OH238932   6.309   4.742   0.949  0.7999 -0.0986 -0.1407
 5814TIP3    H138933   6.371   4.798   0.997  0.3315  0.7063 -0.4605
 5814TIP3    H238934   6.236   4.730   1.010  1.2352 -0.9843  0.2073
 5815TIP3   OH238935   3.581   5.407  15.053 -0.0486 -0.1282  0.2326
 5815TIP3    H138936   3.594   5.352  14.976  2.4400 -1.2465  1.3814
 5815TIP3    H238937   3.490   5.393  15.079 -0.8320  0.0517 -2.3153
 5816TIP3   OH238938   6.704   3.532   0.223 -0.1864  0.7790  0.5133
 5816TIP3    H138939   6.773   3.477   0.259  0.0895 -0.0528 -1.2287
 5816TIP3    H238940   6.735   3.557   0.136 -2.6221 -0.7452 -0.8766
 5817TIP3   OH238941   5.503   4.957   2.826 -0.1442  0.0731  0.5388
 5817TIP3    H138942   5.589   4.988   2.799 -0.0214  0.0172  0.8647
 5817TIP3    H238943   5.465   4.920   2.746  0.5422 -0.8326  0.6226
 5818TIP3   OH238944   6.238   0.029  16.760 -0.3580 -0.4828 -0.3742
 5818TIP3    H138945   6.282  -0.054  16.746 -0.9502 -1.3515  2.5830
 5818TIP3    H238946   6.282   0.068  16.836 -2.9352 -0.2070  1.0594
 5819TIP3   OH238947   0.777   2.775  12.733  0.3597 -0.4141  0.3418
 5819TIP3    H138948   0.789   2.859  12.777 -1.4973 -0.3920  0.8613
 5819TIP3    H238949   0.843   2.718  12.772  2.5974  1.1669 -1.0534
 5820TIP3   OH238950   1.627   3.970   1.313 -0.4070 -0.1969 -0.1014
 5820TIP3    H138951   1.563   3.920   1.363 -1.4894  0.0048 -1.2431
 5820TIP3    H238952   1.704   3.914   1.310 -0.4341 -0.3468  1.4919
 5821TIP3   OH238953   5.622   2.993   5.932  0.0660  0.2509  0.4620
 5821TIP3    H138954   5.680   3.042   5.990 -0.5653  1.1900  0.3049
 5821TIP3    H238955   5.625   3.039   5.849  2.1909 -2.0039 -0.7679
 5822TIP3   OH238956   1.148   5.011   2.280  0.4430  0.1150  0.4941
 5822TIP3    H138957   1.153   5.072   2.206 -2.1938  0.1593  0.3087
 5822TIP3    H238958   1.143   4.925   2.239 -0.2688  0.0911  0.6251
 5823TIP3   OH238959   0.558   0.664   1.962 -0.5662  0.1380 -0.0570
 5823TIP3    H138960   0.475   0.709   1.977 -1.3652 -0.2358 -3.0143
 5823TIP3    H238961   0.606   0.721   1.902  0.6875 -0.3654  0.4463
 5824TIP3   OH238962   1.555   0.919  13.004  0.1502 -0.0928 -0.3100
 5824TIP3    H138963   1.649   0.934  12.992  0.2783 -1.1114 -0.6315
 5824TIP3    H238964   1.518   0.926  12.916  0.6749 -4.7232 -1.0144
 5825TIP3   OH238965   4.205   4.853   3.813 -0.2931  0.1844  0.2747
 5825TIP3    H138966   4.131   4.801   3.845 -1.2080  1.2644 -0.0472
 5825TIP3    H238967   4.282   4.815   3.856 -0.7626 -2.2923 -0.9656
 5826TIP3   OH238968   0.351   0.456  11.557 -0.0785  0.2958 -0.0019
 5826TIP3    H138969   0.264   0.496  11.559 -0.0100  0.4281  0.2999
 5826TIP3    H238970   0.355   0.414  11.471 -1.5479 -2.1903  1.0944
 5827TIP3   OH238971   3.424   4.632   5.123 -0.4113 -0.1461  0.2244
 5827TIP3    H138972   3.511   4.645   5.159  0.0541  0.5889 -1.1149
 5827TIP3    H238973   3.368   4.615   5.199  0.4085  1.9387  1.3247
 5828TIP3   OH238974   1.052   3.696  12.331  1.3705 -0.4271  0.7899
 5828TIP3    H138975   0.986   3.627  12.324  1.0546 -0.0674  0.2219
 5828TIP3    H238976   1.060   3.731  12.242 -2.5353  4.0402  1.9917
 5829TIP3   OH238977   1.834   6.721   1.549  0.0164  0.1097  0.5396
 5829TIP3    H138978   1.811   6.628   1.555 -0.9116  0.3623  0.9658
 5829TIP3    H238979   1.889   6.727   1.470 -1.6123 -0.4717 -0.6579
 5830TIP3   OH238980   2.964   1.453   2.196 -0.3851 -0.1372 -0.0594
 5830TIP3    H138981   2.985   1.492   2.112  0.0274 -0.9371 -0.3357
 5830TIP3    H238982   3.005   1.366   2.193  0.3003  0.1233  1.2631
 5831TIP3   OH238983   4.358   3.762   2.622  0.1657  0.3926 -0.0752
 5831TIP3    H138984   4.330   3.847   2.656  0.9398 -0.1455  1.9466
 5831TIP3    H238985   4.452   3.758   2.639  0.3910 -0.2960 -1.4075
 5832TIP3   OH238986   5.802   4.614  13.051 -0.1487 -0.0088 -0.4205
 5832TIP3    H138987   5.757   4.687  13.094  0.3558  0.8571 -1.3744
 5832TIP3    H238988   5.836   4.650  12.969 -1.5682 -1.7899 -1.8347
 5833TIP3   OH238989   4.917   4.103   2.960  1.1224  0.7687 -0.0257
 5833TIP3    H138990   4.880   4.024   2.920  0.4419  0.8690  0.4005
 5833TIP3    H238991   4.980   4.070   3.024  1.2083  0.5857 -0.2008
 5834TIP3   OH238992   5.278   2.868   4.939  0.3554  0.0928  0.1591
 5834TIP3    H138993   5.293   2.861   5.033 -0.0250 -1.3653  0.1162
 5834TIP3    H238994   5.345   2.929   4.909  0.4298  0.6387  1.3824
 5835TIP3   OH238995   0.540   5.081   4.519  0.0024  0.8984 -0.9505
 5835TIP3    H138996   0.467   5.023   4.539  0.2210  0.0985 -2.3850
 5835TIP3    H238997   0.603   5.025   4.473  1.8904  1.3743  0.9822
 5836TIP3   OH238998   2.580   4.286   4.538  0.0628 -0.5242 -0.0963
 5836TIP3    H138999   2.548   4.240   4.616  1.0549 -0.5001  0.3335
 5836TIP3    H239000   2.525   4.364   4.532  1.9600  1.0916  2.3698
 5837TIP3   OH239001   3.578   0.951  14.152  0.1716 -0.2031 -0.3680
 5837TIP3    H139002   3.616   1.009  14.217 -0.0150  0.9653 -1.2944
 5837TIP3    H239003   3.492   0.927  14.187 -0.1240  0.8000 -0.4130
 5838TIP3   OH239004   5.307   5.841  11.843  0.3381  0.0549 -0.3772
 5838TIP3    H139005   5.386   5.793  11.867  1.9997  3.1561  0.6447
 5838TIP3    H239006   5.326   5.932  11.865 -2.4129  1.3512 -2.8983
 5839TIP3   OH239007   6.516   5.688  11.587  0.5522 -0.1663 -0.6977
 5839TIP3    H139008   6.485   5.604  11.554  0.9244 -0.6726  0.2240
 5839TIP3    H239009   6.531   5.673  11.681  1.6777  0.6191 -0.7448
 5840TIP3   OH239010   1.217   3.064   1.795 -0.0918 -0.3114  0.3406
 5840TIP3    H139011   1.284   3.111   1.747  1.3789 -0.3932  2.2411
 5840TIP3    H239012   1.207   2.981   1.749  0.6720 -0.0488 -0.2981
 5841TIP3   OH239013   1.224   6.081   5.297  0.3302 -0.1685 -0.0687
 5841TIP3    H139014   1.180   6.082   5.213 -2.0706  0.2341  1.1526
 5841TIP3    H239015   1.184   6.009   5.345  1.2040  0.0234  0.9675
 5842TIP3   OH239016   5.984   6.313  17.210 -0.2132  0.2783 -0.0438
 5842TIP3    H139017   6.008   6.377  17.276  1.2149 -0.4053  0.1185
 5842TIP3    H239018   6.029   6.233  17.236 -2.1999 -0.8862 -0.0933
 5843TIP3   OH239019   1.560   4.324   1.993 -0.4740  0.1057  0.5534
 5843TIP3    H139020   1.613   4.370   2.058 -1.3436 -0.5801  1.7701
 5843TIP3    H239021   1.623   4.277   1.940  0.2228  0.3459  1.1597
 5844TIP3   OH239022   4.039   0.399   3.783 -0.4235 -0.1772  0.3750
 5844TIP3    H139023   4.005   0.481   3.746  0.2196 -0.4598 -0.8771
 5844TIP3    H239024   4.130   0.396   3.752 -0.3205 -1.1585  0.7808
 5845TIP3   OH239025   5.667   3.084   3.822 -0.5116  0.2299  0.6696
 5845TIP3    H139026   5.650   3.040   3.905 -0.0367 -0.5359  0.3606
 5845TIP3    H239027   5.610   3.161   3.824 -0.8414 -0.0312  1.5023
 5846TIP3   OH239028   3.936   2.548  16.181  0.0565  0.3264  0.4566
 5846TIP3    H139029   3.946   2.595  16.098 -0.1630  0.5602  0.5635
 5846TIP3    H239030   4.007   2.582  16.236 -1.0095  1.6237  1.0487
 5847TIP3   OH239031   2.856   6.052  12.116  0.7715 -0.7658  0.0767
 5847TIP3    H139032   2.883   6.137  12.150 -0.6774 -0.3534  0.2231
 5847TIP3    H239033   2.828   6.003  12.193  0.5962 -1.0005 -0.1353
 5848TIP3   OH239034   2.168   4.883   0.937 -0.3149 -1.0542  0.7893
 5848TIP3    H139035   2.180   4.806   0.993  0.4726 -0.7712  1.0139
 5848TIP3    H239036   2.142   4.847   0.852  2.6729 -1.7303  0.1347
 5849TIP3   OH239037   3.142   2.756  13.857  0.0069  0.6675 -0.1408
 5849TIP3    H139038   3.085   2.734  13.784 -1.5676  1.3630  0.8395
 5849TIP3    H239039   3.206   2.686  13.860 -0.9044 -0.2274 -1.1681
 5850TIP3   OH239040   4.654   5.439  11.555  0.1481  0.0909 -0.5690
 5850TIP3    H139041   4.686   5.361  11.510  0.1792  0.3178 -0.9369
 5850TIP3    H239042   4.732   5.493  11.569  0.2768 -0.3434  0.4897
 5851TIP3   OH239043   5.337   2.288   2.368  0.7496  0.7109 -0.0644
 5851TIP3    H139044   5.322   2.236   2.290  0.2738  1.5581 -0.5476
 5851TIP3    H239045   5.363   2.374   2.335  3.1221  0.3208  0.7391
 5852TIP3   OH239046   4.438   0.536   1.956  0.2837 -0.3321 -0.7296
 5852TIP3    H139047   4.433   0.512   2.048  1.8615 -3.1383 -1.3299
 5852TIP3    H239048   4.394   0.621   1.951 -0.6218 -0.5620  2.4318
 5853TIP3   OH239049   1.046   2.072  13.585 -0.6883  0.4672 -0.3305
 5853TIP3    H139050   1.012   2.151  13.543  0.5521  0.2307 -1.8000
 5853TIP3    H239051   1.050   2.006  13.515  1.1587 -0.0060  0.1844
 5854TIP3   OH239052   3.519   0.120   3.794 -0.2580 -0.1135 -0.0537
 5854TIP3    H139053   3.580   0.146   3.725 -0.4557  1.7651  0.4562
 5854TIP3    H239054   3.531   0.025   3.802  0.6277 -0.1697 -1.8266
 5855TIP3   OH239055   1.024   2.050   5.760 -0.3370 -0.2581  0.5922
 5855TIP3    H139056   1.118   2.069   5.750 -0.5105  0.3798  0.1397
 5855TIP3    H239057   1.021   1.956   5.776  0.3916 -0.2718  0.7008
 5856TIP3   OH239058   0.397   2.378  11.457  0.0755 -0.3450 -0.0167
 5856TIP3    H139059   0.428   2.422  11.536  0.1217 -0.6686  0.1459
 5856TIP3    H239060   0.364   2.294  11.488  3.0440 -1.8558 -0.7091
 5857TIP3   OH239061   0.863   0.426  15.444  0.2776  0.1762 -0.5617
 5857TIP3    H139062   0.883   0.375  15.366  0.6460 -1.1480  0.3796
 5857TIP3    H239063   0.933   0.490  15.450  0.5669 -0.0988 -1.0018
 5858TIP3   OH239064   0.804   1.637  16.503  0.4824 -0.8037  1.1473
 5858TIP3    H139065   0.733   1.656  16.441 -0.0952 -0.8603  1.7800
 5858TIP3    H239066   0.762   1.584  16.571  1.2480 -1.2371  1.2794
 5859TIP3   OH239067   6.168   3.048  12.786 -0.4898 -0.1903  0.1496
 5859TIP3    H139068   6.254   3.038  12.828 -0.5749 -1.4959  0.0251
 5859TIP3    H239069   6.152   2.964  12.743 -1.8207  0.0555  0.1351
 5860TIP3   OH239070   6.803   4.801   1.317 -0.2724 -0.7306  0.6936
 5860TIP3    H139071   6.811   4.868   1.249  1.5050 -0.2368  1.3647
 5860TIP3    H239072   6.719   4.758   1.298 -0.0925 -0.2142 -1.4495
 5861TIP3   OH239073   4.690   4.798   0.036  0.4688 -0.5336  0.4403
 5861TIP3    H139074   4.625   4.838   0.093 -0.2817 -0.2111 -0.6246
 5861TIP3    H239075   4.639   4.744  -0.025  1.2466 -0.7638 -0.0185
 5862TIP3   OH239076   6.209   4.042   6.498 -0.0112 -0.0905  0.2361
 5862TIP3    H139077   6.168   4.066   6.415  1.0211  0.1917 -0.1890
 5862TIP3    H239078   6.270   3.971   6.475 -2.6423 -2.8606  1.3753
 5863TIP3   OH239079   4.937   4.541   4.274  0.2634  0.0697 -0.3696
 5863TIP3    H139080   4.855   4.517   4.316  0.9565  0.9423  1.4914
 5863TIP3    H239081   5.002   4.538   4.344  1.5730  0.7659 -1.5379
 5864TIP3   OH239082   0.393   1.079  12.441 -0.3805  0.1045  0.8653
 5864TIP3    H139083   0.347   1.162  12.431 -0.9843 -0.2497  0.7013
 5864TIP3    H239084   0.462   1.097  12.505 -0.5062  0.7281  0.8271
 5865TIP3   OH239085   5.881   5.569   6.488  0.1743  0.0549 -0.0724
 5865TIP3    H139086   5.877   5.664   6.479 -0.9767 -0.0233 -0.4598
 5865TIP3    H239087   5.893   5.555   6.582 -1.2680  0.5564  0.2007
 5866TIP3   OH239088   3.725   3.568   1.924  0.5979  0.0807  0.3787
 5866TIP3    H139089   3.769   3.493   1.886  0.5710  0.4218 -0.3403
 5866TIP3    H239090   3.632   3.545   1.921  0.5426  0.3816 -0.3916
 5867TIP3   OH239091   3.273   0.982  15.136  0.3326  0.5781  0.0523
 5867TIP3    H139092   3.266   1.063  15.186  3.9014 -0.5824  2.6629
 5867TIP3    H239093   3.346   0.997  15.076  0.4307 -0.3888 -0.0787
 5868TIP3   OH239094   6.460   1.608  14.190 -0.5528 -0.3859  0.4025
 5868TIP3    H139095   6.494   1.647  14.270 -0.0302 -0.2821  0.1334
 5868TIP3    H239096   6.366   1.601  14.205 -0.2137 -2.2755  1.8274
 5869TIP3   OH239097   4.536   2.989  17.145 -0.0416 -0.1546 -0.2408
 5869TIP3    H139098   4.571   2.901  17.130 -1.2250 -0.5659 -0.6873
 5869TIP3    H239099   4.587   3.045  17.087  0.7895 -0.5216  0.1217
 5870TIP3   OH239100   2.779   6.464   4.112 -0.4553  0.4020  0.0170
 5870TIP3    H139101   2.802   6.537   4.169 -0.6725 -0.3397  1.0702
 5870TIP3    H239102   2.717   6.412   4.163  0.5663 -1.1355 -0.2684
 5871TIP3   OH239103   3.075   3.008  16.912  0.3433  0.7242 -0.0082
 5871TIP3    H139104   3.060   2.937  16.975 -1.5149  1.4827  0.4392
 5871TIP3    H239105   3.024   3.081  16.946 -0.0894  1.3861 -2.0204
 5872TIP3   OH239106   5.532   3.609  16.152 -0.0733 -0.3370  0.1840
 5872TIP3    H139107   5.476   3.565  16.088  0.0827 -0.3041  0.0247
 5872TIP3    H239108   5.594   3.659  16.099  1.1962 -1.7115  0.3394
 5873TIP3   OH239109   2.256   5.701  11.588 -0.0526  0.3274 -0.1030
 5873TIP3    H139110   2.287   5.616  11.620  0.3119  0.6030  0.2739
 5873TIP3    H239111   2.205   5.680  11.510  0.7729 -0.1636 -0.5164
 5874TIP3   OH239112   1.813   4.601  14.224 -0.1822 -0.2868 -0.1045
 5874TIP3    H139113   1.855   4.663  14.164 -0.2074 -0.9406 -0.8022
 5874TIP3    H239114   1.884   4.569  14.280 -0.2567  0.7438  0.5957
 5875TIP3   OH239115   5.222   1.290  11.293 -0.3596  0.8798 -0.1244
 5875TIP3    H139116   5.308   1.252  11.310 -0.6619  0.2049 -0.0921
 5875TIP3    H239117   5.197   1.330  11.377  0.1881  1.6293 -0.3067
 5876TIP3   OH239118   0.752   2.292   0.403 -0.4098  0.1357  0.5599
 5876TIP3    H139119   0.782   2.312   0.314  2.1756 -1.5312  1.0055
 5876TIP3    H239120   0.680   2.230   0.390  0.1650 -0.3632 -0.3898
 5877TIP3   OH239121   2.900   2.427  11.864  0.1153 -0.1374 -0.1680
 5877TIP3    H139122   2.813   2.386  11.860  0.8945 -2.0029  1.1094
 5877TIP3    H239123   2.884   2.510  11.909 -1.2272  0.1891 -1.2043
 5878TIP3   OH239124   5.104   3.319  16.719  0.0443 -0.2784  0.9111
 5878TIP3    H139125   5.191   3.358  16.711  0.5412 -1.1961  1.6530
 5878TIP3    H239126   5.120   3.233  16.760 -1.1197 -0.8046  0.2949
 5879TIP3   OH239127   1.617   2.774  12.800 -0.1453 -0.1530  0.1461
 5879TIP3    H139128   1.548   2.752  12.737  0.9342  0.2849 -1.2080
 5879TIP3    H239129   1.689   2.808  12.746  0.2599  1.5837  1.7332
 5880TIP3   OH239130   1.592   5.282   3.798 -0.3448 -0.3345 -0.1068
 5880TIP3    H139131   1.575   5.224   3.873  2.6257  1.2493  1.9000
 5880TIP3    H239132   1.556   5.367   3.825  0.5846  0.1985 -0.5246
 5881TIP3   OH239133   3.134   3.338  15.710  0.5593 -0.3221 -0.4113
 5881TIP3    H139134   3.114   3.275  15.641 -0.6300  0.1963 -0.5549
 5881TIP3    H239135   3.099   3.298  15.790 -0.0903  0.0955 -0.4835
 5882TIP3   OH239136   3.638   0.835  17.150 -0.2066  0.0817  0.1093
 5882TIP3    H139137   3.567   0.879  17.197 -0.6884 -1.1650  0.5574
 5882TIP3    H239138   3.595   0.798  17.072 -0.0661 -0.7784  0.4445
 5883TIP3   OH239139   4.850   1.123  12.166  0.1887 -0.1741 -0.3819
 5883TIP3    H139140   4.822   1.034  12.189 -0.6661  0.6199  1.7439
 5883TIP3    H239141   4.934   1.133  12.210 -0.7873  0.8442  1.3262
 5884TIP3   OH239142   0.410   3.406   3.842 -0.0375 -0.8374 -0.1829
 5884TIP3    H139143   0.449   3.449   3.919 -0.5174 -1.1581  0.2442
 5884TIP3    H239144   0.344   3.347   3.879 -1.0221 -0.2112 -0.8861
 5885TIP3   OH239145   4.739   4.469   4.460 -0.1215 -0.1694  0.7888
 5885TIP3    H139146   4.717   4.524   4.535 -0.1344  0.9260 -0.0139
 5885TIP3    H239147   4.671   4.488   4.396  0.3016 -0.5738  0.2176
 5886TIP3   OH239148   1.675   1.642   6.814 -0.2195  0.0820 -0.0238
 5886TIP3    H139149   1.593   1.628   6.766 -0.6701  3.8546 -0.4459
 5886TIP3    H239150   1.647   1.664   6.903  0.3886 -0.0032  0.1863
 5887TIP3   OH239151   6.804   1.640   2.365  0.0192  0.1516  0.2304
 5887TIP3    H139152   6.732   1.674   2.419  0.7860  0.3141  1.1639
 5887TIP3    H239153   6.761   1.581   2.303 -0.8335 -0.3650  1.2791
 5888TIP3   OH239154   2.602   5.673  15.398 -0.1101 -0.0250 -0.8424
 5888TIP3    H139155   2.562   5.589  15.373  0.4448 -0.3382 -0.6832
 5888TIP3    H239156   2.544   5.739  15.361  0.4565 -0.4782 -2.5806
 5889TIP3   OH239157   5.866   6.646  11.241  0.1521  0.2956  0.2057
 5889TIP3    H139158   5.917   6.578  11.196  0.0894 -0.5426  1.4010
 5889TIP3    H239159   5.932   6.701  11.283  0.1239 -0.1911  0.8957
 5890TIP3   OH239160   5.451   6.630   5.141 -0.7906  0.5598 -0.1142
 5890TIP3    H139161   5.444   6.537   5.119  0.9392  0.8175 -1.8836
 5890TIP3    H239162   5.395   6.674   5.077  0.0282  0.9048 -0.5898
 5891TIP3   OH239163   4.873   1.790  11.964 -0.8501 -0.2722 -0.1978
 5891TIP3    H139164   4.949   1.762  11.913 -1.2220  0.2947 -1.0735
 5891TIP3    H239165   4.798   1.753  11.918 -1.0379 -1.8812  1.3729
 5892TIP3   OH239166   5.264   3.997   3.087 -0.1809  0.0829  0.5243
 5892TIP3    H139167   5.270   4.073   3.028  3.0933 -1.0926 -0.7885
 5892TIP3    H239168   5.236   3.925   3.031  1.6512 -0.7513  0.6526
 5893TIP3   OH239169   6.355   4.311  17.059  0.0379 -0.1343  0.1154
 5893TIP3    H139170   6.305   4.248  17.006  0.6979 -1.4848  1.0513
 5893TIP3    H239171   6.373   4.264  17.140 -1.3953  2.0981  1.7507
 5894TIP3   OH239172   5.493   4.700   3.597 -0.3281 -0.3516 -0.0391
 5894TIP3    H139173   5.550   4.624   3.604 -1.9285 -1.4318  1.7873
 5894TIP3    H239174   5.532   4.765   3.656  0.8100  0.1384 -1.2923
 5895TIP3   OH239175   3.489   5.567  14.815  0.1293 -0.2089  0.5778
 5895TIP3    H139176   3.538   5.642  14.781  1.0092 -0.6396  0.8782
 5895TIP3    H239177   3.553   5.518  14.867 -0.1770 -1.7050 -0.4305
 5896TIP3   OH239178   6.658   2.621  15.125 -0.0111 -0.3628  0.0174
 5896TIP3    H139179   6.678   2.706  15.085  1.0215 -1.5179 -2.0262
 5896TIP3    H239180   6.738   2.570  15.111 -0.7530 -1.7735  0.9194
 5897TIP3   OH239181   5.830   5.850  11.597 -0.4086  0.0114  0.6691
 5897TIP3    H139182   5.805   5.771  11.550  0.5207  0.7391 -1.0705
 5897TIP3    H239183   5.925   5.858  11.582 -0.3247  0.9451  1.6108
 5898TIP3   OH239184   1.359   2.016   2.085  0.1227  0.1573 -0.3543
 5898TIP3    H139185   1.392   2.070   2.013  0.1872 -0.2247 -0.6147
 5898TIP3    H239186   1.298   2.073   2.132  1.1297  0.8563  0.1125
 5899TIP3   OH239187   2.469   2.101  11.355 -0.2541 -0.5384 -0.1405
 5899TIP3    H139188   2.456   2.196  11.349  0.7139 -0.4517 -0.9740
 5899TIP3    H239189   2.382   2.066  11.376 -0.9572  0.3847 -1.4897
 5900TIP3   OH239190   2.321   6.052   0.635  0.1968  0.2655 -0.0638
 5900TIP3    H139191   2.244   6.052   0.579  0.1284 -0.1557  0.0314
 5900TIP3    H239192   2.377   5.982   0.599  0.7014  0.8145 -0.3659
 5901TIP3   OH239193   5.923   2.499  15.313  0.1456  0.0620  0.6215
 5901TIP3    H139194   5.976   2.545  15.379  0.6438 -0.8295  0.8557
 5901TIP3    H239195   5.862   2.566  15.280  0.1529  0.6156  1.7042
 5902TIP3   OH239196   5.349   0.900  14.121 -0.5078 -0.2378  0.2432
 5902TIP3    H139197   5.305   0.827  14.077 -1.2709 -1.1084  2.3928
 5902TIP3    H239198   5.402   0.858  14.189  0.3832  1.1134  0.4051
 5903TIP3   OH239199   3.499   4.157  10.892  0.4134  0.3692  0.3503
 5903TIP3    H139200   3.492   4.248  10.862  0.7491  0.1528 -0.3937
 5903TIP3    H239201   3.573   4.121  10.842  1.7103  0.3224  2.2413
 5904TIP3   OH239202   2.342   5.414  13.969  0.1253  0.4449 -0.0425
 5904TIP3    H139203   2.287   5.462  13.907  1.9436  0.0411 -2.0304
 5904TIP3    H239204   2.348   5.471  14.046 -2.9182  0.5515  0.1620
 5905TIP3   OH239205   4.720   3.759   0.469  0.1870  0.2992 -0.1239
 5905TIP3    H139206   4.773   3.747   0.548 -1.9701 -1.0050  1.1873
 5905TIP3    H239207   4.784   3.762   0.397  2.1106  0.2651  1.5360
 5906TIP3   OH239208   0.749   4.436   0.957 -0.2855  0.3997 -0.7178
 5906TIP3    H139209   0.837   4.433   0.918 -0.3001 -1.0160 -0.6439
 5906TIP3    H239210   0.764   4.423   1.050 -0.4694  1.5199 -0.5153
 5907TIP3   OH239211   2.098   6.764  15.500  0.0498 -0.1638 -0.2579
 5907TIP3    H139212   2.057   6.825  15.439 -0.9505  2.5391  2.9586
 5907TIP3    H239213   2.192   6.786  15.495 -0.3339  1.8966  1.0913
 5908TIP3   OH239214   3.299   0.973   4.051  0.4028 -0.0206 -0.4941
 5908TIP3    H139215   3.256   1.034   3.990 -0.6235 -0.2740 -0.0218
 5908TIP3    H239216   3.307   0.892   4.002  0.7510  0.1580 -0.7358
 5909TIP3   OH239217   6.254   1.705  11.285  0.7429 -0.2542 -0.0266
 5909TIP3    H139218   6.348   1.720  11.291  0.8748  0.6117 -3.2603
 5909TIP3    H239219   6.217   1.793  11.275 -0.2881 -0.6910 -0.1036
 5910TIP3   OH239220   2.634   1.351  16.200 -0.1931  0.0177  0.2772
 5910TIP3    H139221   2.606   1.440  16.180 -2.1634 -0.3105  1.4236
 5910TIP3    H239222   2.611   1.300  16.121 -1.6029  0.0272  0.6587
 5911TIP3   OH239223   5.828   0.076   4.816 -0.2788  0.0270 -0.2034
 5911TIP3    H139224   5.813  -0.018   4.817 -0.0022 -0.0216 -0.5077
 5911TIP3    H239225   5.759   0.112   4.872 -0.1940 -0.3820  0.1725
 5912TIP3   OH239226   0.875   1.152  13.383 -0.5007  0.3839 -0.0977
 5912TIP3    H139227   0.918   1.090  13.323 -0.9930 -0.3078  0.2553
 5912TIP3    H239228   0.840   1.220  13.325  0.7307  0.7624 -0.4243
 5913TIP3   OH239229   1.285   5.866   4.362 -0.4056 -0.0098 -0.4765
 5913TIP3    H139230   1.223   5.922   4.315 -2.1167  0.7705  2.6021
 5913TIP3    H239231   1.365   5.919   4.370 -2.1556  2.3044  2.8319
 5914TIP3   OH239232   1.733   2.734   4.701  0.4903  0.3202  0.2561
 5914TIP3    H139233   1.762   2.742   4.792 -0.1559 -0.4166  0.5365
 5914TIP3    H239234   1.807   2.766   4.649  0.9878  0.4436  1.0270
 5915TIP3   OH239235   2.673   1.344  15.262  0.6756  0.6034 -0.1489
 5915TIP3    H139236   2.587   1.375  15.232  0.3907  1.0521  1.1165
 5915TIP3    H239237   2.729   1.351  15.185  0.5476  3.9702  0.0297
 5916TIP3   OH239238   2.033   1.731   4.749  0.1781  0.0222 -0.2194
 5916TIP3    H139239   1.981   1.745   4.671  1.0831  0.9416 -0.6695
 5916TIP3    H239240   1.990   1.783   4.817  0.9042  1.3589 -0.7666
 5917TIP3   OH239241   1.481   3.133   4.594  0.0505 -0.1076 -0.6436
 5917TIP3    H139242   1.561   3.123   4.543  0.4711  0.2499 -0.0658
 5917TIP3    H239243   1.439   3.210   4.557 -0.0123 -0.2819 -0.9335
 5918TIP3   OH239244   4.953   3.748   4.311  0.6296 -0.4652 -0.1925
 5918TIP3    H139245   4.943   3.841   4.334  2.0438  0.0172 -1.3938
 5918TIP3    H239246   4.865   3.719   4.288  0.4088  1.0054 -1.2798
 5919TIP3   OH239247   2.771   3.000   0.249 -0.2890  0.0858  0.0657
 5919TIP3    H139248   2.693   3.055   0.258 -0.9765 -1.1335  1.7060
 5919TIP3    H239249   2.737   2.911   0.241  0.9325 -0.4129  0.3800
 5920TIP3   OH239250   0.127   5.397  16.310  0.2789 -0.4348 -0.1942
 5920TIP3    H139251   0.035   5.422  16.300  0.3025 -0.3871 -0.2921
 5920TIP3    H239252   0.176   5.476  16.289  0.4016 -0.9979 -2.1367
 5921TIP3   OH239253   0.255   0.067  14.226  0.2506 -0.2152  0.0003
 5921TIP3    H139254   0.349   0.059  14.241  0.0036 -1.2241  1.0243
 5921TIP3    H239255   0.223   0.114  14.303 -0.2805 -1.0324  0.2773
 5922TIP3   OH239256   3.306   6.337   1.656 -0.4018  0.0630  1.0554
 5922TIP3    H139257   3.230   6.393   1.671 -1.7921 -1.5158  0.1020
 5922TIP3    H239258   3.334   6.360   1.567 -0.7983 -0.5317  0.7731
 5923TIP3   OH239259   2.729   2.883  15.248 -0.2986 -0.3465 -0.2205
 5923TIP3    H139260   2.695   2.912  15.164  0.9602 -1.7295 -1.2265
 5923TIP3    H239261   2.750   2.963  15.295  1.3768  0.4083 -2.2236
 5924TIP3   OH239262   0.244   3.520   4.370  0.2576  0.4142 -0.4815
 5924TIP3    H139263   0.281   3.603   4.400  0.6625 -0.3926  1.3421
 5924TIP3    H239264   0.181   3.495   4.438  1.4212 -1.6118 -0.0910
 5925TIP3   OH239265   2.558   2.395  15.815 -0.4599  0.1554 -0.0350
 5925TIP3    H139266   2.625   2.328  15.804  0.7901  1.4095 -0.2121
 5925TIP3    H239267   2.551   2.408  15.909  0.5473  1.0156 -0.0793
 5926TIP3   OH239268   1.507   4.597   5.287 -0.0053  0.5144  0.1415
 5926TIP3    H139269   1.474   4.686   5.276 -0.4694  0.4233  0.7456
 5926TIP3    H239270   1.490   4.554   5.203 -0.1048  0.8885 -0.0321
 5927TIP3   OH239271   5.995   1.935   3.792 -0.5559  0.0787  0.0697
 5927TIP3    H139272   6.043   1.876   3.851  0.1402  0.2650 -0.3096
 5927TIP3    H239273   5.997   2.020   3.836  0.7916  0.4389 -0.6654
 5928TIP3   OH239274   5.261   3.224  11.991 -0.2752  0.0811 -0.8723
 5928TIP3    H139275   5.179   3.275  11.992 -0.9504 -0.9454  3.2335
 5928TIP3    H239276   5.238   3.144  11.945 -1.1812  0.4011 -0.9964
 5929TIP3   OH239277   3.303   6.689   5.165 -0.2864 -0.6595  0.1438
 5929TIP3    H139278   3.212   6.716   5.167  0.1678  1.0957 -1.5259
 5929TIP3    H239279   3.309   6.632   5.088  0.2838  0.2877 -0.5289
 5930TIP3   OH239280   2.696   0.921  12.432 -0.0440 -0.5621  0.2497
 5930TIP3    H139281   2.758   0.851  12.409  0.6866  0.2955 -0.4348
 5930TIP3    H239282   2.752   0.997  12.449 -0.7177 -0.5694  2.6282
 5931TIP3   OH239283   6.170   3.086   1.361 -0.3267  0.0632 -0.2956
 5931TIP3    H139284   6.260   3.117   1.368 -0.1807 -0.4078 -0.0510
 5931TIP3    H239285   6.143   3.108   1.272  0.3358 -0.6209 -0.6705
 5932TIP3   OH239286   3.995   2.686  15.957 -0.8065  0.0384  0.1618
 5932TIP3    H139287   4.077   2.731  15.933  0.0352 -0.2202  2.4151
 5932TIP3    H239288   3.975   2.631  15.882  0.2833  1.2485 -1.0424
 5933TIP3   OH239289   0.046   3.420   2.452 -0.5506  0.2607  0.1674
 5933TIP3    H139290  -0.002   3.422   2.368 -2.0643 -2.1687  0.9398
 5933TIP3    H239291   0.047   3.328   2.477 -0.0326  0.9526  2.7999
 5934TIP3   OH239292   4.818   1.017   4.446  0.0343 -0.4805  0.5705
 5934TIP3    H139293   4.879   1.037   4.375 -2.3093 -0.7196 -1.5821
 5934TIP3    H239294   4.848   1.071   4.519  1.0381  1.6634 -1.3631
 5935TIP3   OH239295   2.520   1.314  13.690  0.0871  1.0484  0.3139
 5935TIP3    H139296   2.560   1.375  13.751  1.1394 -0.2994  0.9855
 5935TIP3    H239297   2.586   1.247  13.675 -1.9179 -1.2755  1.5092
 5936TIP3   OH239298   3.447   0.319  10.816  0.5685 -0.1114  0.8725
 5936TIP3    H139299   3.465   0.229  10.788 -0.1695  0.2507 -0.8026
 5936TIP3    H239300   3.492   0.326  10.900 -1.9864 -3.0344  2.5964
 5937TIP3   OH239301   1.654   1.983  15.309 -0.1879 -0.3778  0.2539
 5937TIP3    H139302   1.607   1.901  15.327 -0.3524 -0.8076 -1.9751
 5937TIP3    H239303   1.728   1.956  15.254 -1.6121  1.2397 -2.5420
 5938TIP3   OH239304   2.437   2.425  10.728  0.2594 -0.2571 -0.0400
 5938TIP3    H139305   2.486   2.350  10.762 -0.0282 -0.2387  0.4241
 5938TIP3    H239306   2.463   2.498  10.784 -2.5973 -0.8814  2.2089
 5939TIP3   OH239307   4.314   5.156   1.122  0.1256 -0.8663  0.8187
 5939TIP3    H139308   4.373   5.118   1.187  0.8408  2.5336  2.2928
 5939TIP3    H239309   4.271   5.228   1.168 -3.3575 -1.6928 -0.9691
 5940TIP3   OH239310   6.734   5.759   1.087  0.0764 -0.1949  0.1557
 5940TIP3    H139311   6.827   5.753   1.067 -0.2051  1.1868 -1.7008
 5940TIP3    H239312   6.713   5.852   1.078 -1.0983 -0.1863  2.4357
 5941TIP3   OH239313   2.063   2.138  13.845 -0.2673 -0.2002 -0.3578
 5941TIP3    H139314   2.124   2.210  13.858  1.0250 -0.7811 -2.9924
 5941TIP3    H239315   1.977   2.180  13.842  0.1105  0.7993  1.6808
 5942TIP3   OH239316   1.178   1.222  11.650 -0.3537 -0.1519 -0.2975
 5942TIP3    H139317   1.180   1.142  11.702  0.9705  0.0791  0.0398
 5942TIP3    H239318   1.187   1.192  11.559 -0.3211 -0.4184 -0.2066
 5943TIP3   OH239319   4.368   4.584   5.589 -0.0499 -0.3432 -0.2480
 5943TIP3    H139320   4.340   4.674   5.573  2.0687  0.3668 -0.1132
 5943TIP3    H239321   4.438   4.569   5.525 -0.7963 -2.1091 -0.6810
 5944TIP3   OH239322   2.462   4.238   2.604 -0.1659 -0.2293 -0.4672
 5944TIP3    H139323   2.541   4.288   2.586 -1.1223  1.5839  0.2521
 5944TIP3    H239324   2.391   4.291   2.570 -1.3899  0.0143  2.3311
 5945TIP3   OH239325   1.575   5.616   2.224 -0.5775  0.0694 -0.3933
 5945TIP3    H139326   1.551   5.699   2.182 -0.9361 -0.0725 -0.4683
 5945TIP3    H239327   1.609   5.642   2.310  0.7368  0.4052 -0.9941
 5946TIP3   OH239328   3.974   4.110  12.860  0.6498 -0.0574 -0.0650
 5946TIP3    H139329   3.921   4.174  12.907 -2.9612 -2.9124  0.0301
 5946TIP3    H239330   4.032   4.074  12.926 -0.4067  0.0018  0.9176
 5947TIP3   OH239331   3.343   4.189  11.590  0.1707  0.3119 -0.1798
 5947TIP3    H139332   3.346   4.225  11.502  0.8950 -0.2406 -0.3837
 5947TIP3    H239333   3.399   4.247  11.642 -0.9582  1.1579  0.1160
 5948TIP3   OH239334   5.588   0.406   6.307  0.6610 -0.1396  0.1031
 5948TIP3    H139335   5.513   0.417   6.249  0.4832 -0.5525  0.2519
 5948TIP3    H239336   5.627   0.323   6.280 -1.2433 -1.9245  2.6045
 5949TIP3   OH239337   5.102   3.035   0.157 -0.0782  0.0032 -0.1180
 5949TIP3    H139338   5.031   3.083   0.113  1.6252  1.5248 -1.3028
 5949TIP3    H239339   5.135   3.097   0.222  1.1055 -0.1453 -0.5701
 5950TIP3   OH239340   0.327   0.909  14.225 -0.4580 -0.0351 -0.0526
 5950TIP3    H139341   0.261   0.971  14.194 -1.1202  0.1829  1.7358
 5950TIP3    H239342   0.374   0.955  14.295 -0.9631 -1.5288  1.3161
 5951TIP3   OH239343   3.343   6.016   2.467  0.1912  0.0821 -0.2893
 5951TIP3    H139344   3.341   6.086   2.532 -1.3068 -1.5182  1.4473
 5951TIP3    H239345   3.252   6.011   2.435  1.1974  1.8697 -3.6831
 5952TIP3   OH239346   3.184   4.705   5.714  0.1135  0.1911  0.5184
 5952TIP3    H139347   3.120   4.659   5.769  1.1661 -0.5023  1.1770
 5952TIP3    H239348   3.260   4.648   5.713  0.5369  0.7725 -0.7002
 5953TIP3   OH239349   1.082   5.817  12.326  0.4221  1.1673  0.2704
 5953TIP3    H139350   0.990   5.793  12.327 -0.1306  3.2237  1.6641
 5953TIP3    H239351   1.121   5.767  12.398  0.5118 -0.0343 -0.5907
 5954TIP3   OH239352   3.311   2.201   0.852  0.1840 -0.2249  0.2866
 5954TIP3    H139353   3.261   2.121   0.834 -1.4490 -0.0153  3.5177
 5954TIP3    H239354   3.381   2.172   0.910 -0.2874  0.6531  1.2986
 5955TIP3   OH239355   4.727   2.537  12.572  0.3486 -0.2057  0.2534
 5955TIP3    H139356   4.786   2.597  12.527  0.4391  0.3186  1.0683
 5955TIP3    H239357   4.755   2.539  12.664 -0.4266 -0.5563  0.5058
 5956TIP3   OH239358   3.165   1.761   3.357 -0.1093  0.3707 -0.3419
 5956TIP3    H139359   3.208   1.810   3.427  0.5212 -0.0902 -0.4010
 5956TIP3    H239360   3.236   1.732   3.300 -0.3834 -1.2416  0.0972
 5957TIP3   OH239361   1.066   0.799  14.941  0.0507  0.5128 -0.1269
 5957TIP3    H139362   1.146   0.750  14.919 -0.0035 -0.5722  1.9604
 5957TIP3    H239363   1.096   0.887  14.962  0.8800 -0.2100  1.8305
 5958TIP3   OH239364   0.877   5.323  14.615  0.2765  0.0491 -0.6085
 5958TIP3    H139365   0.798   5.309  14.563 -0.2335 -0.2896  0.2492
 5958TIP3    H239366   0.860   5.404  14.663 -0.8598 -1.6268  1.9388
 5959TIP3   OH239367   1.672   3.662   5.896  0.4270  0.5296  0.8100
 5959TIP3    H139368   1.712   3.578   5.919 -0.4942 -0.8762 -2.4670
 5959TIP3    H239369   1.727   3.696   5.826 -1.1603  1.0233 -0.2058
 5960TIP3   OH239370   2.016   0.078   5.008  0.0361 -0.2000 -0.5997
 5960TIP3    H139371   1.976  -0.002   4.974 -0.3897  0.1600 -0.9656
 5960TIP3    H239372   1.969   0.094   5.091  0.3285 -0.4913 -0.3779
 5961TIP3   OH239373   5.079   6.736  14.526  0.2160  0.1252 -0.0576
 5961TIP3    H139374   5.001   6.791  14.517 -0.7296 -1.1368  0.3514
 5961TIP3    H239375   5.045   6.647  14.533  1.7082 -0.4611 -0.1014
 5962TIP3   OH239376   0.348   1.507   0.112 -0.2576  0.5689 -0.5405
 5962TIP3    H139377   0.356   1.587   0.163 -1.1860  2.0460 -2.6289
 5962TIP3    H239378   0.254   1.498   0.095 -0.0796 -0.4924 -1.0118
 5963TIP3   OH239379   1.561   6.334   4.194 -0.0531 -0.5841 -0.0640
 5963TIP3    H139380   1.608   6.415   4.217 -0.1169 -0.6544  0.3283
 5963TIP3    H239381   1.629   6.272   4.170 -0.0187 -0.3402 -0.5997
 5964TIP3   OH239382   2.440   1.674   3.498  0.5001  0.5684  0.1143
 5964TIP3    H139383   2.376   1.619   3.454 -0.4314  1.3184  0.4999
 5964TIP3    H239384   2.441   1.755   3.447 -1.7442  2.0519  2.2858
 5965TIP3   OH239385   4.093   0.076  11.362 -0.1393  0.0448 -0.1396
 5965TIP3    H139386   4.048   0.031  11.291  0.4947  0.6702 -0.9369
 5965TIP3    H239387   4.025   0.087  11.429  0.1441 -3.7142  0.8603
 5966TIP3   OH239388   3.389   0.869   0.295  0.5098 -0.0530 -0.0191
 5966TIP3    H139389   3.322   0.927   0.257 -0.0817 -0.1498  0.8612
 5966TIP3    H239390   3.471   0.918   0.286  0.0205  0.9121  0.6906
 5967TIP3   OH239391   4.700   4.164  17.111  0.5019  0.3009 -0.7824
 5967TIP3    H139392   4.634   4.103  17.142  2.1709 -2.0169 -1.6939
 5967TIP3    H239393   4.661   4.205  17.034 -0.1114 -0.5742 -0.9423
 5968TIP3   OH239394   2.877   0.665   2.117 -0.2319  0.2866 -0.0555
 5968TIP3    H139395   2.890   0.606   2.042  1.3945 -0.7371  0.9916
 5968TIP3    H239396   2.820   0.616   2.176 -0.3945  0.5230 -0.0168
 5969TIP3   OH239397   6.746   3.627   2.568 -0.0729  0.2276 -0.5498
 5969TIP3    H139398   6.804   3.693   2.529 -0.9033  1.5253  0.3440
 5969TIP3    H239399   6.759   3.549   2.514  1.0314  1.0771 -1.5634
 5970TIP3   OH239400   6.391   4.316  10.949  0.4442  0.0016  0.1526
 5970TIP3    H139401   6.297   4.333  10.937  0.1656 -1.0950  0.6473
 5970TIP3    H239402   6.422   4.290  10.863  0.0227 -0.8230  0.2425
 5971TIP3   OH239403   4.131   5.795   0.469  0.3705 -0.0269  0.4331
 5971TIP3    H139404   4.135   5.874   0.415  2.9264 -0.8222 -0.5984
 5971TIP3    H239405   4.219   5.758   0.464 -0.5756 -2.5148  1.5708
 5972TIP3   OH239406   1.428   2.589   3.109  0.1634 -0.3295 -0.3675
 5972TIP3    H139407   1.345   2.542   3.096  0.8987 -1.3480 -1.4776
 5972TIP3    H239408   1.447   2.577   3.202 -1.2170  0.3955  0.0244
 5973TIP3   OH239409   2.719   1.182   4.356 -0.0561  0.2869 -0.2853
 5973TIP3    H139410   2.795   1.140   4.315 -1.1951 -1.8607 -0.2471
 5973TIP3    H239411   2.652   1.114   4.357 -2.0450  2.2231 -0.4648
 5974TIP3   OH239412   5.653   5.162  14.975 -0.2341  0.5780  0.0488
 5974TIP3    H139413   5.578   5.158  15.034 -0.5557  0.9093 -0.3361
 5974TIP3    H239414   5.727   5.184  15.031 -0.2817 -0.4937  0.5591
 5975TIP3   OH239415   3.084   4.732  12.339 -0.0860 -0.6216  0.7382
 5975TIP3    H139416   3.113   4.644  12.313 -0.1158 -0.8232  1.3630
 5975TIP3    H239417   3.098   4.786  12.262  0.3985 -1.0736  0.5036
 5976TIP3   OH239418   4.427   6.771  12.433 -0.3972 -0.0793 -0.3862
 5976TIP3    H139419   4.339   6.740  12.455 -0.9500  1.5006 -0.3477
 5976TIP3    H239420   4.485   6.702  12.465 -1.4870 -0.1411  1.5393
 5977TIP3   OH239421   1.276   2.027  15.496  0.6356  0.0934  0.1087
 5977TIP3    H139422   1.259   2.117  15.523 -3.0420 -0.1831 -0.9949
 5977TIP3    H239423   1.275   1.977  15.578 -0.6953  0.6183  0.4320
 5978TIP3   OH239424   1.719   4.439   0.518  0.3272 -0.2182  0.4866
 5978TIP3    H139425   1.741   4.346   0.520 -3.0316 -1.0446  2.0840
 5978TIP3    H239426   1.676   4.456   0.602 -1.7453  2.0944 -0.9818
 5979TIP3   OH239427   2.434   6.687   2.700  0.7753 -0.2548  0.4036
 5979TIP3    H139428   2.519   6.728   2.684  0.7432  0.3797  1.8148
 5979TIP3    H239429   2.373   6.735   2.644  1.1785 -0.1181  0.0791
 5980TIP3   OH239430   2.137   3.238  12.551  0.2617 -0.4897 -0.1562
 5980TIP3    H139431   2.222   3.281  12.561 -0.0386  0.7712 -2.6734
 5980TIP3    H239432   2.088   3.294  12.492 -0.6417 -3.5387 -2.4567
 5981TIP3   OH239433   2.479   2.535  12.361  0.0213  0.2793  1.2216
 5981TIP3    H139434   2.517   2.492  12.284  0.1922  1.4254  0.6693
 5981TIP3    H239435   2.533   2.504  12.434  1.0319  0.6441  0.6454
 5982TIP3   OH239436   2.326   2.506  15.730 -0.1830  0.0820 -0.2940
 5982TIP3    H139437   2.313   2.494  15.635 -2.0174  0.7960 -0.1598
 5982TIP3    H239438   2.409   2.463  15.748  0.4246  0.3188 -2.3169
 5983TIP3   OH239439   2.821   2.257   1.326 -0.2832  0.9687 -0.4982
 5983TIP3    H139440   2.825   2.337   1.274  2.6855 -0.6302 -2.9810
 5983TIP3    H239441   2.776   2.194   1.269  0.5997 -0.0731 -0.0611
 5984TIP3   OH239442   2.007   3.839   0.328  0.1228 -0.2512 -0.3810
 5984TIP3    H139443   1.926   3.867   0.286 -0.5783 -1.6618 -0.0030
 5984TIP3    H239444   2.033   3.760   0.280 -0.7970 -2.0154  1.9082
 5985TIP3   OH239445   4.931   5.991   1.992  0.0268 -0.2062  0.9324
 5985TIP3    H139446   5.022   5.964   2.000 -0.2006 -1.9406 -1.6208
 5985TIP3    H239447   4.927   6.040   1.910 -1.3466 -0.1935  0.9885
 5986TIP3   OH239448   0.362   1.413  15.404  0.1347  0.1073  0.1241
 5986TIP3    H139449   0.365   1.347  15.335  1.4500 -0.1442  0.4191
 5986TIP3    H239450   0.371   1.496  15.357  1.0755 -0.0661 -0.0128
 5987TIP3   OH239451   3.166   3.035   2.048  0.4283  0.3436  0.7084
 5987TIP3    H139452   3.127   2.987   2.121  1.4230 -1.7357 -0.0751
 5987TIP3    H239453   3.096   3.043   1.984  0.1446  0.2632  1.0106
 5988TIP3   OH239454   1.263   2.286  15.581 -0.2707  0.6544  0.3185
 5988TIP3    H139455   1.327   2.337  15.630  1.4935  1.9070 -3.1411
 5988TIP3    H239456   1.209   2.351  15.536 -1.0941 -0.4703 -0.3510
 5989TIP3   OH239457   4.733   5.199   2.311 -0.5322  0.4273  0.2876
 5989TIP3    H139458   4.669   5.248   2.364  0.4833  1.9801  0.1168
 5989TIP3    H239459   4.700   5.109   2.310 -1.6164  0.7838  1.9226
 5990TIP3   OH239460   0.055   4.237   2.387  0.8845 -0.2782 -0.2447
 5990TIP3    H139461   0.094   4.185   2.457 -0.0868 -0.5492  0.0941
 5990TIP3    H239462   0.076   4.328   2.410  1.0691 -0.4005  0.0795
 5991TIP3   OH239463   1.599   4.381   5.428  0.1474  1.0827 -0.0092
 5991TIP3    H139464   1.558   4.454   5.382 -0.1399  1.0333  0.1640
 5991TIP3    H239465   1.543   4.366   5.504 -0.3999 -0.0111 -0.6224
 5992TIP3   OH239466   0.350   2.443  14.091 -0.2292  0.2493  0.4661
 5992TIP3    H139467   0.368   2.507  14.022 -1.1185 -1.2475 -1.2144
 5992TIP3    H239468   0.269   2.473  14.131  0.9535  1.8255  1.7477
 5993TIP3   OH239469   1.186   1.047  15.007  0.7469  0.4856  0.5691
 5993TIP3    H139470   1.279   1.065  15.004  0.7851  0.2343  0.2163
 5993TIP3    H239471   1.146   1.114  14.952  0.8264 -0.0858 -0.1956
 5994TIP3   OH239472   6.558   5.869  10.261  0.2466 -0.9918  0.3881
 5994TIP3    H139473   6.639   5.920  10.265  1.2150 -2.4919 -0.0275
 5994TIP3    H239474   6.545   5.837  10.350 -0.0525 -0.5266  0.5166
 5995TIP3   OH239475   2.606   3.196   3.296  0.0464  0.2143  0.6820
 5995TIP3    H139476   2.682   3.174   3.241  0.7773 -0.7435  2.0426
 5995TIP3    H239477   2.637   3.181   3.385 -2.0001 -0.9969  1.2048
 5996TIP3   OH239478   2.731   6.342  12.047  0.1833 -0.0769  0.1919
 5996TIP3    H139479   2.675   6.277  12.089  0.9175 -1.0979 -0.4069
 5996TIP3    H239480   2.700   6.347  11.957 -1.0887  1.7822  0.7025
 5997TIP3   OH239481   1.098   3.414   1.457  0.9278 -0.2623  0.0116
 5997TIP3    H139482   1.161   3.378   1.394  1.4242  0.3170  0.1743
 5997TIP3    H239483   1.012   3.391   1.421  1.1885  0.8479 -1.3562
 5998TIP3   OH239484   2.012   3.123   0.329  0.3313  0.0276  0.0389
 5998TIP3    H139485   1.998   3.102   0.237  2.6389  0.2290 -0.4012
 5998TIP3    H239486   2.043   3.214   0.328 -0.3775  0.2970  1.0960
 5999TIP3   OH239487   6.758   4.869  10.919 -0.3052 -0.3014 -0.0997
 5999TIP3    H139488   6.779   4.799  10.857 -1.3870  0.0069 -0.8348
 5999TIP3    H239489   6.721   4.825  10.995  1.9273 -0.7616  0.7445
 6000TIP3   OH239490   2.910   0.595   4.053 -0.1966  0.3631  0.3631
 6000TIP3    H139491   2.816   0.599   4.036 -0.5325  0.7168  2.2279
 6000TIP3    H239492   2.945   0.675   4.015 -1.1623  1.9236  2.6337
 6001TIP3   OH239493   3.896   5.674   6.322 -0.5618  0.0733 -0.0867
 6001TIP3    H139494   3.963   5.622   6.367  0.8265  1.6900 -0.2729
 6001TIP3    H239495   3.845   5.609   6.273  0.5376 -1.2323  0.4567
 6002TIP3   OH239496   4.620   1.227   2.159 -0.0258  0.0372 -0.5796
 6002TIP3    H139497   4.695   1.194   2.208  0.7307  0.5107 -1.4157
 6002TIP3    H239498   4.601   1.312   2.198 -1.8562 -1.2500  1.4507
 6003TIP3   OH239499   0.121   2.448  14.268  0.0978 -0.1910 -0.6035
 6003TIP3    H139500   0.162   2.472  14.351  1.3551 -2.0848 -0.6446
 6003TIP3    H239501   0.071   2.526  14.243  1.2309  1.0884  0.9713
 6004TIP3   OH239502   5.567   1.631  13.200 -0.1468 -0.1232 -0.2978
 6004TIP3    H139503   5.634   1.654  13.137  2.3550 -0.0771  2.2731
 6004TIP3    H239504   5.509   1.707  13.203  1.8573  1.4210  0.1745
 6005TIP3   OH239505   4.005   6.687   4.201  0.3163 -0.5878  0.5610
 6005TIP3    H139506   3.986   6.594   4.215  0.4018 -0.8022 -0.7054
 6005TIP3    H239507   3.938   6.716   4.138 -0.1067  0.3656  1.4329
 6006TIP3   OH239508   6.165   4.282   3.620 -0.0628  0.0868 -0.4409
 6006TIP3    H139509   6.180   4.367   3.578 -0.2069  0.0857 -0.4958
 6006TIP3    H239510   6.178   4.299   3.713 -0.8391  0.3424 -0.3742
 6007TIP3   OH239511   6.038   3.589   5.089 -0.4764  0.0319 -0.2874
 6007TIP3    H139512   5.948   3.568   5.114 -0.2644 -2.0562 -1.1766
 6007TIP3    H239513   6.038   3.583   4.993  1.2179 -2.6657 -0.1632
 6008TIP3   OH239514   3.386   0.167   0.437  0.7176  0.7112  0.0896
 6008TIP3    H139515   3.434   0.219   0.373 -2.5658  1.0897 -2.1536
 6008TIP3    H239516   3.321   0.227   0.473 -0.4012 -0.7224  0.4940
 6009TIP3   OH239517   0.135   6.430   4.038 -0.2256 -0.6168 -0.5051
 6009TIP3    H139518   0.048   6.445   4.074 -0.2401 -1.3960 -0.1867
 6009TIP3    H239519   0.194   6.441   4.113 -0.0070  0.3255 -0.8108
 6010TIP3   OH239520   4.590   1.823  16.430  0.4350 -1.0623 -0.1674
 6010TIP3    H139521   4.653   1.797  16.498 -0.0001 -0.7954  0.3429
 6010TIP3    H239522   4.512   1.771  16.448  0.3593 -1.0773 -0.5382
 6011TIP3   OH239523   3.745   5.126   5.198  0.0728 -0.0173  0.2583
 6011TIP3    H139524   3.676   5.097   5.139 -2.1561  3.2885  1.0790
 6011TIP3    H239525   3.766   5.215   5.168  2.7271 -0.3195  1.1317
 6012TIP3   OH239526   2.850   1.529  14.262  0.4280  0.4029  0.6716
 6012TIP3    H139527   2.938   1.506  14.231 -0.6896 -2.1109 -0.7488
 6012TIP3    H239528   2.831   1.612  14.218  1.8666  0.6978  0.5757
 6013TIP3   OH239529   5.847   5.917   0.956 -0.0688  0.1240 -0.1273
 6013TIP3    H139530   5.860   5.852   1.026 -0.0451  1.1573  0.8414
 6013TIP3    H239531   5.752   5.918   0.942 -0.1482  0.4587  0.4203
 6014TIP3   OH239532   4.105   0.908  12.840 -0.4870 -0.2364 -0.4690
 6014TIP3    H139533   4.163   0.931  12.913  0.1237  2.8929 -1.8593
 6014TIP3    H239534   4.145   0.830  12.802  2.6934  1.6484 -1.1724
 6015TIP3   OH239535   2.064   2.871  14.223 -0.1827  0.1877 -0.3693
 6015TIP3    H139536   2.069   2.888  14.317 -0.2152 -1.1648 -0.1108
 6015TIP3    H239537   2.087   2.778  14.214 -0.1278  0.3224 -1.6975
 6016TIP3   OH239538   5.387   1.137   2.335 -0.1932  0.3226 -0.2119
 6016TIP3    H139539   5.409   1.163   2.425 -3.4319  0.6156  0.5563
 6016TIP3    H239540   5.350   1.049   2.344 -1.0915  0.5929 -1.1478
 6017TIP3   OH239541   3.549   3.489  14.533 -0.6281  0.4592  0.5749
 6017TIP3    H139542   3.492   3.437  14.477 -0.1243  1.2259 -0.6788
 6017TIP3    H239543   3.605   3.425  14.576 -1.2580 -0.1675  0.4688
 6018TIP3   OH239544   5.820   6.482   5.367 -0.1463  0.0611 -0.1221
 6018TIP3    H139545   5.883   6.533   5.315  0.5653 -2.6420 -2.0244
 6018TIP3    H239546   5.747   6.541   5.381  1.6055  2.3492 -0.3070
 6019TIP3   OH239547   6.778   2.026   1.997  0.5494 -0.2445  0.2592
 6019TIP3    H139548   6.760   1.944   2.042  0.6527 -0.8733 -0.8123
 6019TIP3    H239549   6.872   2.023   1.979  0.3279 -0.4842 -0.9062
 6020TIP3   OH239550   6.659   4.750  15.815 -0.1283 -0.1162 -0.4928
 6020TIP3    H139551   6.604   4.820  15.780  1.0255  0.8721 -0.3466
 6020TIP3    H239552   6.672   4.691  15.741 -1.9383 -0.7296 -0.3556
 6021TIP3   OH239553   1.224   2.943   0.054  0.1046  0.0781 -0.0935
 6021TIP3    H139554   1.208   3.037   0.055 -1.9114 -0.2257  2.5159
 6021TIP3    H239555   1.269   2.925   0.136  2.8257 -0.9340 -1.7192
 6022TIP3   OH239556   5.154   1.876   0.476  0.3492 -0.1777 -0.1875
 6022TIP3    H139557   5.204   1.832   0.545 -1.6508 -0.8600  0.8477
 6022TIP3    H239558   5.111   1.949   0.520  0.9005  0.7867 -1.2084
 6023TIP3   OH239559   1.856   3.438   5.041  0.0396  0.8310 -0.6745
 6023TIP3    H139560   1.887   3.424   4.951 -1.4603  0.7907 -1.2042
 6023TIP3    H239561   1.916   3.503   5.077  0.9029  0.5452 -1.5724
 6024TIP3   OH239562   0.152   3.806   2.438  0.4652 -0.4416 -0.2225
 6024TIP3    H139563   0.241   3.829   2.463  0.2878  0.8540 -0.7622
 6024TIP3    H239564   0.160   3.772   2.348  0.2638  0.7369 -0.6877
 6025TIP3   OH239565   1.255   6.647  11.633  0.2979  0.5013  0.2772
 6025TIP3    H139566   1.294   6.726  11.595  0.9344  0.1391  0.1606
 6025TIP3    H239567   1.188   6.680  11.693 -1.8920  1.0550 -2.3627
 6026TIP3   OH239568   5.441   0.901  15.836 -0.1967  0.0350  0.4706
 6026TIP3    H139569   5.387   0.947  15.772 -1.4213 -1.2830  0.5230
 6026TIP3    H239570   5.378   0.857  15.893  0.9264 -2.5965 -0.2327
 6027TIP3   OH239571   0.842   1.986  15.480  0.2297 -0.6139 -0.2419
 6027TIP3    H139572   0.758   1.955  15.445 -0.0775  0.0321 -0.0893
 6027TIP3    H239573   0.825   2.003  15.572  0.2842  0.3735 -0.4026
 6028TIP3   OH239574   6.667   0.709   3.513 -0.3903 -0.7273 -0.1737
 6028TIP3    H139575   6.673   0.789   3.565  0.7863 -0.3362 -0.9048
 6028TIP3    H239576   6.573   0.700   3.496 -0.4621  0.9954 -0.8457
 6029TIP3   OH239577   6.155   2.192  14.970  0.2488  0.5026  0.1785
 6029TIP3    H139578   6.169   2.265  15.030  3.0714 -0.6461  0.9780
 6029TIP3    H239579   6.189   2.223  14.886  0.4019  0.5012  0.2410
 6030TIP3   OH239580   6.791   3.314  15.189 -0.0060 -0.3991 -0.0252
 6030TIP3    H139581   6.848   3.238  15.202 -0.3382 -0.2898  2.2300
 6030TIP3    H239582   6.703   3.280  15.202 -0.1996  0.2340  0.3268
 6031TIP3   OH239583   6.114   5.389   1.590  0.0814 -0.0748 -0.7139
 6031TIP3    H139584   6.065   5.307   1.596 -1.5433  0.5609 -3.8635
 6031TIP3    H239585   6.174   5.375   1.517 -0.3203  1.5599 -1.3760
 6032TIP3   OH239586   4.910   3.398  11.666  0.4223 -0.7566  0.0416
 6032TIP3    H139587   4.993   3.436  11.695  0.3565 -2.2576  2.3028
 6032TIP3    H239588   4.910   3.310  11.704 -1.5416 -1.3177 -1.2064
 6033TIP3   OH239589   5.667   2.569   5.344  0.4007  0.2849 -0.0071
 6033TIP3    H139590   5.594   2.512   5.318  0.3351  0.8891 -1.1722
 6033TIP3    H239591   5.638   2.607   5.427  0.0210 -0.5977  0.2794
 6034TIP3   OH239592   4.412   6.420  14.686  0.2653 -0.5471 -0.2927
 6034TIP3    H139593   4.404   6.515  14.678 -0.5638 -0.6260 -0.4562
 6034TIP3    H239594   4.491   6.398  14.637 -0.0032 -0.0369 -0.9603
 6035TIP3   OH239595   2.691   3.169  14.678 -0.4266 -0.1631  0.3800
 6035TIP3    H139596   2.626   3.140  14.742 -0.3373 -0.2101  0.4505
 6035TIP3    H239597   2.747   3.229  14.727 -1.3835  1.1289 -0.1130
 6036TIP3   OH239598   0.429   1.622  17.030 -0.2011 -0.1677 -0.1355
 6036TIP3    H139599   0.406   1.543  16.982 -2.6596 -0.2448  1.1098
 6036TIP3    H239600   0.498   1.594  17.091 -1.0097 -1.3342  0.2521
 6037TIP3   OH239601   3.272   2.891   2.403 -0.7736  0.0074 -0.4018
 6037TIP3    H139602   3.205   2.831   2.438  0.0285 -0.0769  1.0148
 6037TIP3    H239603   3.246   2.977   2.436  0.5503 -0.2200  1.2709
 6038TIP3   OH239604   2.416   0.607  16.453 -0.2426 -0.3749 -0.4469
 6038TIP3    H139605   2.461   0.609  16.368 -0.3174 -0.4293 -0.4880
 6038TIP3    H239606   2.356   0.682  16.450  1.7063  1.2932  0.6418
 6039TIP3   OH239607   4.868   0.929  11.713  0.2945 -0.3665 -0.1878
 6039TIP3    H139608   4.961   0.908  11.722 -0.0250 -1.7232  0.1185
 6039TIP3    H239609   4.822   0.852  11.748 -0.9417  0.2767 -0.3475
 6040TIP3   OH239610   1.763   5.135   4.077 -0.1831 -0.1833  0.5176
 6040TIP3    H139611   1.669   5.150   4.063 -0.1770 -0.5674  0.0318
 6040TIP3    H239612   1.774   5.041   4.061  0.5081  0.0970 -0.7626
 6041TIP3   OH239613   3.453   5.180  14.316  0.2066 -0.1345  0.9392
 6041TIP3    H139614   3.529   5.230  14.285 -0.9283  1.9412  1.3988
 6041TIP3    H239615   3.450   5.197  14.410 -1.3073  0.5052  0.7878
 6042TIP3   OH239616   5.467   0.507   5.789 -0.7709  0.0112 -0.2335
 6042TIP3    H139617   5.466   0.601   5.806 -1.1196 -0.1538  0.7027
 6042TIP3    H239618   5.398   0.471   5.846 -1.0855 -0.7297 -1.0676
 6043TIP3   OH239619   0.163   3.785   3.218  0.5675  0.1895 -0.5733
 6043TIP3    H139620   0.134   3.865   3.175  1.5947  0.4855 -0.7310
 6043TIP3    H239621   0.083   3.745   3.252  0.0065  1.0707 -0.8543
 6044TIP3   OH239622   5.735   4.530   6.089 -0.4483 -0.0216  0.3221
 6044TIP3    H139623   5.811   4.586   6.104  0.0071 -0.1839 -1.2823
 6044TIP3    H239624   5.662   4.579   6.126  0.2746  0.6115  0.9310
 6045TIP3   OH239625   1.092   3.417   3.036 -0.2430  0.5864 -0.0656
 6045TIP3    H139626   1.066   3.497   2.991  1.1913  1.5357  0.7785
 6045TIP3    H239627   1.134   3.364   2.968  1.1102  1.6349 -0.0450
 6046TIP3   OH239628   0.303   1.979   2.686 -0.1187  0.2489  0.1412
 6046TIP3    H139629   0.258   2.051   2.641  1.7835  0.4244 -1.5849
 6046TIP3    H239630   0.354   2.023   2.754  0.4899  0.4944 -0.4577
 6047TIP3   OH239631   3.101   5.610   1.707 -0.2691  0.0035  0.2490
 6047TIP3    H139632   3.157   5.577   1.637  1.1351  2.0503  0.3562
 6047TIP3    H239633   3.060   5.532   1.744  0.6193 -1.2980 -1.4404
 6048TIP3   OH239634   6.565   4.107  16.053 -0.7688 -0.3104 -0.0919
 6048TIP3    H139635   6.575   4.165  15.977  1.6674 -0.3780  0.1329
 6048TIP3    H239636   6.609   4.154  16.124 -0.5077 -1.5617  0.5760
 6049TIP3   OH239637   1.628   5.726  15.097  0.3957 -0.7912 -0.2056
 6049TIP3    H139638   1.638   5.776  15.178 -1.1174 -1.9000  0.6765
 6049TIP3    H239639   1.644   5.791  15.028  0.8988  0.3468  0.9476
 6050TIP3   OH239640   3.636   4.859  11.553  0.2162 -0.5122  0.8607
 6050TIP3    H139641   3.716   4.870  11.604  1.7832 -1.1865 -1.4050
 6050TIP3    H239642   3.624   4.944  11.509  1.3013 -1.3214 -1.0418
 6051TIP3   OH239643   5.898   1.016   0.975 -0.2841  0.4124  0.2325
 6051TIP3    H139644   5.937   1.056   1.053  1.2097  0.8502 -0.7108
 6051TIP3    H239645   5.814   0.981   1.005 -0.1399  1.3820  1.8198
 6052TIP3   OH239646   2.064   6.769   3.324 -0.6238  0.0721  1.2481
 6052TIP3    H139647   2.051   6.848   3.271 -2.4923 -0.6904  0.5424
 6052TIP3    H239648   2.049   6.798   3.414  0.2043  0.8511  1.1426
 6053TIP3   OH239649   1.566   2.426   5.225  0.0301 -0.2768  0.0692
 6053TIP3    H139650   1.646   2.478   5.219 -0.3761  0.2370 -1.0871
 6053TIP3    H239651   1.504   2.472   5.169 -0.8219 -1.1361  0.2975
 6054TIP3   OH239652   0.163   5.945   0.958  0.7499  0.1844  0.1226
 6054TIP3    H139653   0.119   5.916   0.878  1.5016  0.3367 -0.3494
 6054TIP3    H239654   0.200   5.866   0.996  1.8759  0.3432 -0.6004
 6055TIP3   OH239655   1.936   4.503  12.715  0.7319  0.1702  0.1009
 6055TIP3    H139656   1.955   4.593  12.741  1.7084 -0.5120  1.8094
 6055TIP3    H239657   1.915   4.458  12.797  0.9041 -1.3304 -0.6553
 6056TIP3   OH239658   3.602   1.558  12.875  0.0066 -0.0527  0.3413
 6056TIP3    H139659   3.631   1.644  12.842 -1.9485  0.4202 -0.1890
 6056TIP3    H239660   3.518   1.575  12.916  0.5331 -1.3959  2.0296
 6057TIP3   OH239661   1.752   2.929   0.239  0.1967 -0.2473 -0.5512
 6057TIP3    H139662   1.716   2.868   0.303  0.1348  0.3951  0.0207
 6057TIP3    H239663   1.824   2.881   0.198  1.5010  0.0195  1.3499
 6058TIP3   OH239664   1.374   0.608  16.358 -0.0656 -0.2703  0.5263
 6058TIP3    H139665   1.294   0.656  16.335  0.2977  0.6922  1.2207
 6058TIP3    H239666   1.426   0.609  16.277 -0.3929 -0.1728  0.3154
 6059TIP3   OH239667   4.121   0.391   1.086  0.5148  0.1944 -0.7921
 6059TIP3    H139668   4.179   0.356   1.019  0.1406  1.0666 -1.5683
 6059TIP3    H239669   4.047   0.330   1.087  0.0176  0.7803 -1.9181
 6060TIP3   OH239670   4.302   4.705  16.906  0.0791  0.0838 -0.3149
 6060TIP3    H139671   4.242   4.778  16.892 -1.1977 -0.4371  2.1124
 6060TIP3    H239672   4.373   4.719  16.844 -0.3780  3.1170 -0.1972
 6061TIP3   OH239673   4.562   4.482  12.222 -0.2077 -0.5660  0.0673
 6061TIP3    H139674   4.572   4.406  12.281 -1.2951  0.1375  1.1875
 6061TIP3    H239675   4.544   4.555  12.281  1.6572  0.7460 -0.9443
 6062TIP3   OH239676   4.734   6.243  15.667  0.1296  0.1837  0.3731
 6062TIP3    H139677   4.756   6.150  15.658  1.0883  0.4880 -0.4062
 6062TIP3    H239678   4.765   6.283  15.586 -0.4604  1.1596  0.6225
 6063TIP3   OH239679   4.992   5.338  14.380  0.1541 -0.0849 -0.2037
 6063TIP3    H139680   4.918   5.280  14.397  1.2432 -0.6457  3.0173
 6063TIP3    H239681   5.055   5.317  14.449  3.6379 -0.0990 -3.2594
 6064TIP3   OH239682   2.128   6.588   4.374 -0.8082 -0.7060 -0.0848
 6064TIP3    H139683   2.042   6.567   4.409 -0.8756 -2.7280 -1.3557
 6064TIP3    H239684   2.110   6.642   4.297 -0.9747 -1.1698 -0.3788
 6065TIP3   OH239685   4.498   4.238  14.175 -0.0974  0.3430  0.4398
 6065TIP3    H139686   4.589   4.228  14.146 -0.3852  1.1996 -0.7789
 6065TIP3    H239687   4.490   4.330  14.198 -0.4422  0.0987  1.3080
 6066TIP3   OH239688   1.062   6.475   1.322 -0.1992  0.3358 -0.7678
 6066TIP3    H139689   1.021   6.446   1.403 -1.4204  1.7955 -0.8373
 6066TIP3    H239690   1.144   6.517   1.350 -0.2633  0.1955 -0.3658
 6067TIP3   OH239691   3.922   4.996   1.700 -0.5574 -0.0323 -0.7309
 6067TIP3    H139692   3.840   5.039   1.678 -0.7895 -1.3826 -2.5810
 6067TIP3    H239693   3.925   4.919   1.644  1.4109 -0.6532  0.1747
 6068TIP3   OH239694   5.929   3.669   3.918 -0.1239  0.1777  0.5057
 6068TIP3    H139695   5.967   3.757   3.918  0.3780 -0.0358  1.0519
 6068TIP3    H239696   5.887   3.661   3.833  1.9754  0.0162 -0.5312
 6069TIP3   OH239697   3.857   1.490  15.844  0.0984  0.5348 -0.3444
 6069TIP3    H139698   3.787   1.478  15.779 -1.7555 -1.6491  1.9268
 6069TIP3    H239699   3.811   1.493  15.928  2.6763 -0.0752  1.1404
 6070TIP3   OH239700   6.795   0.696   3.260 -0.4387  0.4384 -0.6925
 6070TIP3    H139701   6.795   0.788   3.231 -0.0115  0.2060 -1.4297
 6070TIP3    H239702   6.743   0.697   3.341  0.0262  1.4280 -0.3867
 6071TIP3   OH239703   1.138   4.046   3.795 -0.2681  0.5933  0.1913
 6071TIP3    H139704   1.087   4.127   3.796  0.2227  0.9174 -0.2985
 6071TIP3    H239705   1.074   3.977   3.777 -0.4403  1.0723 -1.1501
 6072TIP3   OH239706   1.535   2.069  15.565 -0.0431 -0.5342  0.3346
 6072TIP3    H139707   1.591   2.067  15.488  1.1115  0.9593  1.1228
 6072TIP3    H239708   1.446   2.071  15.529  0.4848  0.4220 -0.9542
 6073TIP3   OH239709   0.783   3.673   1.536  0.2317 -0.0321 -0.1722
 6073TIP3    H139710   0.801   3.767   1.531 -1.2593  0.1806 -2.4810
 6073TIP3    H239711   0.705   3.666   1.590 -0.1121  0.1345 -0.6430
 6074TIP3   OH239712   2.846   0.751  11.932 -0.1223 -0.2738 -0.1787
 6074TIP3    H139713   2.785   0.800  11.877 -0.8392 -1.6240 -0.6189
 6074TIP3    H239714   2.888   0.689  11.872 -1.2209 -2.0623  0.8195
 6075TIP3   OH239715   1.027   6.218  14.383 -0.3344 -0.0634 -0.2893
 6075TIP3    H139716   1.106   6.194  14.335 -1.1654 -1.0102 -1.2173
 6075TIP3    H239717   1.007   6.307  14.353  0.8970  0.5333  0.6529
 6076TIP3   OH239718   6.709   1.797  15.584 -0.1044  0.0052  0.1122
 6076TIP3    H139719   6.703   1.751  15.667  0.4919  0.3980  0.3815
 6076TIP3    H239720   6.643   1.757  15.528 -0.7541 -0.0108  0.8959
 6077TIP3   OH239721   0.259   5.761  13.290 -0.0150 -0.3274 -0.0317
 6077TIP3    H139722   0.280   5.748  13.382  0.4707 -1.9560 -0.3639
 6077TIP3    H239723   0.285   5.852  13.272  1.4436 -0.5271  0.9998
 6078TIP3   OH239724   5.113   4.227  12.171  0.3235  0.3700  0.4487
 6078TIP3    H139725   5.033   4.224  12.223  0.8297  1.7664  1.3170
 6078TIP3    H239726   5.183   4.234  12.235  1.0810  0.2896 -0.3586
 6079TIP3   OH239727   1.485   6.577   3.210  0.4499 -0.0847  0.1180
 6079TIP3    H139728   1.478   6.495   3.161 -0.2028 -0.5021  0.8974
 6079TIP3    H239729   1.490   6.645   3.143  3.2142 -0.9035 -0.6091
 6080TIP3   OH239730   6.542   1.508   6.556  0.2847  0.3038 -0.7906
 6080TIP3    H139731   6.545   1.413   6.543  1.2350  0.1041  0.7472
 6080TIP3    H239732   6.450   1.526   6.578  0.2437 -0.3698 -0.3719
 6081TIP3   OH239733   0.712   5.973  13.563  0.3400  0.1135  0.0647
 6081TIP3    H139734   0.701   5.944  13.472 -2.5037 -0.1211  0.4252
 6081TIP3    H239735   0.744   6.063  13.555  1.0681 -0.2330 -1.1429
 6082TIP3   OH239736   2.732   5.241  16.793  0.1525 -0.0900 -0.1111
 6082TIP3    H139737   2.809   5.196  16.830  0.5949  0.1326 -0.7621
 6082TIP3    H239738   2.769   5.308  16.736 -0.5234  0.8937  0.6099
 6083TIP3   OH239739   1.145   1.899  16.618  0.1753 -0.4209  0.5850
 6083TIP3    H139740   1.098   1.842  16.557  0.4066 -1.4274  1.3466
 6083TIP3    H239741   1.079   1.960  16.649 -0.6914 -1.9499  1.7982
 6084TIP3   OH239742   0.535   0.884  12.588 -0.0725  0.1356  0.5902
 6084TIP3    H139743   0.540   0.972  12.624 -0.0601  0.5057 -0.2960
 6084TIP3    H239744   0.445   0.876  12.557 -0.1776 -0.2986  1.0052
 6085TIP3   OH239745   2.380   6.400   6.396  0.4960  0.0133  0.0303
 6085TIP3    H139746   2.463   6.361   6.368  0.4423  0.5699 -0.9581
 6085TIP3    H239747   2.401   6.447   6.476  1.4461  1.2273 -0.8970
 6086TIP3   OH239748   6.174   5.452  14.593  0.1629  0.3978  0.6277
 6086TIP3    H139749   6.090   5.488  14.564  0.3851 -1.0804 -2.0926
 6086TIP3    H239750   6.161   5.357  14.589  1.7808  0.1707  0.6812
 6087TIP3   OH239751   0.651   4.959  15.089 -0.1895  0.3449 -0.0703
 6087TIP3    H139752   0.566   4.969  15.046 -0.0505  0.0334 -0.4277
 6087TIP3    H239753   0.631   4.953  15.182 -0.5620  0.2767 -0.1545
 6088TIP3   OH239754   0.073   3.766   0.410 -0.1964 -0.0525 -0.1873
 6088TIP3    H139755   0.119   3.693   0.452  1.0518  1.2809  0.8107
 6088TIP3    H239756  -0.018   3.755   0.437  0.0049 -1.1471  0.0914
 6089TIP3   OH239757   2.294   3.544   3.116 -0.0763  0.5692 -0.2591
 6089TIP3    H139758   2.242   3.464   3.130  0.5172  0.0565 -0.9496
 6089TIP3    H239759   2.234   3.603   3.070  0.6783 -0.8911 -3.1892
 6090TIP3   OH239760   5.105   2.145   0.957 -0.0880 -1.0509  0.2301
 6090TIP3    H139761   5.027   2.144   1.013 -1.2693 -1.8279 -1.3769
 6090TIP3    H239762   5.155   2.220   0.987 -2.2728  0.4722  0.2224
 6091TIP3   OH239763   5.373   0.528  11.807 -0.3112 -1.1663  0.0921
 6091TIP3    H139764   5.367   0.579  11.727  1.1688 -0.8841  0.1514
 6091TIP3    H239765   5.344   0.440  11.782 -1.3568 -0.6965 -0.3742
 6092TIP3   OH239766   3.635   1.742   3.712  0.5867  0.2489 -0.6175
 6092TIP3    H139767   3.556   1.694   3.736  1.4328 -1.5473 -1.2800
 6092TIP3    H239768   3.603   1.823   3.672 -0.9760 -1.1493 -2.3222
 6093TIP3   OH239769   0.470   1.058   5.704 -0.4571  0.5421  0.3694
 6093TIP3    H139770   0.505   1.140   5.737  2.3746 -0.2359 -0.5719
 6093TIP3    H239771   0.520   0.990   5.750 -0.0170 -0.5931 -1.7311
 6094TIP3   OH239772   0.074   0.126  12.092  0.4890 -0.3051  0.2015
 6094TIP3    H139773   0.146   0.117  12.030  1.0520  5.3899 -0.2526
 6094TIP3    H239774   0.114   0.166  12.169 -1.5401 -0.4014  1.3213
 6095TIP3   OH239775   4.612   0.046   4.201  0.4445  0.4963 -0.6940
 6095TIP3    H139776   4.684   0.038   4.264 -0.0181  1.4621 -0.0376
 6095TIP3    H239777   4.553   0.110   4.240 -1.5552 -1.4361 -0.4880
 6096TIP3   OH239778   6.141   3.070  15.987 -0.3486 -0.2600 -0.3034
 6096TIP3    H139779   6.062   3.095  16.035  0.7620  1.1333  0.8553
 6096TIP3    H239780   6.212   3.112  16.035  0.9356 -0.0614 -2.3205
 6097TIP3   OH239781   3.566   3.748  12.767  0.2206 -0.2414 -0.4563
 6097TIP3    H139782   3.626   3.821  12.777 -0.6506  0.4004  0.2603
 6097TIP3    H239783   3.615   3.682  12.719  0.8182  1.0479 -1.6501
 6098TIP3   OH239784   5.522   6.188   5.812 -0.4824 -0.1505  0.0853
 6098TIP3    H139785   5.443   6.134   5.818 -0.8432  0.5542  2.0919
 6098TIP3    H239786   5.492   6.269   5.771 -0.5454 -0.3720 -0.3034
 6099TIP3   OH239787   3.260   6.038   2.187 -0.0493  0.0435 -0.4326
 6099TIP3    H139788   3.354   6.031   2.168 -0.6734 -0.9867 -3.3129
 6099TIP3    H239789   3.234   6.122   2.149 -0.0712  0.9651  1.5374
 6100TIP3   OH239790   1.717   1.952   6.023 -0.2752  0.2026  0.2998
 6100TIP3    H139791   1.791   2.012   6.026  0.7564 -1.0034 -0.5477
 6100TIP3    H239792   1.722   1.911   5.937 -1.1335 -0.8904  0.7511
 6101TIP3   OH239793   2.370   3.833   0.072 -0.2310  0.7968  0.1720
 6101TIP3    H139794   2.436   3.769   0.101 -0.7341  0.7431  1.2361
 6101TIP3    H239795   2.287   3.785   0.074 -0.4910  1.2401  0.1288
 6102TIP3   OH239796   2.561   3.175   4.999 -0.1355 -0.4602 -0.5131
 6102TIP3    H139797   2.572   3.096   5.052  1.6265  0.0112 -0.1364
 6102TIP3    H239798   2.573   3.146   4.909  0.0840 -0.7019 -0.4064
 6103TIP3   OH239799   2.170   0.426  16.335  0.1761 -0.0009  0.4962
 6103TIP3    H139800   2.263   0.423  16.310 -0.2637  1.1154 -1.3862
 6103TIP3    H239801   2.143   0.515  16.313 -1.5200 -0.5346  0.3865
 6104TIP3   OH239802   4.928   1.367  10.583 -0.1426 -0.1597  0.4984
 6104TIP3    H139803   4.950   1.333  10.669  0.4817 -0.3603  0.2631
 6104TIP3    H239804   5.007   1.353  10.530 -0.7742 -0.7122 -0.3088
 6105TIP3   OH239805   1.254   0.947  13.029  0.7049  0.4275  0.3570
 6105TIP3    H139806   1.231   0.888  12.957  3.2766 -0.9699  0.5849
 6105TIP3    H239807   1.305   1.016  12.987 -1.8115  2.2297  0.1792
 6106TIP3   OH239808   5.194   1.311   0.649 -0.5000  1.2160  0.6533
 6106TIP3    H139809   5.229   1.364   0.578 -0.0559  1.3728  0.9927
 6106TIP3    H239810   5.259   1.317   0.719  1.3240 -2.6558 -0.5805
 6107TIP3   OH239811   1.142   4.947  12.180 -0.2011  0.0909  0.9118
 6107TIP3    H139812   1.122   4.934  12.087 -0.6607 -2.2503  1.2993
 6107TIP3    H239813   1.068   4.995  12.214 -0.2480  0.5609  0.1689
 6108TIP3   OH239814   1.331   2.740   5.324  0.3037  0.4706  0.1354
 6108TIP3    H139815   1.291   2.828   5.320  2.2787  1.4150  0.7056
 6108TIP3    H239816   1.283   2.690   5.258  0.0618  2.3484 -1.1770
 6109TIP3   OH239817   5.266   2.977   5.682 -0.0276 -0.1103  0.1454
 6109TIP3    H139818   5.203   2.968   5.753  1.0774  0.4762  1.2319
 6109TIP3    H239819   5.327   2.904   5.694 -2.0349 -2.3502 -2.5689
 6110TIP3   OH239820   3.306   4.364   6.664  0.1260  0.0801  0.5450
 6110TIP3    H139821   3.316   4.457   6.645 -1.5754 -0.1487 -1.5611
 6110TIP3    H239822   3.213   4.353   6.683  0.0582 -1.4187 -0.5604
 6111TIP3   OH239823   4.191   1.922   1.900  0.0135  0.0221  0.0752
 6111TIP3    H139824   4.118   1.868   1.931 -0.5288 -0.8374 -2.5051
 6111TIP3    H239825   4.265   1.896   1.954 -0.6809 -1.9911  0.1073
 6112TIP3   OH239826   6.081   6.319  16.050 -0.4086  0.2396  0.4526
 6112TIP3    H139827   6.146   6.388  16.062 -0.3102  0.1323  0.5449
 6112TIP3    H239828   6.122   6.241  16.086 -0.6484  0.2030  0.6458
 6113TIP3   OH239829   3.522   5.700  13.918 -0.1012  0.5589 -0.1313
 6113TIP3    H139830   3.480   5.632  13.971  0.0417  0.5512 -0.0255
 6113TIP3    H239831   3.450   5.755  13.886 -0.0210  1.7186  1.6569
 6114TIP3   OH239832   4.913   6.490   2.866 -0.1033  0.0499 -0.2080
 6114TIP3    H139833   4.936   6.581   2.884  0.2267 -0.0075 -0.3509
 6114TIP3    H239834   4.839   6.472   2.924  0.0712  0.2935  0.0910
 6115TIP3   OH239835   0.521   0.453  13.534  0.4357 -0.3312  0.3353
 6115TIP3    H139836   0.549   0.540  13.506  0.8109 -1.0769 -1.6744
 6115TIP3    H239837   0.593   0.420  13.587 -0.2319  1.0610  2.1443
 6116TIP3   OH239838   5.797   4.065  13.693  0.6094 -0.0136  0.3755
 6116TIP3    H139839   5.831   4.004  13.628  1.7412 -0.8015  1.6666
 6116TIP3    H239840   5.834   4.149  13.669  1.0275 -0.3063 -0.0126
 6117TIP3   OH239841   4.329   2.301  16.695  0.0465  0.2437 -0.0336
 6117TIP3    H139842   4.322   2.356  16.617  0.0171 -1.1765 -1.0523
 6117TIP3    H239843   4.423   2.289  16.708  0.0414  0.0115 -0.1992
 6118TIP3   OH239844   6.571   5.682  16.305  0.6331 -0.1521 -0.4500
 6118TIP3    H139845   6.633   5.754  16.297 -0.9590  1.3555  0.3486
 6118TIP3    H239846   6.494   5.711  16.255 -1.4341  0.3654  2.8616
 6119TIP3   OH239847   2.330   6.386  14.885  0.1565 -0.2939 -0.0431
 6119TIP3    H139848   2.399   6.336  14.929  1.6739  0.7821 -1.1530
 6119TIP3    H239849   2.343   6.476  14.914 -1.2192 -0.1779  0.2566
 6120TIP3   OH239850   2.595   0.344   1.050 -0.2412  0.1185 -0.0503
 6120TIP3    H139851   2.589   0.438   1.070  1.2935  0.5027 -1.3000
 6120TIP3    H239852   2.613   0.341   0.956 -1.2810 -1.4703 -0.2018
 6121TIP3   OH239853   6.044   1.889  14.145 -0.3221 -0.2933 -0.1390
 6121TIP3    H139854   6.078   1.977  14.163  1.2488 -1.4509  2.8166
 6121TIP3    H239855   6.050   1.880  14.050  0.5131  2.3726 -0.3787
 6122TIP3   OH239856   5.282   1.344   1.210 -0.0438 -0.7051 -0.1526
 6122TIP3    H139857   5.199   1.371   1.248  0.1197 -1.4768  0.7819
 6122TIP3    H239858   5.336   1.423   1.210 -1.2676  0.1639 -2.1475
 6123TIP3   OH239859   4.022   6.175   5.900  0.1106  0.0624 -0.0249
 6123TIP3    H139860   4.068   6.120   5.963 -0.9981  1.6527  2.2670
 6123TIP3    H239861   3.930   6.148   5.908  0.0245 -0.0741 -1.3579
 6124TIP3   OH239862   2.962   3.065  15.074  0.7204  0.0394 -0.0441
 6124TIP3    H139863   2.993   2.977  15.097 -0.6684 -0.9011 -1.7059
 6124TIP3    H239864   2.875   3.052  15.038  0.6331  2.0712 -0.6710
 6125TIP3   OH239865   2.852   0.448   0.831 -0.5450  0.1627  0.4390
 6125TIP3    H139866   2.927   0.502   0.856  2.0493 -2.0089 -2.3718
 6125TIP3    H239867   2.869   0.363   0.873 -0.3892 -0.9469 -1.8184
 6126TIP3   OH239868   5.005   3.000   4.914  0.4834 -0.7234 -0.4966
 6126TIP3    H139869   5.033   2.950   4.837  0.7476 -1.2398 -0.0655
 6126TIP3    H239870   5.055   2.962   4.987  0.6500  0.1326 -0.1587
 6127TIP3   OH239871   1.243   3.098  14.359 -0.5503 -0.0977 -0.6425
 6127TIP3    H139872   1.324   3.084  14.310 -0.2410  2.1508 -0.8338
 6127TIP3    H239873   1.273   3.131  14.444 -1.1269 -2.9070  0.6838
 6128TIP3   OH239874   1.585   3.440   0.604 -0.4315 -0.2149  0.1760
 6128TIP3    H139875   1.527   3.437   0.528  0.2876  0.0109 -0.3878
 6128TIP3    H239876   1.527   3.458   0.678 -1.4511 -2.6118  0.0151
 6129TIP3   OH239877   5.516   6.556  13.541  0.2043 -0.0267 -0.1177
 6129TIP3    H139878   5.499   6.638  13.494 -0.3646 -0.1758 -0.1704
 6129TIP3    H239879   5.567   6.583  13.618  1.3271  0.1866 -0.9286
 6130TIP3   OH239880   6.819   6.376   1.386  0.0948  0.5064  0.0359
 6130TIP3    H139881   6.794   6.338   1.302 -0.4139 -0.9682  0.8305
 6130TIP3    H239882   6.909   6.349   1.399  0.6213  1.8761 -0.6456
 6131TIP3   OH239883   1.064   3.266   1.065  0.3550  0.0684  0.6253
 6131TIP3    H139884   1.048   3.208   1.140 -1.4175  1.2673  1.1840
 6131TIP3    H239885   1.006   3.233   0.997  1.5908 -0.6950 -0.0950
 6132TIP3   OH239886   2.369   0.307  16.108 -0.1286 -0.3911  0.4833
 6132TIP3    H139887   2.354   0.250  16.032  1.1028  1.0854 -0.9041
 6132TIP3    H239888   2.456   0.282  16.140  0.5215  0.8595 -0.2821
 6133TIP3   OH239889   6.202   3.371   1.474 -0.3629 -0.2974 -0.3845
 6133TIP3    H139890   6.185   3.313   1.548  0.3732  0.2958  0.2658
 6133TIP3    H239891   6.272   3.329   1.425  1.5900  0.9936  1.2102
 6134TIP3   OH239892   3.673   2.237  11.991  0.1202 -0.2417 -0.3697
 6134TIP3    H139893   3.717   2.243  11.906 -1.1146 -0.3065 -1.0183
 6134TIP3    H239894   3.598   2.180  11.976 -1.9052  2.2081 -0.0203
 6135TIP3   OH239895   5.417   5.344   0.084 -0.0656 -0.4307  0.2052
 6135TIP3    H139896   5.462   5.418   0.127 -2.1247  2.5465 -2.5411
 6135TIP3    H239897   5.334   5.337   0.131  0.8584 -2.1919  1.6002
 6136TIP3   OH239898   4.368   0.735   5.876 -0.6485 -0.1182 -0.4839
 6136TIP3    H139899   4.460   0.755   5.860 -0.1765 -1.2734  0.7116
 6136TIP3    H239900   4.360   0.736   5.972 -1.3072 -2.4426 -0.4847
 6137TIP3   OH239901   1.155   4.107   5.545  0.3554  0.0931  0.1242
 6137TIP3    H139902   1.149   4.093   5.450  0.9706  3.2939 -0.4824
 6137TIP3    H239903   1.249   4.096   5.564  0.3048 -0.0844  0.2660
 6138TIP3   OH239904   2.844   1.894   0.699  0.5628  0.1252  0.2387
 6138TIP3    H139905   2.801   1.813   0.727  1.6153 -0.9670 -1.2332
 6138TIP3    H239906   2.804   1.962   0.753 -1.0859 -1.2296  0.7696
 6139TIP3   OH239907   2.252   3.235   3.475 -0.2113 -0.5100 -0.2413
 6139TIP3    H139908   2.335   3.226   3.427 -0.7268 -1.3210 -0.9915
 6139TIP3    H239909   2.221   3.145   3.486  0.0436 -0.3583  1.8855
 6140TIP3   OH239910   1.353   0.097   5.974  0.3210  0.1223  0.7857
 6140TIP3    H139911   1.336   0.135   5.888  1.1303  0.4560  0.7681
 6140TIP3    H239912   1.414   0.025   5.957  1.0056  0.6041  1.1463
 6141TIP3   OH239913   0.082   1.940   0.947  0.3456 -0.3112  0.4025
 6141TIP3    H139914   0.023   1.901   1.012  0.8991 -0.4607  0.8206
 6141TIP3    H239915   0.064   2.034   0.952  1.2062 -0.1974  1.6167
 6142TIP3   OH239916   6.773   2.086   2.422 -0.1095  0.4950  0.1133
 6142TIP3    H139917   6.678   2.088   2.413  0.0670  0.0516 -2.2005
 6142TIP3    H239918   6.788   2.032   2.499 -1.7289 -0.2777 -0.0797
 6143TIP3   OH239919   1.031   1.613   4.925  0.1024 -0.3048  0.4777
 6143TIP3    H139920   1.043   1.702   4.958 -1.0535 -0.0770  0.3260
 6143TIP3    H239921   1.119   1.582   4.905  0.5793  0.5324  1.2451
 6144TIP3   OH239922   3.588   0.973  11.973  0.5281 -0.4322 -0.1764
 6144TIP3    H139923   3.531   0.981  12.049 -1.2070  0.8601 -1.5633
 6144TIP3    H239924   3.605   1.063  11.946  2.1784 -0.8443 -0.5517
 6145TIP3   OH239925   5.803   3.466  13.247  0.0457 -0.4150 -0.5044
 6145TIP3    H139926   5.876   3.409  13.222  1.1660  0.5402  0.5036
 6145TIP3    H239927   5.844   3.551  13.263 -1.6048  0.7064 -2.0460
 6146TIP3   OH239928   2.829   5.279  12.025 -0.0780 -0.5602 -0.1091
 6146TIP3    H139929   2.770   5.227  11.971 -0.9185 -1.2586  1.4283
 6146TIP3    H239930   2.815   5.245  12.114 -0.4505  2.1062  0.8924
 6147TIP3   OH239931   2.260   0.989   2.801  0.4665 -0.0959  0.2374
 6147TIP3    H139932   2.273   1.040   2.880 -0.9474  0.5665  0.0609
 6147TIP3    H239933   2.222   0.906   2.832  0.4621 -0.0662  0.3115
 6148TIP3   OH239934   2.993   3.143   1.828  0.0410 -0.2466 -0.6938
 6148TIP3    H139935   2.908   3.186   1.835  1.3665  2.1178  2.0357
 6148TIP3    H239936   3.037   3.187   1.755  0.2317  0.9697  0.1469
 6149TIP3   OH239937   4.995   2.766  13.158  0.3118  0.6142 -0.3006
 6149TIP3    H139938   4.951   2.803  13.081 -0.5788  2.0442  0.8741
 6149TIP3    H239939   4.936   2.785  13.231  1.0054 -0.9984  0.7058
 6150TIP3   OH239940   6.615   5.321   3.275  0.0624 -0.3054 -0.1712
 6150TIP3    H139941   6.698   5.357   3.244  0.2402  0.0897  0.7545
 6150TIP3    H239942   6.561   5.316   3.196  0.6416  0.3308 -0.6196
 6151TIP3   OH239943   6.479   2.819   0.141  0.0124 -0.2174  0.5587
 6151TIP3    H139944   6.440   2.781   0.063 -2.3484  0.3887  1.3991
 6151TIP3    H239945   6.461   2.912   0.134  0.5251 -0.0494  1.4067
 6152TIP3   OH239946   3.335   6.235   5.732 -0.0770  0.0101  0.2332
 6152TIP3    H139947   3.334   6.319   5.777  0.1691  0.5360 -0.7145
 6152TIP3    H239948   3.405   6.186   5.775 -0.0432  0.3891  0.6184
 6153TIP3   OH239949   6.028   6.639   1.844 -0.9437 -0.0973 -0.0996
 6153TIP3    H139950   6.066   6.722   1.873 -2.1882 -0.2209  2.0092
 6153TIP3    H239951   5.944   6.664   1.804 -1.1972 -0.3035  0.2993
 6154TIP3   OH239952   2.040   4.780   2.956  0.5898  0.5851 -0.2320
 6154TIP3    H139953   2.043   4.687   2.981  0.8214  0.3438 -1.1180
 6154TIP3    H239954   2.035   4.827   3.039  3.0687 -0.1019  0.3800
 6155TIP3   OH239955   3.178   6.251  15.446 -0.0642 -0.2216  0.4574
 6155TIP3    H139956   3.181   6.343  15.420 -0.8465 -0.3575 -0.1327
 6155TIP3    H239957   3.089   6.223  15.423  0.0566 -1.0252  0.9662
 6156TIP3   OH239958   2.349   0.718   4.592 -0.0840  0.1627  0.2346
 6156TIP3    H139959   2.263   0.685   4.617 -0.0260 -1.1332 -1.1643
 6156TIP3    H239960   2.344   0.812   4.605 -1.6992  0.0956  0.2313
 6157TIP3   OH239961   2.297   2.975   4.067 -0.3809 -0.1573  0.1905
 6157TIP3    H139962   2.385   2.946   4.090  0.1707  0.8240 -0.6184
 6157TIP3    H239963   2.270   2.916   3.997  0.2052  0.4074 -0.5287
 6158TIP3   OH239964   3.349   4.282  14.909 -0.0344 -0.0302 -0.4767
 6158TIP3    H139965   3.424   4.228  14.883 -0.4176 -0.3261 -0.9902
 6158TIP3    H239966   3.343   4.271  15.004 -0.1107 -0.9102 -0.5778
 6159TIP3   OH239967   4.128   3.256  14.536  0.5280  0.1543 -0.5067
 6159TIP3    H139968   4.205   3.218  14.494  1.3549  1.7767 -0.4778
 6159TIP3    H239969   4.164   3.318  14.599 -0.8020  0.4124  0.0011
 6160TIP3   OH239970   1.482   3.067  14.217 -0.2355 -0.1070 -0.1904
 6160TIP3    H139971   1.556   3.011  14.242  0.9805  2.6100  2.6887
 6160TIP3    H239972   1.521   3.153  14.203 -2.3907  0.5870 -2.2577
 6161TIP3   OH239973   3.574   6.549   5.642 -0.4486  0.1068  0.4782
 6161TIP3    H139974   3.529   6.569   5.560  1.4220  2.0347 -0.1181
 6161TIP3    H239975   3.666   6.564   5.623  0.1608 -0.9867  2.4882
 6162TIP3   OH239976   1.020   5.566  13.894 -0.1825  0.3113  0.3222
 6162TIP3    H139977   0.953   5.590  13.957  1.1143  0.4191  1.6900
 6162TIP3    H239978   1.021   5.637  13.830 -0.1612  1.1785  1.2808
 6163TIP3   OH239979   0.865   4.056   2.349  0.5069 -0.0818 -0.0785
 6163TIP3    H139980   0.912   4.023   2.425 -1.8631 -1.7065  0.7480
 6163TIP3    H239981   0.856   4.150   2.365  1.3209 -0.1700  0.9226
 6164TIP3   OH239982   4.622   5.080   4.070 -0.0989  0.1651  0.6296
 6164TIP3    H139983   4.697   5.022   4.083 -0.6711 -0.4259  1.3990
 6164TIP3    H239984   4.586   5.091   4.158 -2.0294 -1.0770  0.0351
 6165TIP3   OH239985   2.851   5.149  11.410  0.1910 -0.0075  0.0798
 6165TIP3    H139986   2.762   5.128  11.382 -0.5952  2.8081  0.3434
 6165TIP3    H239987   2.845   5.238  11.445  3.5762  1.2270 -2.1659
 6166TIP3   OH239988   2.738   5.175  12.285 -0.3226  0.4992 -0.1405
 6166TIP3    H139989   2.656   5.219  12.308 -0.1131  1.6908 -1.5684
 6166TIP3    H239990   2.798   5.196  12.357 -1.0989  0.0858  0.6325
 6167TIP3   OH239991   4.713   3.011   2.088  0.0164  1.0704  0.0869
 6167TIP3    H139992   4.648   2.943   2.068  0.4380  0.6432  0.1732
 6167TIP3    H239993   4.660   3.089   2.109 -0.4503  0.9986 -0.8230
 6168TIP3   OH239994   4.159   0.449  11.243 -0.4930 -0.0356 -0.5693
 6168TIP3    H139995   4.253   0.432  11.245 -0.6617 -0.8326  1.5025
 6168TIP3    H239996   4.119   0.363  11.237 -1.1596  0.0592  1.9749
 6169TIP3   OH239997   3.299   6.008  15.913 -0.2521 -0.0411 -0.2290
 6169TIP3    H139998   3.300   5.923  15.871 -0.3515  0.0202 -0.3545
 6169TIP3    H239999   3.283   6.070  15.842  2.5941  0.3336 -0.6009
 6170TIP3   OH240000   4.748   2.290  12.767 -0.2224  0.3333  0.0396
 6170TIP3    H140001   4.743   2.379  12.801  0.1001  0.2051  0.4190
 6170TIP3    H240002   4.787   2.239  12.838 -3.8768 -0.8702  1.2871
 6171TIP3   OH240003   6.297   5.935   6.182 -0.3899 -0.2234  0.1346
 6171TIP3    H140004   6.315   5.959   6.273 -0.2671  0.2418 -0.0107
 6171TIP3    H240005   6.215   5.887   6.186  0.2844 -1.3633  0.6573
 6172TIP3   OH240006   2.588   3.809  11.730 -0.3464  0.5917  0.4957
 6172TIP3    H140007   2.642   3.862  11.789 -0.5170  1.0313  0.2628
 6172TIP3    H240008   2.571   3.867  11.655 -1.2243  0.4880  0.6110
 6173TIP3   OH240009   4.332   1.280   5.556 -0.8590  0.1491 -0.4158
 6173TIP3    H140010   4.288   1.354   5.513 -1.7645 -0.2223 -0.1527
 6173TIP3    H240011   4.306   1.287   5.648 -0.3838 -0.0917 -0.2646
 6174TIP3   OH240012   6.566   3.143  16.163 -0.1353  0.3502  0.0521
 6174TIP3    H140013   6.609   3.223  16.133  1.6750 -0.8826 -0.6980
 6174TIP3    H240014   6.473   3.167  16.170  0.3216  2.3935 -0.5134
 6175TIP3   OH240015   5.452   2.599  12.310 -0.1213  0.3140  0.4778
 6175TIP3    H140016   5.364   2.565  12.325  0.5439 -1.8858 -0.4190
 6175TIP3    H240017   5.504   2.562  12.381  0.8673 -1.6034 -1.1955
 6176TIP3   OH240018   6.728   5.631   6.264 -0.7982  0.5698  0.4894
 6176TIP3    H140019   6.752   5.702   6.206  0.7210 -0.1210  0.2392
 6176TIP3    H240020   6.667   5.577   6.213 -1.3284  1.2562  0.4005
 6177TIP3   OH240021   0.522   5.822  16.007  0.0006  0.2915  0.1045
 6177TIP3    H140022   0.563   5.763  15.944 -0.9190 -0.8069  0.5316
 6177TIP3    H240023   0.547   5.787  16.092 -0.0952  0.8332  0.3566
 6178TIP3   OH240024   1.001   3.307  15.018 -0.4602  0.2299 -0.1971
 6178TIP3    H140025   0.932   3.243  15.033  2.3478 -2.1601  3.5876
 6178TIP3    H240026   1.078   3.255  14.994  1.4654  2.2642  1.3535
 6179TIP3   OH240027   0.327   2.446   2.422  0.5783  0.0325 -0.2427
 6179TIP3    H140028   0.303   2.361   2.458  0.8997 -0.7131 -1.7598
 6179TIP3    H240029   0.423   2.445   2.419  0.7463  1.7365  2.7760
 6180TIP3   OH240030   1.396   2.368   4.859 -0.4172 -0.3350  0.0808
 6180TIP3    H140031   1.310   2.409   4.845  0.0816  1.2238  1.4637
 6180TIP3    H240032   1.377   2.274   4.865 -1.8683 -0.1163 -0.7666
 6181TIP3   OH240033   1.902   0.425   1.708 -0.3886  0.1491 -0.4679
 6181TIP3    H140034   1.961   0.421   1.783 -0.1627 -1.6997 -0.7243
 6181TIP3    H240035   1.914   0.514   1.673 -0.1446  0.8709  1.3728
 6182TIP3   OH240036   4.803   2.439   4.023 -0.2111 -0.3931 -0.0780
 6182TIP3    H140037   4.836   2.528   4.034  0.9899 -0.7896 -0.3958
 6182TIP3    H240038   4.773   2.436   3.932 -2.1050  0.2763  0.5070
 6183TIP3   OH240039   3.643   3.307   4.597 -0.3098  0.0266 -0.3603
 6183TIP3    H140040   3.565   3.359   4.615 -0.1959  0.2003 -0.3649
 6183TIP3    H240041   3.701   3.323   4.672  0.3631  1.1322 -1.0971
 6184TIP3   OH240042   3.308   2.496   5.874  0.2631 -0.3778  0.6549
 6184TIP3    H140043   3.276   2.484   5.964  2.3437 -3.5120  1.0535
 6184TIP3    H240044   3.255   2.437   5.821 -1.6137  2.1559 -0.4321
 6185TIP3   OH240045   2.253   0.154  14.948 -0.0443  0.1775  0.2162
 6185TIP3    H140046   2.217   0.096  14.881  1.5830 -0.1996 -0.3534
 6185TIP3    H240047   2.177   0.201  14.982 -1.1910 -1.2515 -0.3164
 6186TIP3   OH240048   5.154   3.754  13.509  0.6782  0.3057  0.4511
 6186TIP3    H140049   5.210   3.822  13.474  0.6921  0.6072  1.0577
 6186TIP3    H240050   5.154   3.768  13.604 -0.0113 -0.0011  0.5029
 6187TIP3   OH240051   4.576   4.048  11.083  0.2549  0.4286  0.3830
 6187TIP3    H140052   4.647   3.985  11.070  1.4042  2.0912 -1.6973
 6187TIP3    H240053   4.496   3.996  11.078  1.1949 -0.9366 -0.9752
 6188TIP3   OH240054   4.448   2.254  15.952 -0.2676  0.8501  0.3397
 6188TIP3    H140055   4.392   2.180  15.975  0.8270 -0.1682 -0.1537
 6188TIP3    H240056   4.537   2.222  15.971  0.4303  1.0319 -2.4172
 6189TIP3   OH240057   6.776   3.920  14.615  0.2296 -0.6792 -0.0401
 6189TIP3    H140058   6.791   3.829  14.592  1.9490 -0.1453 -1.1355
 6189TIP3    H240059   6.772   3.966  14.531 -1.5381  0.1269  0.4664
 6190TIP3   OH240060   2.775   2.844   0.504 -0.1387 -0.0909 -0.0946
 6190TIP3    H140061   2.840   2.827   0.435 -0.7069 -0.1841 -0.6180
 6190TIP3    H240062   2.708   2.777   0.490  0.1085 -0.5809  1.0257
 6191TIP3   OH240063   2.574   1.485   2.619  0.0884 -0.2964 -0.1009
 6191TIP3    H140064   2.495   1.432   2.609  0.8938 -1.2919 -1.3474
 6191TIP3    H240065   2.646   1.421   2.616  0.9950  0.7123 -0.0811
 6192TIP3   OH240066   3.436   6.232  13.967 -0.1543  0.0620 -0.5464
 6192TIP3    H140067   3.460   6.222  13.875  1.6038  1.3385 -0.2449
 6192TIP3    H240068   3.492   6.170  14.014 -1.5955 -1.1555 -0.3839
 6193TIP3   OH240069   0.279   2.021   0.381  0.2589 -0.1438  0.6372
 6193TIP3    H140070   0.297   1.933   0.412  0.8843 -1.0613 -2.2384
 6193TIP3    H240071   0.189   2.017   0.348  0.5382  0.1168 -0.1528
 6194TIP3   OH240072   0.647   6.763   4.234  0.4739 -0.3071 -0.2790
 6194TIP3    H140073   0.679   6.853   4.245  1.8453 -0.7322 -0.6613
 6194TIP3    H240074   0.578   6.770   4.168  0.6658  0.4573 -0.4043
 6195TIP3   OH240075   6.078   0.892  13.232 -0.2677 -0.1586 -0.2572
 6195TIP3    H140076   5.984   0.899  13.249 -0.3677 -4.1131  1.4697
 6195TIP3    H240077   6.118   0.896  13.318  1.1921  1.5167 -0.9947
 6196TIP3   OH240078   2.303   5.919   2.201 -0.4847 -0.5768 -0.2401
 6196TIP3    H140079   2.361   5.995   2.203  2.0195 -2.4131  0.0280
 6196TIP3    H240080   2.217   5.953   2.226  0.6886  2.0301  0.4051
 6197TIP3   OH240081   3.231   5.923  15.038  0.5228 -0.8980  0.0190
 6197TIP3    H140082   3.284   5.949  15.113  0.7616 -0.2539 -0.3721
 6197TIP3    H240083   3.226   5.828  15.044  1.0815 -0.8991  0.4862
 6198TIP3   OH240084   0.958   1.084  16.371  0.1112  0.0531 -0.1849
 6198TIP3    H140085   0.975   1.178  16.371  2.0412 -0.2558  0.8702
 6198TIP3    H240086   1.018   1.049  16.305  0.2422 -0.5490  0.2470
 6199TIP3   OH240087   0.706   1.690   0.120 -0.6067  0.1026 -0.3987
 6199TIP3    H140088   0.769   1.619   0.107  2.1277  2.5245 -0.9868
 6199TIP3    H240089   0.670   1.706   0.033 -2.0848 -1.2817 -0.0629
 6200TIP3   OH240090   6.249   3.312  17.116  0.0208  0.8111 -0.2670
 6200TIP3    H140091   6.330   3.273  17.082  0.3184  0.9573  0.2628
 6200TIP3    H240092   6.246   3.399  17.076  0.8151  1.3122  0.7440
 6201TIP3   OH240093   0.093   3.724   5.879 -0.0477  0.2397 -0.0608
 6201TIP3    H140094   0.141   3.801   5.910  1.9833 -0.8451 -0.4096
 6201TIP3    H240095   0.068   3.746   5.789 -0.3147  0.8561  0.1594
 6202TIP3   OH240096   6.621   2.392   3.529  0.1958 -0.0997 -0.1185
 6202TIP3    H140097   6.647   2.458   3.465  0.5601  0.7033  0.8505
 6202TIP3    H240098   6.702   2.344   3.548  0.3629  0.5328  0.7492
 6203TIP3   OH240099   6.605   4.785  10.465  0.0849 -0.2698 -0.1686
 6203TIP3    H140100   6.628   4.871  10.428 -2.3585  0.5912  0.2533
 6203TIP3    H240101   6.590   4.730  10.388 -2.7226  0.8996 -0.5002
 6204TIP3   OH240102   4.611   5.345  16.609 -0.4189  0.5854  0.6313
 6204TIP3    H140103   4.525   5.384  16.623 -0.2381  0.5036  1.9751
 6204TIP3    H240104   4.665   5.375  16.682  0.2950 -0.5293  0.5819
 6205TIP3   OH240105   1.623   4.331   2.752  0.3360 -0.1152 -0.0589
 6205TIP3    H140106   1.689   4.369   2.694 -0.7112 -1.1537 -1.9976
 6205TIP3    H240107   1.540   4.366   2.720 -0.4959 -2.6450 -0.8545
 6206TIP3   OH240108   1.499   0.542   2.803 -0.6594  0.2044  0.1839
 6206TIP3    H140109   1.457   0.462   2.835  0.6272 -1.1220 -1.3746
 6206TIP3    H240110   1.488   0.605   2.875  0.1333 -1.9868  2.2868
 6207TIP3   OH240111   2.864   6.508  13.294  0.5162 -0.3304  0.3955
 6207TIP3    H140112   2.834   6.420  13.272 -0.1236 -0.2797  1.0288
 6207TIP3    H240113   2.947   6.495  13.340 -0.0295 -0.6734  1.3135
 6208TIP3   OH240114   1.886   3.733   2.225  0.2675 -0.8191 -0.6897
 6208TIP3    H140115   1.927   3.749   2.310 -0.4755 -0.4569 -0.3908
 6208TIP3    H240116   1.940   3.781   2.162  0.5583 -0.7134 -0.3596
 6209TIP3   OH240117   1.921   5.440  16.235 -0.0342  0.3625  0.0470
 6209TIP3    H140118   2.017   5.443  16.237 -0.0205 -0.6086  1.5440
 6209TIP3    H240119   1.895   5.469  16.323 -1.0401 -1.6920  0.4465
 6210TIP3   OH240120   0.764   4.664  12.103 -0.4403  0.9483 -0.1466
 6210TIP3    H140121   0.715   4.712  12.036 -1.4254  3.4307  2.2547
 6210TIP3    H240122   0.750   4.714  12.184  2.3007 -0.8673  1.5463
 6211TIP3   OH240123   1.958   5.808   4.522 -0.3511 -0.3964  0.5623
 6211TIP3    H140124   1.917   5.742   4.579  0.7877 -0.2601  1.5597
 6211TIP3    H240125   2.043   5.769   4.498  0.0584  0.4344  0.6475
 6212TIP3   OH240126   6.704   1.137  11.826 -0.1890 -0.3789 -0.0085
 6212TIP3    H140127   6.635   1.182  11.776 -0.2965 -0.5780 -0.0409
 6212TIP3    H240128   6.712   1.188  11.906  0.1492  0.0812 -0.3301
 6213TIP3   OH240129   5.479   5.578  12.708 -0.5005  0.0446 -0.2417
 6213TIP3    H140130   5.448   5.646  12.768  0.0362  0.2782 -0.2251
 6213TIP3    H240131   5.573   5.595  12.700 -0.3200 -0.8742 -0.0175
 6214TIP3   OH240132   3.260   1.474  13.901  0.7435  0.1800 -0.3346
 6214TIP3    H140133   3.209   1.520  13.968  0.8862 -0.7530  0.4140
 6214TIP3    H240134   3.321   1.540  13.868  1.0886  0.4769  0.8828
 6215TIP3   OH240135   2.029   3.923  12.128  0.0995 -0.8922 -0.6164
 6215TIP3    H140136   1.978   3.984  12.075 -0.2482 -1.7459 -1.2861
 6215TIP3    H240137   1.995   3.932  12.216  0.1059 -0.0637 -0.6990
 6216TIP3   OH240138   1.310   4.323   6.029 -0.1520 -0.0518 -0.4191
 6216TIP3    H140139   1.266   4.403   6.057 -0.7258 -0.2692 -0.6904
 6216TIP3    H240140   1.346   4.286   6.110 -1.0730 -0.2384 -0.0921
 6217TIP3   OH240141   3.219   0.548   4.271 -0.6967 -0.3471  0.1358
 6217TIP3    H140142   3.182   0.636   4.273 -0.6053 -0.3132  0.4153
 6217TIP3    H240143   3.199   0.512   4.358 -2.4951 -1.3356 -0.6827
 6218TIP3   OH240144   2.717   0.949   5.594  0.2711 -0.7088 -0.3092
 6218TIP3    H140145   2.628   0.960   5.626 -0.6213  2.2636 -3.5286
 6218TIP3    H240146   2.772   0.963   5.671 -1.9334  0.0708  1.1698
 6219TIP3   OH240147   2.185   0.777  15.495  0.4071 -0.1716 -0.1633
 6219TIP3    H140148   2.173   0.860  15.448  1.1795 -0.6936 -1.3229
 6219TIP3    H240149   2.112   0.722  15.466  0.8656 -0.4826 -0.7473
 6220TIP3   OH240150   1.818   0.983   0.946 -0.2247 -0.4219 -0.5566
 6220TIP3    H140151   1.908   1.015   0.942  0.0173 -0.9745  0.1802
 6220TIP3    H240152   1.764   1.056   0.915  0.2575  0.9518  1.7513
 6221TIP3   OH240153   6.166   4.582   3.006  0.3631 -0.2409  0.2404
 6221TIP3    H140154   6.151   4.544   2.919  1.3849 -2.0109  0.8179
 6221TIP3    H240155   6.078   4.599   3.040 -0.0632 -0.5055 -0.7145
 6222TIP3   OH240156   1.219   1.797   1.481 -0.0930  0.1230  0.2838
 6222TIP3    H140157   1.159   1.778   1.553  0.0878  1.6328  0.8356
 6222TIP3    H240158   1.287   1.729   1.488 -0.6747 -0.4042  0.8557
 6223TIP3   OH240159   3.434   4.141   1.357 -0.0932  0.5620  0.5522
 6223TIP3    H140160   3.433   4.097   1.442  1.5427 -1.0843 -0.2541
 6223TIP3    H240161   3.343   4.166   1.342 -0.3422  1.2519  2.9609
 6224TIP3   OH240162   0.373   4.731  12.220  0.1730  0.2156  0.1288
 6224TIP3    H140163   0.435   4.672  12.178  0.3407  0.2570  0.3186
 6224TIP3    H240164   0.287   4.700  12.191  0.3878  1.9083 -2.4114
 6225TIP3   OH240165   2.165   1.696   6.002 -0.2375 -0.0779 -0.5176
 6225TIP3    H140166   2.073   1.719   5.996 -0.9890 -2.6671  0.4704
 6225TIP3    H240167   2.179   1.679   6.095  0.6639 -1.9472 -0.9778
 6226TIP3   OH240168   2.962   6.510  11.434 -0.1627  0.0771  0.3958
 6226TIP3    H140169   3.026   6.557  11.380 -0.8351  2.6030  1.7098
 6226TIP3    H240170   3.006   6.498  11.518 -0.5221 -0.3924  0.5193
 6227TIP3   OH240171   0.891   3.035   6.160  0.1884  0.1574  0.1716
 6227TIP3    H140172   0.808   3.004   6.197 -0.6627  1.6502 -0.4386
 6227TIP3    H240173   0.957   2.976   6.198 -0.8275  0.6026  2.7836
 6228TIP3   OH240174   5.176   3.532   0.977 -0.0342 -0.7353  0.2479
 6228TIP3    H140175   5.101   3.540   1.036  1.0263 -1.6426  1.7402
 6228TIP3    H240176   5.252   3.540   1.034  1.0325  0.7230 -1.3247
 6229TIP3   OH240177   3.245   0.648  17.221  0.2006 -0.0351  0.2618
 6229TIP3    H140178   3.192   0.689  17.289 -0.5401 -0.9720  0.2668
 6229TIP3    H240179   3.184   0.631  17.149  0.4142 -1.3962  0.3823
 6230TIP3   OH240180   2.843   1.156  13.224 -0.0227  0.8371 -0.1783
 6230TIP3    H140181   2.792   1.151  13.305 -0.4905  2.2572 -0.3752
 6230TIP3    H240182   2.817   1.078  13.175  0.7806 -0.4130  1.3183
 6231TIP3   OH240183   5.707   0.120  17.171  0.0336 -0.2837  0.1514
 6231TIP3    H140184   5.683   0.160  17.254 -1.5677  0.3714 -0.5990
 6231TIP3    H240185   5.693   0.189  17.106  3.0273 -0.2177 -0.4559
 6232TIP3   OH240186   6.447   2.031   6.528  0.4333  0.6826 -0.2718
 6232TIP3    H140187   6.474   1.947   6.492  2.1718  1.9032 -1.8803
 6232TIP3    H240188   6.355   2.040   6.500  0.4903 -0.2905 -0.7971
 6233TIP3   OH240189   2.991   1.723   2.782  0.6414 -0.3582 -0.3190
 6233TIP3    H140190   2.925   1.711   2.851  1.6581  1.6957  1.0696
 6233TIP3    H240191   2.948   1.779   2.718  0.5738 -0.1694 -0.1082
 6234TIP3   OH240192   0.364   2.988   3.003 -0.5245  0.5760  0.4002
 6234TIP3    H140193   0.443   2.934   3.008 -0.2778  0.8788 -0.2219
 6234TIP3    H240194   0.381   3.061   3.064 -0.8132  0.0216  1.1571
 6235TIP3   OH240195   3.383   5.544  14.107  0.5421 -0.2481 -0.0192
 6235TIP3    H140196   3.291   5.569  14.106  0.8516  0.9193  0.1282
 6235TIP3    H240197   3.382   5.451  14.130 -0.5543 -0.0293  0.8889
 6236TIP3   OH240198   2.910   2.520  16.033 -0.1743  0.0775  0.0658
 6236TIP3    H140199   2.889   2.444  16.088  1.0142  0.0409  0.4764
 6236TIP3    H240200   2.826   2.564  16.021 -0.5135 -0.1201  1.6069
 6237TIP3   OH240201   5.961   3.238   0.884 -0.2434  0.0595  0.6089
 6237TIP3    H140202   6.015   3.189   0.821  1.7696  2.5115  0.3218
 6237TIP3    H240203   5.914   3.302   0.830 -2.3809 -1.1195  1.0421
 6238TIP3   OH240204   2.552   1.874  14.500 -0.8029  0.3571  0.3162
 6238TIP3    H140205   2.578   1.790  14.461 -3.0213 -0.2167 -0.0027
 6238TIP3    H240206   2.578   1.940  14.436  1.8107  0.0196  0.9810
 6239TIP3   OH240207   1.561   6.666   2.183 -0.0070 -1.1177  0.1000
 6239TIP3    H140208   1.469   6.656   2.210  0.3306 -0.8028  1.3952
 6239TIP3    H240209   1.582   6.757   2.205  1.3842 -1.9193  2.2707
 6240TIP3   OH240210   4.784   5.678  10.280  0.1265  0.4106  0.4496
 6240TIP3    H140211   4.728   5.650  10.208  0.7712 -0.8503  0.4143
 6240TIP3    H240212   4.741   5.755  10.316 -0.3812  0.8617 -1.0755
 6241TIP3   OH240213   4.894   2.874  13.379  0.1733 -0.0865  0.4793
 6241TIP3    H140214   4.848   2.827  13.449  0.4415 -0.6456  0.2817
 6241TIP3    H240215   4.848   2.958  13.373 -1.6202 -1.1163 -0.5596
 6242TIP3   OH240216   5.534   1.641  14.789 -0.3912 -0.3729 -0.2858
 6242TIP3    H140217   5.452   1.688  14.806 -0.2678  0.5138 -2.0240
 6242TIP3    H240218   5.524   1.557  14.834 -0.2104  1.6609  3.8232
 6243TIP3   OH240219   2.742   3.746   2.343 -0.6829  0.4984  0.5246
 6243TIP3    H140220   2.689   3.691   2.286 -2.3307  1.9345  0.6377
 6243TIP3    H240221   2.701   3.739   2.429 -0.8664  1.8193  0.5585
 6244TIP3   OH240222   3.159   1.274  14.106 -0.7306  0.3630  0.0027
 6244TIP3    H140223   3.217   1.199  14.091 -0.7568  0.3050  0.1855
 6244TIP3    H240224   3.168   1.328  14.027 -2.2582 -0.8668 -1.0703
 6245TIP3   OH240225   5.023   5.896   1.119  0.2954  0.2200  0.2490
 6245TIP3    H140226   5.098   5.913   1.061  0.1631 -0.4003 -0.1063
 6245TIP3    H240227   4.967   5.973   1.107  0.1909  0.0280 -0.5768
 6246TIP3   OH240228   1.597   4.060   6.127  0.4193  0.4237 -0.0666
 6246TIP3    H140229   1.568   3.969   6.119  1.6701 -0.0075  0.1108
 6246TIP3    H240230   1.523   4.106   6.166 -0.2769 -0.4902 -0.2966
 6247TIP3   OH240231   0.541   2.877  15.760 -0.1254 -0.1886  0.2984
 6247TIP3    H140232   0.494   2.865  15.678  0.7771 -0.1937 -0.2358
 6247TIP3    H240233   0.617   2.819  15.753  1.4318  1.7831 -0.0687
 6248TIP3   OH240234   4.769   4.548   0.982  0.1286 -0.2112 -0.0111
 6248TIP3    H140235   4.707   4.494   0.934 -0.0413  1.1981 -1.4100
 6248TIP3    H240236   4.826   4.486   1.027  0.3278 -1.5744 -2.0962
 6249TIP3   OH240237   0.923   2.916   5.331 -0.1285  0.1305  0.4309
 6249TIP3    H140238   0.880   2.874   5.256 -1.8188 -0.5318  1.7255
 6249TIP3    H240239   1.011   2.937   5.300 -0.5398 -0.8473 -1.4839
 6250TIP3   OH240240   5.100   2.754  11.202 -0.0603  0.0943  0.2987
 6250TIP3    H140241   5.097   2.811  11.279  1.9010 -0.2106  0.6071
 6250TIP3    H240242   5.185   2.711  11.206 -0.5955 -1.1674 -1.1660
 6251TIP3   OH240243   4.352   0.473   2.211  0.0492  0.0677 -0.0043
 6251TIP3    H140244   4.282   0.409   2.224 -0.2613  0.0944 -1.4791
 6251TIP3    H240245   4.432   0.421   2.211 -0.1266 -0.2048 -0.2375
 6252TIP3   OH240246   4.590   0.912   3.182 -0.4591  0.3257 -0.5470
 6252TIP3    H140247   4.590   0.985   3.244 -0.1495  0.1384 -0.3277
 6252TIP3    H240248   4.644   0.944   3.109 -1.6108  0.9115 -1.1544
 6253TIP3   OH240249   5.622   0.316  17.001  0.3621 -0.3720  0.3373
 6253TIP3    H140250   5.550   0.316  16.938 -0.4476  0.6361  1.2487
 6253TIP3    H240251   5.675   0.392  16.977 -0.8954  1.0386  1.9099
 6254TIP3   OH240252   4.404   4.168   2.104 -0.5811  0.4637  0.3770
 6254TIP3    H140253   4.463   4.230   2.147 -0.7333  0.3111  0.8125
 6254TIP3    H240254   4.409   4.190   2.011 -0.9246  1.3723  0.5701
 6255TIP3   OH240255   6.354   3.902  14.049  0.9703 -0.0633 -0.1706
 6255TIP3    H140256   6.264   3.896  14.080  0.8261  0.7028 -0.4441
 6255TIP3    H240257   6.406   3.918  14.128  0.8100  0.0406 -0.0873
 6256TIP3   OH240258   0.615   3.128  14.135 -0.2582  0.1065  0.4098
 6256TIP3    H140259   0.545   3.079  14.177  1.1908 -2.5918 -0.2524
 6256TIP3    H240260   0.691   3.070  14.137  1.3205  2.0342 -1.0310
 6257TIP3   OH240261   2.763   4.306   6.556  0.0263 -0.0985 -0.0009
 6257TIP3    H140262   2.703   4.240   6.522 -1.4053  0.2881  1.7243
 6257TIP3    H240263   2.707   4.373   6.595  1.5059  1.3614 -0.3062
 6258TIP3   OH240264   6.302   3.225  16.145  0.7207 -0.1068  0.0506
 6258TIP3    H140265   6.265   3.256  16.227  1.1517  1.0501 -0.1922
 6258TIP3    H240266   6.281   3.293  16.081  2.5357  0.1921 -0.2664
 6259TIP3   OH240267   0.759   6.227  13.475  0.7243 -0.0019  0.0147
 6259TIP3    H140268   0.776   6.224  13.381  0.8238  2.2697 -0.0789
 6259TIP3    H240269   0.780   6.317  13.500  0.6258 -0.5607  2.2026
 6260TIP3   OH240270   6.769   2.087  11.471 -0.8216  0.2996 -0.3635
 6260TIP3    H140271   6.860   2.082  11.443 -1.1950 -1.0436 -1.3973
 6260TIP3    H240272   6.719   2.058  11.394 -2.0936  0.6174  0.3375
 6261TIP3   OH240273   1.694   1.577  14.260  0.1785 -0.1894  0.3584
 6261TIP3    H140274   1.670   1.639  14.329 -1.1291 -1.0691  0.6969
 6261TIP3    H240275   1.635   1.503  14.272  0.4028 -0.6456 -1.2847
 6262TIP3   OH240276   3.533   3.127   2.943 -0.3298 -0.2461 -0.3763
 6262TIP3    H140277   3.586   3.192   2.897 -0.3047  0.3088  0.4190
 6262TIP3    H240278   3.596   3.078   2.997 -0.6493  0.5870  0.7687
 6263TIP3   OH240279   6.118   5.641  16.719 -0.0728  0.2186  0.1727
 6263TIP3    H140280   6.183   5.571  16.713 -0.0857  0.3069 -1.1424
 6263TIP3    H240281   6.037   5.597  16.745 -0.3755 -0.4326 -1.8534
 6264TIP3   OH240282   4.081   0.578  15.883 -0.0958 -0.3486  0.5465
 6264TIP3    H140283   4.026   0.530  15.944  0.0204 -2.2398 -0.7944
 6264TIP3    H240284   4.099   0.661  15.927 -2.4878 -0.4415  1.7759
 6265TIP3   OH240285   2.308   0.120  13.374  0.5218 -0.3486  0.0866
 6265TIP3    H140286   2.230   0.067  13.390  0.0488  0.6301  1.0759
 6265TIP3    H240287   2.294   0.200  13.425  1.6224  0.3544 -0.6931
 6266TIP3   OH240288   5.267   1.430  16.462  0.3320 -0.2563 -0.5189
 6266TIP3    H140289   5.196   1.455  16.521  0.1678 -1.3029 -0.2606
 6266TIP3    H240290   5.271   1.501  16.398  0.6356  0.9888  0.8534
 6267TIP3   OH240291   5.973   0.107  12.114 -0.0840 -0.0977  0.2103
 6267TIP3    H140292   6.055   0.143  12.147  1.5292 -2.1605 -1.4151
 6267TIP3    H240293   5.953   0.160  12.037 -0.9818  1.2278  1.3358
 6268TIP3   OH240294   4.771   1.361   0.942 -0.5417  0.1389 -0.0775
 6268TIP3    H140295   4.846   1.409   0.905 -0.2082 -1.0572 -0.9781
 6268TIP3    H240296   4.811   1.283   0.981 -1.1955  0.0896  0.4829
 6269TIP3   OH240297   4.777   0.419   1.979 -0.1720  0.2264 -0.8319
 6269TIP3    H140298   4.766   0.439   2.071  2.2541  0.1341 -0.4982
 6269TIP3    H240299   4.803   0.327   1.977  1.1369  0.5953 -1.5039
 6270TIP3   OH240300   5.069   1.432  16.118  0.0653 -0.4202  0.4892
 6270TIP3    H140301   5.034   1.400  16.201 -1.1507  2.0844  0.9775
 6270TIP3    H240302   5.070   1.527  16.127  0.8320 -0.1464 -2.0088
 6271TIP3   OH240303   6.805   5.745   5.658 -0.1007  0.2336 -0.3063
 6271TIP3    H140304   6.822   5.767   5.566 -2.2802  1.0524 -0.5506
 6271TIP3    H240305   6.820   5.651   5.663  1.3748  0.3960 -1.1690
 6272TIP3   OH240306   5.366   2.206  12.465  0.0112  0.6158 -0.1276
 6272TIP3    H140307   5.375   2.297  12.493 -0.0907  1.0663 -1.5202
 6272TIP3    H240308   5.456   2.173  12.460  0.2245  1.4231 -2.0921
 6273TIP3   OH240309   4.724   1.837  15.984  0.4294 -0.0225 -0.1213
 6273TIP3    H140310   4.673   1.803  15.910 -0.4574  0.0924  0.4299
 6273TIP3    H240311   4.731   1.764  16.045 -0.7160  0.5095  0.6625
 6274TIP3   OH240312   4.208   5.905  14.914  0.5214 -0.3553  0.6137
 6274TIP3    H140313   4.241   5.984  14.957  2.0485 -0.6963  0.1264
 6274TIP3    H240314   4.265   5.835  14.947  2.1947 -0.5206 -2.4103
 6275TIP3   OH240315   2.061   5.822  13.637  0.3744 -0.0352 -0.3391
 6275TIP3    H140316   2.094   5.911  13.650 -1.5532  0.7038 -0.4453
 6275TIP3    H240317   2.028   5.821  13.548 -0.5620 -0.5419  0.0087
 6276TIP3   OH240318   0.443   5.525  14.978  0.2175  0.6028 -0.5534
 6276TIP3    H140319   0.366   5.546  15.031 -0.0198 -0.8444 -0.3024
 6276TIP3    H240320   0.436   5.431  14.962  1.2721  0.6905 -1.5935
 6277TIP3   OH240321   4.733   3.256   2.618 -0.5125  0.3430 -0.2302
 6277TIP3    H140322   4.683   3.248   2.699  0.0702 -1.0717 -0.0129
 6277TIP3    H240323   4.785   3.336   2.629  2.6272 -1.9751  2.4750
 6278TIP3   OH240324   3.866   6.442   1.793  0.2876  0.5748 -0.0592
 6278TIP3    H140325   3.945   6.444   1.848  0.1386 -0.2708  0.1962
 6278TIP3    H240326   3.871   6.359   1.747  1.5522  2.2503 -3.0777
 6279TIP3   OH240327   6.627   0.288   6.102 -0.1906  0.0971 -0.0423
 6279TIP3    H140328   6.671   0.350   6.044 -1.8951  0.3459 -1.0700
 6279TIP3    H240329   6.671   0.300   6.186  0.8855  1.2190 -0.7406
 6280TIP3   OH240330   3.093   5.026  15.660 -0.0495  0.2159  0.0280
 6280TIP3    H140331   3.007   5.010  15.698 -0.4468 -1.5989 -1.5708
 6280TIP3    H240332   3.145   4.950  15.684  0.5323  0.3968 -0.6302
 6281TIP3   OH240333   2.244   2.832   2.005  0.4707  0.2642 -0.0555
 6281TIP3    H140334   2.292   2.909   2.036  0.7895  0.1438 -0.2518
 6281TIP3    H240335   2.303   2.790   1.943  0.2581 -0.0880 -0.0216
 6282TIP3   OH240336   6.333   5.646   2.650 -0.0916 -0.2659 -0.8390
 6282TIP3    H140337   6.376   5.584   2.708 -0.9432 -0.7388 -0.6947
 6282TIP3    H240338   6.371   5.629   2.564  0.8482  0.1264 -0.5046
 6283TIP3   OH240339   1.445   0.356   0.009  0.5552  0.0851  0.1941
 6283TIP3    H140340   1.510   0.304  -0.039 -0.8190 -0.3441 -1.2188
 6283TIP3    H240341   1.425   0.430  -0.049 -1.1848 -0.4845  0.0453
 6284TIP3   OH240342   0.500   0.941  14.719  0.4388 -0.1754  0.0954
 6284TIP3    H140343   0.417   0.946  14.766  1.0095  0.1793  1.0970
 6284TIP3    H240344   0.562   0.907  14.784  1.4114  1.0753 -0.1601
 6285TIP3   OH240345   0.058   3.867  13.213  0.5840  0.0930 -0.5855
 6285TIP3    H140346   0.125   3.934  13.227  0.3347  0.2605 -0.1810
 6285TIP3    H240347   0.079   3.799  13.276  1.5052 -0.7371 -1.7577
 6286TIP3   OH240348   4.833   0.555   0.735 -0.0247  0.7558  0.7550
 6286TIP3    H140349   4.773   0.511   0.795  0.8542 -0.9648  0.4087
 6286TIP3    H240350   4.917   0.554   0.781  0.4024  0.4356 -0.0233
 6287TIP3   OH240351   3.240   2.584   0.989  0.1240  0.0633 -0.4851
 6287TIP3    H140352   3.267   2.515   1.050 -2.0476  0.2757  0.7283
 6287TIP3    H240353   3.291   2.566   0.910 -0.0345 -2.6576 -0.0228
 6288TIP3   OH240354   1.495   0.374   2.090  0.6771  0.4891 -0.2586
 6288TIP3    H140355   1.511   0.453   2.142  4.2168 -0.2603 -0.1154
 6288TIP3    H240356   1.412   0.340   2.123  0.4108  2.7208  1.4741
 6289TIP3   OH240357   0.437   3.225  12.853 -0.1342  0.1019 -0.4356
 6289TIP3    H140358   0.496   3.298  12.874  0.7035 -0.1940 -1.6794
 6289TIP3    H240359   0.399   3.248  12.768  0.3720 -1.0413 -0.9823
 6290TIP3   OH240360   3.628   4.611   1.440  0.0449 -0.1871 -0.2672
 6290TIP3    H140361   3.583   4.535   1.403 -0.1258 -0.3297  0.2227
 6290TIP3    H240362   3.659   4.580   1.525 -0.5170  0.4662  0.1816
 6291TIP3   OH240363   0.722   0.349  13.729  0.3783 -0.3856 -0.3764
 6291TIP3    H140364   0.801   0.401  13.716  0.4937 -0.6548 -0.7652
 6291TIP3    H240365   0.742   0.265  13.688  0.1353 -0.6816  0.1088
 6292TIP3   OH240366   1.325   3.606   5.013 -0.3860  0.0081 -0.0350
 6292TIP3    H140367   1.337   3.616   5.107 -3.1521 -0.1645  0.3690
 6292TIP3    H240368   1.330   3.695   4.978  1.3693  0.0007  0.1630
 6293TIP3   OH240369   4.392   3.561  15.546 -0.3071 -0.0189  0.3344
 6293TIP3    H140370   4.301   3.536  15.560 -0.5480  0.8726  0.4041
 6293TIP3    H240371   4.436   3.480  15.519 -1.3219 -0.2579 -0.6413
 6294TIP3   OH240372   5.271   6.289  10.683  0.1297  0.2250  0.2398
 6294TIP3    H140373   5.322   6.208  10.682  0.2138  0.2795 -0.0112
 6294TIP3    H240374   5.209   6.279  10.611  1.0433  0.9579 -0.6597
 6295TIP3   OH240375   4.869   5.777  14.498  0.2058 -0.4624  0.1218
 6295TIP3    H140376   4.963   5.783  14.518  0.4703  0.5148 -1.3642
 6295TIP3    H240377   4.826   5.803  14.580  1.2308 -0.5720  0.7080
 6296TIP3   OH240378   4.420   4.305  11.636 -0.3132  0.3402 -0.6067
 6296TIP3    H140379   4.395   4.285  11.726 -0.8487  4.4542  0.2410
 6296TIP3    H240380   4.509   4.270  11.628 -0.9086 -1.6373  0.8922
 6297TIP3   OH240381   0.911   6.722   0.766  0.1564 -0.1990  0.4192
 6297TIP3    H140382   0.974   6.660   0.729  1.0689  0.9925 -0.0780
 6297TIP3    H240383   0.846   6.735   0.698 -0.0573 -0.6310  0.5383
 6298TIP3   OH240384   0.704   5.345  15.279 -0.2040 -0.9029 -0.0309
 6298TIP3    H140385   0.759   5.270  15.304  0.0443 -0.8877 -0.5190
 6298TIP3    H240386   0.757   5.392  15.213  0.1782  0.3830  1.1613
 6299TIP3   OH240387   5.279   3.488   3.312  0.4503  0.3291  0.3967
 6299TIP3    H140388   5.273   3.581   3.336 -0.3606  0.3309  0.2080
 6299TIP3    H240389   5.356   3.483   3.256 -0.8644  1.3414 -1.5760
 6300TIP3   OH240390   5.341   0.964  12.196  0.4585  0.5248  0.5990
 6300TIP3    H140391   5.262   1.013  12.171 -0.3465 -1.3308 -0.5845
 6300TIP3    H240392   5.412   1.027  12.182 -0.3803  0.8814 -2.6164
 6301TIP3   OH240393   4.774   4.535  11.505 -0.4054  0.8886  0.1006
 6301TIP3    H140394   4.764   4.484  11.585 -1.0012  1.0837  0.1544
 6301TIP3    H240395   4.867   4.529  11.483 -0.1124  1.4187  1.1896
 6302TIP3   OH240396   2.312   4.953  14.556  0.2282  0.1114  0.2629
 6302TIP3    H140397   2.235   4.897  14.552  0.0839  0.0744  2.8106
 6302TIP3    H240398   2.295   5.013  14.629  2.1048  0.8176  0.1566
 6303TIP3   OH240399   0.785   6.215   2.867 -0.6675 -0.4549  0.0435
 6303TIP3    H140400   0.821   6.135   2.826 -1.3415 -0.2724 -0.9266
 6303TIP3    H240401   0.696   6.191   2.892 -0.4566 -0.3783  0.8692
 6304TIP3   OH240402   4.015   2.409   0.951  0.0078 -0.4752  0.5340
 6304TIP3    H140403   3.962   2.332   0.967  0.0226 -0.7031 -0.4690
 6304TIP3    H240404   4.080   2.381   0.887 -0.1055  0.4125  0.0111
 6305TIP3   OH240405   5.945   3.666  12.148 -0.5091 -0.1991 -0.4629
 6305TIP3    H140406   5.992   3.736  12.102  0.2367 -0.4937 -0.1633
 6305TIP3    H240407   5.938   3.697  12.239 -1.1008 -0.0549 -0.5568
 6306TIP3   OH240408   4.401   2.294   1.726  1.1607  0.0078 -0.4535
 6306TIP3    H140409   4.363   2.208   1.707  0.7581  0.3279 -1.1188
 6306TIP3    H240410   4.329   2.355   1.708  1.1191  0.4089  0.9979
 6307TIP3   OH240411   4.339   3.440   4.861 -0.3351  0.9860 -0.5672
 6307TIP3    H140412   4.250   3.443   4.824 -0.7274  2.2582  0.4410
 6307TIP3    H240413   4.396   3.457   4.786 -0.9709  0.6774 -1.1309
 6308TIP3   OH240414   0.992   0.836   6.475  0.2551  0.1596  0.1965
 6308TIP3    H140415   0.943   0.902   6.522 -0.0113 -0.7232  1.1676
 6308TIP3    H240416   0.941   0.819   6.396 -0.9912 -0.7094  1.1706
 6309TIP3   OH240417   6.755   6.146  15.305 -0.2772 -0.6059 -0.2359
 6309TIP3    H140418   6.682   6.090  15.333  1.4968 -1.9226  1.9403
 6309TIP3    H240419   6.833   6.094  15.324  1.3021  1.5853 -0.6407
 6310TIP3   OH240420   1.672   3.818  16.678 -0.5459 -0.1874  0.4849
 6310TIP3    H140421   1.688   3.826  16.772 -0.2595 -2.3779  0.6490
 6310TIP3    H240422   1.723   3.741  16.652  1.3640  1.8181 -1.9581
 6311TIP3   OH240423   0.585   5.518   2.778  0.2321 -0.1208 -0.3148
 6311TIP3    H140424   0.641   5.580   2.731  0.1739  0.8353  0.8565
 6311TIP3    H240425   0.647   5.457   2.819  0.4843  1.1505  1.2807
 6312TIP3   OH240426   3.847   4.224   3.317  0.2593 -0.1409  0.5796
 6312TIP3    H140427   3.932   4.223   3.273 -0.4939 -0.0475 -0.9022
 6312TIP3    H240428   3.809   4.309   3.294 -0.1858 -0.1330  1.3368
 6313TIP3   OH240429   3.462   2.343   3.667  0.3285  0.1532 -0.0986
 6313TIP3    H140430   3.457   2.358   3.761 -0.7111  1.7802 -0.3881
 6313TIP3    H240431   3.421   2.258   3.654 -1.5170  0.9086  0.6852
 6314TIP3   OH240432   3.131   6.462   5.991 -0.0710 -0.7540 -0.2795
 6314TIP3    H140433   3.055   6.517   6.010  0.9821  1.1233 -1.3167
 6314TIP3    H240434   3.206   6.514   6.021  0.9251 -1.8331 -0.8649
 6315TIP3   OH240435   2.732   5.057   0.812  0.2017 -0.0188  0.1762
 6315TIP3    H140436   2.714   5.111   0.890 -1.1999 -1.0500  0.5781
 6315TIP3    H240437   2.811   5.007   0.836  0.7195  0.8422  0.3095
 6316TIP3   OH240438   5.878   4.596   5.281 -0.4467  0.5100 -0.1468
 6316TIP3    H140439   5.876   4.621   5.373  1.1251 -0.8088  0.2606
 6316TIP3    H240440   5.792   4.556   5.265 -0.6653  0.6031  0.7816
 6317TIP3   OH240441   3.901   1.113   6.029 -0.2285  0.1588 -0.0948
 6317TIP3    H140442   3.813   1.081   6.008 -0.3427 -0.4116  1.1557
 6317TIP3    H240443   3.900   1.205   6.004 -0.7138 -0.1920 -1.4275
 6318TIP3   OH240444   5.619   6.129  10.595 -0.3316 -0.3273 -1.0239
 6318TIP3    H140445   5.615   6.220  10.626  2.0577 -0.3950 -0.4237
 6318TIP3    H240446   5.544   6.086  10.636 -1.1683  1.2491 -0.8788
 6319TIP3   OH240447   3.125   3.845  12.317 -0.4301  0.2994  0.3886
 6319TIP3    H140448   3.187   3.781  12.281 -2.2400 -0.4943 -1.4234
 6319TIP3    H240449   3.160   3.930  12.290  1.2883  0.0371  1.6971
 6320TIP3   OH240450   2.846   0.891   0.518 -0.4313 -0.1066  0.0126
 6320TIP3    H140451   2.861   0.966   0.461  0.5807 -1.1391 -1.0976
 6320TIP3    H240452   2.845   0.929   0.607  0.3389  1.1763 -0.5084
 6321TIP3   OH240453   5.120   2.750  16.285  0.5192  0.7698 -0.1398
 6321TIP3    H140454   5.198   2.696  16.272 -0.5966 -0.0865 -3.9135
 6321TIP3    H240455   5.072   2.707  16.355  1.9315 -0.4486  0.1006
 6322TIP3   OH240456   3.630   6.308   4.017 -0.1512  0.5244  0.8513
 6322TIP3    H140457   3.549   6.297   4.068 -0.3651 -1.0290  0.1766
 6322TIP3    H240458   3.622   6.247   3.945  0.7609  1.7680 -0.3338
 6323TIP3   OH240459   6.683   2.884  15.019  0.1365 -0.4933 -0.8155
 6323TIP3    H140460   6.643   2.886  14.932 -1.2473  1.3343 -0.1706
 6323TIP3    H240461   6.712   2.974  15.035 -0.9288 -0.4546  1.1632
 6324TIP3   OH240462   0.140   6.377  14.922  0.1851 -0.4187  0.2867
 6324TIP3    H140463   0.085   6.335  14.988 -2.4686  1.0809 -0.8810
 6324TIP3    H240464   0.164   6.461  14.961  2.0523 -1.2371  0.9583
 6325TIP3   OH240465   1.128   0.664  16.319  0.3047  0.0291  0.7651
 6325TIP3    H140466   1.126   0.574  16.354 -2.5412  0.4121  1.7197
 6325TIP3    H240467   1.036   0.690  16.314  1.0188  2.4345 -0.7793
 6326TIP3   OH240468   2.225   1.839   0.091  0.2224 -0.3251  0.5209
 6326TIP3    H140469   2.260   1.869   0.007 -0.0325 -2.0188 -0.2188
 6326TIP3    H240470   2.172   1.912   0.122 -0.1212  0.1384 -1.0741
 6327TIP3   OH240471   1.251   5.758  15.109  0.1394 -0.5187 -0.5214
 6327TIP3    H140472   1.307   5.835  15.099  0.9529 -1.0543 -0.1682
 6327TIP3    H240473   1.165   5.787  15.079  0.6686  0.2342 -1.3454
 6328TIP3   OH240474   1.258   1.176   4.485 -0.4158  0.4113  0.5767
 6328TIP3    H140475   1.203   1.223   4.548 -1.3066  1.8333 -1.2259
 6328TIP3    H240476   1.332   1.234   4.469 -0.6860  0.4985 -0.4017
 6329TIP3   OH240477   1.497   6.742  14.946  1.0380 -0.1387  0.0189
 6329TIP3    H140478   1.436   6.780  15.009  2.0936  0.4464  0.7196
 6329TIP3    H240479   1.448   6.673  14.902 -0.8032  1.7626 -0.9776
 6330TIP3   OH240480   1.624   0.153  11.893 -0.1653  0.5366 -0.2158
 6330TIP3    H140481   1.696   0.111  11.847  0.4340 -0.9468  2.0505
 6330TIP3    H240482   1.613   0.237  11.847  2.7938  0.6733 -0.7614
 6331TIP3   OH240483   4.181   0.948   4.753 -0.1805 -0.3484 -0.7707
 6331TIP3    H140484   4.183   0.853   4.765  1.2238 -0.0026  2.0985
 6331TIP3    H240485   4.248   0.965   4.688  0.1751 -1.2405 -0.6486
 6332TIP3   OH240486   4.513   5.617   3.981 -0.3365 -0.1234 -0.3109
 6332TIP3    H140487   4.605   5.612   4.004 -0.5784  0.7666  0.8794
 6332TIP3    H240488   4.509   5.588   3.889  1.2234  0.7241 -0.6502
 6333TIP3   OH240489   3.805   2.740   4.917 -0.3855  0.0461  0.3757
 6333TIP3    H140490   3.820   2.734   5.011 -0.3974 -1.1141  0.3115
 6333TIP3    H240491   3.723   2.694   4.902  0.4590 -1.2250 -0.4157
 6334TIP3   OH240492   1.011   4.271  14.332  0.7188  0.8561  0.2673
 6334TIP3    H140493   0.947   4.324  14.379  0.3257  0.3907  0.2625
 6334TIP3    H240494   0.964   4.190  14.310  0.3029  1.8272 -2.6025
 6335TIP3   OH240495   6.600   3.067   2.790  0.3558 -0.3861  0.4667
 6335TIP3    H140496   6.587   3.111   2.874  1.2691 -0.0913  0.4537
 6335TIP3    H240497   6.597   3.137   2.725  1.3701 -0.3902  0.4078
 6336TIP3   OH240498   4.391   5.913  11.797  0.2156  0.6810 -0.1550
 6336TIP3    H140499   4.365   5.837  11.849  1.3811  0.8584  0.7205
 6336TIP3    H240500   4.365   5.988  11.850 -0.9357  0.8975 -1.0200
 6337TIP3   OH240501   0.401   5.458   6.025 -0.1990 -0.0291  0.1572
 6337TIP3    H140502   0.441   5.379   6.062 -0.7171  0.1139  1.0361
 6337TIP3    H240503   0.449   5.530   6.065 -0.2255  0.1132 -0.0671
 6338TIP3   OH240504   0.501   5.141   6.434  0.1825 -0.3406 -0.0620
 6338TIP3    H140505   0.506   5.068   6.372  1.8867 -0.6416  0.3936
 6338TIP3    H240506   0.551   5.211   6.393  0.2575 -0.1217  0.3973
 6339TIP3   OH240507   5.329   2.717  10.642  0.0564 -0.4091  0.4989
 6339TIP3    H140508   5.360   2.756  10.560  2.2480 -1.4342  0.7874
 6339TIP3    H240509   5.243   2.682  10.622  0.5782 -0.6419 -1.3809
 6340TIP3   OH240510   2.500   2.517   2.059  0.0147  0.4139  0.2359
 6340TIP3    H140511   2.503   2.562   1.975  0.6351  1.1728  0.6610
 6340TIP3    H240512   2.432   2.450   2.048 -0.5775  1.1364 -0.5551
 6341TIP3   OH240513   6.298   5.883  16.503 -0.0566 -0.4793 -0.0493
 6341TIP3    H140514   6.252   5.803  16.476  0.6903 -0.7720 -0.4726
 6341TIP3    H240515   6.234   5.953  16.489 -1.4398 -1.2077  2.2559
 6342TIP3   OH240516   2.790   1.154  17.263  0.3123  0.4325 -0.1666
 6342TIP3    H140517   2.773   1.083  17.325  0.8194  0.6939  0.2744
 6342TIP3    H240518   2.712   1.156  17.208 -0.9307  1.3504  1.5675
 6343TIP3   OH240519   1.800   0.439  16.684  0.4293  0.0055  0.4961
 6343TIP3    H140520   1.723   0.464  16.633  1.1768 -0.2468 -0.7682
 6343TIP3    H240521   1.861   0.511  16.673 -0.0268  0.7201  2.4051
 6344TIP3   OH240522   1.714   1.473   0.948 -0.3157 -0.5197  0.0668
 6344TIP3    H140523   1.629   1.445   0.981  0.1931 -1.9109  0.2539
 6344TIP3    H240524   1.712   1.568   0.952 -2.1829 -0.5067 -0.7490
 6345TIP3   OH240525   4.976   6.544  12.992  0.3308  0.7145  0.0122
 6345TIP3    H140526   5.036   6.557  13.065  1.5394 -0.7074 -0.7083
 6345TIP3    H240527   4.929   6.463  13.013  2.6490 -1.2324 -2.0694
 6346TIP3   OH240528   1.181   2.338  16.061 -0.2401  0.1721 -0.7474
 6346TIP3    H140529   1.097   2.326  16.106  0.0987 -0.4328 -0.2720
 6346TIP3    H240530   1.173   2.287  15.981 -0.2069 -0.1571 -0.5419
 6347TIP3   OH240531   4.041   0.455  13.894  0.1619  0.2695  0.0952
 6347TIP3    H140532   4.012   0.546  13.886 -0.7683 -0.1711 -1.7363
 6347TIP3    H240533   4.068   0.431  13.806  0.7489 -1.1246  0.6524
 6348TIP3   OH240534   1.147   3.980   5.300 -0.0426 -0.0094 -0.7048
 6348TIP3    H140535   1.215   4.013   5.241  0.0476  0.3771 -0.3844
 6348TIP3    H240536   1.164   3.886   5.306  1.4085  0.3192  0.5950
 6349TIP3   OH240537   0.898   4.656  13.009 -0.1082  0.0743 -0.2037
 6349TIP3    H140538   0.973   4.713  12.992  1.5635 -1.8649  0.5527
 6349TIP3    H240539   0.837   4.675  12.937  1.4529  1.0539 -1.3014
 6350TIP3   OH240540   2.748   4.838   3.762 -0.0407  0.6011 -0.2175
 6350TIP3    H140541   2.710   4.874   3.682  0.3314  0.0010 -0.6666
 6350TIP3    H240542   2.821   4.784   3.732  0.9143  1.4086  0.6100
 6351TIP3   OH240543   2.797   0.894   5.323  0.1875 -0.4909  0.1018
 6351TIP3    H140544   2.794   0.923   5.414  0.9259  1.5027 -0.4859
 6351TIP3    H240545   2.705   0.893   5.295 -0.0210 -0.8567  0.7935
 6352TIP3   OH240546   0.311   0.851   1.898 -0.0877  0.2107 -0.0005
 6352TIP3    H140547   0.314   0.920   1.965 -2.0084  0.9036 -0.6122
 6352TIP3    H240548   0.342   0.894   1.818 -1.1563  0.3238 -0.3533
 6353TIP3   OH240549   2.055   0.427  13.762  0.1074  0.0796  0.5674
 6353TIP3    H140550   2.150   0.439  13.757  0.4942 -1.1966  3.7525
 6353TIP3    H240551   2.024   0.496  13.820 -0.9024  0.3292 -0.2451
 6354TIP3   OH240552   5.487   1.352   0.684 -0.1690 -0.2148 -0.7357
 6354TIP3    H140553   5.507   1.290   0.614  2.4720  0.5386 -0.6886
 6354TIP3    H240554   5.532   1.317   0.761 -0.0812  0.8491 -0.2947
 6355TIP3   OH240555   6.269   0.385   0.612  0.3818 -0.4495 -0.2973
 6355TIP3    H140556   6.198   0.335   0.652  1.4483 -1.6778  0.1147
 6355TIP3    H240557   6.236   0.409   0.525 -0.6665 -0.7031  0.0322
 6356TIP3   OH240558   0.703   6.692  11.706 -0.1326  0.4094  0.5827
 6356TIP3    H140559   0.750   6.761  11.752 -0.0816 -0.0901  1.2827
 6356TIP3    H240560   0.742   6.611  11.738 -0.6420  0.0310  0.2513
 6357TIP3   OH240561   2.703   4.652   5.817 -0.1406  0.2234  0.1855
 6357TIP3    H140562   2.685   4.650   5.723  2.3950 -1.7283 -0.3133
 6357TIP3    H240563   2.712   4.745   5.838 -0.3022  0.6587 -1.5795
 6358TIP3   OH240564   3.616   0.182  12.791  0.4170  0.4082  0.4337
 6358TIP3    H140565   3.664   0.106  12.758  3.0337  1.1683  2.3164
 6358TIP3    H240566   3.536   0.146  12.829  0.9536 -1.2443  0.0485
 6359TIP3   OH240567   5.704   0.700  14.883 -0.4563  0.5089  0.6484
 6359TIP3    H140568   5.637   0.638  14.852  0.4019 -0.3232  0.4162
 6359TIP3    H240569   5.660   0.752  14.950 -1.3826  0.0797  0.3811
 6360TIP3   OH240570   4.973   4.321   0.830 -0.0945 -0.2931  0.0360
 6360TIP3    H140571   4.990   4.228   0.816  0.8349 -0.2618  0.8871
 6360TIP3    H240572   5.058   4.357   0.859 -0.4411  0.8124 -0.2712
 6361TIP3   OH240573   3.744   0.647   3.818 -0.2923 -0.2399  0.0296
 6361TIP3    H140574   3.827   0.684   3.791 -0.0793  0.1590  1.1853
 6361TIP3    H240575   3.766   0.560   3.852 -0.2957  0.0120  0.6777
 6362TIP3   OH240576   4.569   2.165   3.280  0.1552 -0.5762  0.7652
 6362TIP3    H140577   4.564   2.156   3.375  1.8606  1.0988  1.0585
 6362TIP3    H240578   4.635   2.234   3.267  1.8943 -2.6340 -1.7021
 6363TIP3   OH240579   0.073   5.031   3.865 -0.0848  0.1277 -0.0472
 6363TIP3    H140580   0.153   5.053   3.913  0.2285  1.1871 -1.0330
 6363TIP3    H240581   0.077   4.936   3.855  0.5620  0.0600  0.7598
 6364TIP3   OH240582   1.727   0.279  13.991 -0.5053 -0.1361  0.4327
 6364TIP3    H140583   1.652   0.326  13.956  0.7283  0.1643 -1.9676
 6364TIP3    H240584   1.768   0.341  14.051 -1.1326  0.3932  0.3229
 6365TIP3   OH240585   4.663   6.785   5.970  0.1043  0.2761 -0.4075
 6365TIP3    H140586   4.664   6.791   5.874 -1.9260 -0.4627 -0.4937
 6365TIP3    H240587   4.571   6.790   5.993  0.5383 -0.2123  1.4814
 6366TIP3   OH240588   2.846   1.025   5.845  0.5811 -0.4219 -0.6498
 6366TIP3    H140589   2.813   0.971   5.916  1.2118 -0.9558 -0.7683
 6366TIP3    H240590   2.939   1.005   5.839  1.0092  1.2848 -0.1544
 6367TIP3   OH240591   1.280   6.029   4.099  0.9135 -0.3713 -0.5619
 6367TIP3    H140592   1.218   6.101   4.102  0.6387 -0.6649  3.5495
 6367TIP3    H240593   1.243   5.968   4.035 -1.3365  0.8894 -0.5195
 6368TIP3   OH240594   3.979   2.510   5.843 -0.3145 -0.6422  0.7588
 6368TIP3    H140595   3.974   2.430   5.895 -0.1657 -1.0756  0.1102
 6368TIP3    H240596   3.904   2.562   5.873  0.1638 -0.5925  1.8855
 6369TIP3   OH240597   3.603   1.102   4.075 -0.0401  0.1514 -0.0954
 6369TIP3    H140598   3.516   1.137   4.092 -1.0407 -2.8537  1.2410
 6369TIP3    H240599   3.588   1.021   4.026  2.0328 -0.1719 -0.2753
 6370TIP3   OH240600   4.502   0.660  16.912  0.0662 -0.4377 -0.1660
 6370TIP3    H140601   4.569   0.728  16.907  0.6975 -0.9401  1.2025
 6370TIP3    H240602   4.523   0.600  16.841  1.1698 -0.6697  0.3469
 6371TIP3   OH240603   3.766   0.859  16.584  0.1936  0.4449 -0.1469
 6371TIP3    H140604   3.718   0.925  16.534  2.1823  0.6296 -1.8897
 6371TIP3    H240605   3.735   0.776  16.547 -0.1767  0.4944  0.0476
 6372TIP3   OH240606   4.817   3.929   4.999 -0.3118  0.5093 -0.6876
 6372TIP3    H140607   4.777   3.860   5.052 -1.3573  1.4599 -0.2105
 6372TIP3    H240608   4.793   3.907   4.909  1.4395 -1.0937 -0.7992
 6373TIP3   OH240609   2.484   5.246  12.471  0.0138 -0.3523  0.5184
 6373TIP3    H140610   2.484   5.316  12.537 -1.1176  0.3231 -0.1890
 6373TIP3    H240611   2.397   5.249  12.432  1.0884  0.1417 -1.9270
 6374TIP3   OH240612   1.415   1.965  14.909 -0.0293  0.4113  0.4473
 6374TIP3    H140613   1.469   2.044  14.914 -0.3933  0.6151  1.1915
 6374TIP3    H240614   1.474   1.895  14.936 -0.0203  0.5797  0.8725
 6375TIP3   OH240615   2.982   3.569  15.769 -0.5813 -0.3624  0.0253
 6375TIP3    H140616   3.026   3.489  15.740  2.1927  1.1241 -0.0324
 6375TIP3    H240617   2.928   3.542  15.844 -0.1205 -2.3692 -0.3613
 6376TIP3   OH240618   0.390   3.058   4.183  0.2344 -0.7549 -0.1425
 6376TIP3    H140619   0.382   3.011   4.100  1.2548  0.4957 -0.9772
 6376TIP3    H240620   0.307   3.042   4.228 -0.1880 -1.7395 -1.2515
 6377TIP3   OH240621   4.843   5.572  13.893  0.1501  0.1372 -0.0502
 6377TIP3    H140622   4.928   5.592  13.931  0.4427  1.1101 -1.2082
 6377TIP3    H240623   4.856   5.489  13.846  1.1717  1.6118 -2.4602
 6378TIP3   OH240624   1.692   6.796   6.168 -0.0297 -0.0174  0.0919
 6378TIP3    H140625   1.626   6.780   6.235  0.3915  3.1573  1.3778
 6378TIP3    H240626   1.776   6.785   6.213  0.3767 -3.1368 -1.3020
 6379TIP3   OH240627   5.160   4.876  15.193  0.3764  0.2587  0.0556
 6379TIP3    H140628   5.246   4.850  15.226 -0.9927 -2.9217  1.2790
 6379TIP3    H240629   5.124   4.933  15.261  0.8371  0.2852  0.2795
 6380TIP3   OH240630   1.419   0.987  16.977  0.1442  0.1838 -0.4268
 6380TIP3    H140631   1.362   0.935  16.921  0.9408 -0.7748 -0.3375
 6380TIP3    H240632   1.507   0.967  16.948  0.5297  0.2025  0.7103
 6381TIP3   OH240633   3.152   2.484  14.688 -0.1398  0.2076  0.1970
 6381TIP3    H140634   3.071   2.497  14.737 -0.5160 -0.0462 -0.3497
 6381TIP3    H240635   3.200   2.565  14.699 -0.7811  0.6256 -0.0551
 6382TIP3   OH240636   2.625   4.764  16.913 -0.1681  0.0462  0.0069
 6382TIP3    H140637   2.605   4.685  16.864 -0.5129 -0.7580  1.4022
 6382TIP3    H240638   2.719   4.758  16.932 -0.4264 -0.5972  1.0890
 6383TIP3   OH240639   3.807   6.442  12.690  0.5089 -0.2422  0.1856
 6383TIP3    H140640   3.875   6.400  12.637  1.2318  0.3796  0.6063
 6383TIP3    H240641   3.749   6.483  12.626  0.2932 -1.1247 -0.1926
 6384TIP3   OH240642   5.293   6.764  12.922 -0.1128  0.6549 -0.6600
 6384TIP3    H140643   5.298   6.843  12.868  0.0406  1.1826  0.1224
 6384TIP3    H240644   5.284   6.797  13.011 -0.6515 -0.2148 -0.3914
 6385TIP3   OH240645   3.977   0.320  16.058  0.4634 -0.7131  0.4955
 6385TIP3    H140646   4.016   0.320  16.145 -1.0541 -2.4203  1.2157
 6385TIP3    H240647   3.986   0.229  16.028  0.1653 -0.3461 -0.7548
 6386TIP3   OH240648   3.664   2.305  14.286 -0.0941 -0.1670  0.1591
 6386TIP3    H140649   3.758   2.293  14.296 -0.2377  0.0967  1.9912
 6386TIP3    H240650   3.646   2.277  14.196  1.4881 -1.6074  0.2572
 6387TIP3   OH240651   6.474   5.862   4.300 -0.1008  0.0354  0.4266
 6387TIP3    H140652   6.462   5.906   4.216 -2.0773  1.1186  1.2399
 6387TIP3    H240653   6.477   5.769   4.278  1.3408  0.3889 -1.0240
 6388TIP3   OH240654   6.735   1.896   4.177  0.1667  0.3483 -0.3075
 6388TIP3    H140655   6.809   1.839   4.200 -0.2518  0.2288  0.8044
 6388TIP3    H240656   6.763   1.943   4.099  1.5310  0.5039  0.2647
 6389TIP3   OH240657   4.087   5.158  12.670  0.7999 -0.1344  0.3512
 6389TIP3    H140658   4.164   5.214  12.675  0.3608  0.5542 -0.5052
 6389TIP3    H240659   4.025   5.207  12.616 -0.9543  0.1568  2.5330
 6390TIP3   OH240660   5.852   2.003   2.799  0.2876 -0.1843  0.5454
 6390TIP3    H140661   5.915   1.960   2.857 -0.5687 -2.7086 -0.3236
 6390TIP3    H240662   5.772   2.009   2.851  0.6178  1.0531  0.9162
 6391TIP3   OH240663   0.704   3.165   5.447  0.1573  1.0832  0.0651
 6391TIP3    H140664   0.645   3.157   5.521  1.0182 -0.3894  0.6054
 6391TIP3    H240665   0.653   3.136   5.372 -0.4952  1.9230  0.1790
 6392TIP3   OH240666   6.208   2.670   3.617 -0.0848 -0.1463 -0.2213
 6392TIP3    H140667   6.234   2.585   3.652  1.0277 -0.3442 -1.4760
 6392TIP3    H240668   6.142   2.702   3.678 -0.7195 -2.0253  0.1066
 6393TIP3   OH240669   3.140   0.989   0.582 -0.0378 -0.1492  0.0776
 6393TIP3    H140670   3.100   1.009   0.667  1.6876 -1.0809  1.1418
 6393TIP3    H240671   3.128   0.895   0.571 -0.0250 -0.0729 -0.5922
 6394TIP3   OH240672   6.301   5.419  12.730  0.0626 -0.0979 -0.2075
 6394TIP3    H140673   6.265   5.485  12.671 -0.5207  0.5756  0.8931
 6394TIP3    H240674   6.369   5.375  12.678 -0.2116  0.7117 -1.2628
 6395TIP3   OH240675   6.259   2.321  10.989  0.1854  0.3593 -0.1752
 6395TIP3    H140676   6.244   2.308  10.895  0.1011  0.3958 -0.1660
 6395TIP3    H240677   6.298   2.238  11.018  0.0551  0.2864 -0.2081
 6396TIP3   OH240678   3.198   1.231  15.669  0.1067  0.0691  0.1787
 6396TIP3    H140679   3.137   1.196  15.733 -0.1235  0.9251  0.4374
 6396TIP3    H240680   3.144   1.283  15.609  0.5568  0.7352  0.3420
 6397TIP3   OH240681   2.143   4.974   2.720  0.0639 -0.0161  0.3362
 6397TIP3    H140682   2.117   4.890   2.757 -1.4304 -0.0118 -0.6635
 6397TIP3    H240683   2.220   4.955   2.666 -0.1825 -0.7213  0.2356
 6398TIP3   OH240684   3.431   5.222  12.683  0.4954 -0.2331  0.2764
 6398TIP3    H140685   3.506   5.231  12.742 -0.1641 -1.2432  1.2932
 6398TIP3    H240686   3.440   5.133  12.648 -0.0831 -0.2603  0.2030
 6399TIP3   OH240687   5.625   4.164   0.490 -0.0567 -0.3296  0.2444
 6399TIP3    H140688   5.592   4.145   0.402 -0.4719 -1.8430  0.7038
 6399TIP3    H240689   5.637   4.259   0.491 -4.3466  0.3099  0.0062
 6400TIP3   OH240690   1.291   0.365   2.365 -0.0565  0.0739 -0.6000
 6400TIP3    H140691   1.342   0.283   2.365 -1.9658 -1.1439 -0.7045
 6400TIP3    H240692   1.218   0.348   2.424 -0.7277  1.5565 -0.9826
 6401TIP3   OH240693   2.097   2.329   1.310  0.3942  0.5569 -0.3840
 6401TIP3    H140694   2.067   2.374   1.388 -0.0696  0.2488 -0.3845
 6401TIP3    H240695   2.020   2.282   1.277  1.0790 -0.9481  0.1141
 6402TIP3   OH240696   4.400   4.142  12.227 -0.0639 -0.3060  0.2826
 6402TIP3    H140697   4.383   4.056  12.265  0.4444 -0.2153  0.7189
 6402TIP3    H240698   4.485   4.133  12.183 -0.0605 -0.0542  0.2356
 6403TIP3   OH240699   0.165   2.916   4.695 -0.2233 -0.0848  0.4865
 6403TIP3    H140700   0.109   2.943   4.768 -0.2211  1.5151 -0.0773
 6403TIP3    H240701   0.135   2.828   4.672 -1.3176  0.0635  1.3336
 6404TIP3   OH240702   2.770   1.692  14.684 -0.1267 -0.5056  0.0146
 6404TIP3    H140703   2.722   1.635  14.623  0.7867 -1.1503 -0.1181
 6404TIP3    H240704   2.860   1.658  14.682  0.6636  1.5605 -0.8036
 6405TIP3   OH240705   6.580   2.157  16.258  0.3845  0.1068 -0.1675
 6405TIP3    H140706   6.602   2.068  16.284 -0.1812  0.0919  0.2859
 6405TIP3    H240707   6.526   2.190  16.330 -1.6600 -0.1190 -1.5610
 6406TIP3   OH240708   1.667   0.014   5.905 -0.2775 -0.4141 -0.1024
 6406TIP3    H140709   1.736  -0.025   5.851 -0.4482 -0.9491  0.0618
 6406TIP3    H240710   1.690  -0.011   5.995  0.6958  1.5300  0.2069
 6407TIP3   OH240711   2.340   2.874   1.368  0.2118  0.6858  0.2543
 6407TIP3    H140712   2.360   2.928   1.291 -0.4653 -0.0112 -0.4289
 6407TIP3    H240713   2.354   2.784   1.338 -1.1299  0.3435  0.5952
 6408TIP3   OH240714   5.738   1.284  12.464  0.0467  0.0902 -0.3353
 6408TIP3    H140715   5.815   1.332  12.493  0.5402  0.3488 -2.0461
 6408TIP3    H240716   5.695   1.342  12.402 -1.1333 -0.3579  0.0412
 6409TIP3   OH240717   3.344   2.406   1.183 -0.4193  0.3737  0.4563
 6409TIP3    H140718   3.301   2.321   1.177 -0.1397  0.2546  0.1088
 6409TIP3    H240719   3.349   2.425   1.277  1.4636 -0.9876  0.6521
 6410TIP3   OH240720   1.832   5.182  16.275 -0.2894  0.0030 -0.1476
 6410TIP3    H140721   1.891   5.157  16.347 -0.3647 -0.8716 -0.3828
 6410TIP3    H240722   1.874   5.258  16.235  0.7571 -0.6953 -0.4022
 6411TIP3   OH240723   2.319   6.216  15.641  0.6576 -0.8191  0.1114
 6411TIP3    H140724   2.296   6.132  15.600  0.9714 -1.4322  1.1680
 6411TIP3    H240725   2.286   6.208  15.731  1.4844 -0.1543  0.4744
 6412TIP3   OH240726   5.631   2.428   3.943 -0.0581 -0.0643 -0.3280
 6412TIP3    H140727   5.672   2.392   3.864 -0.3861  0.7357 -0.8597
 6412TIP3    H240728   5.675   2.512   3.957 -0.2998 -0.0101  0.1074
 6413TIP3   OH240729   2.334   1.745  10.663  0.8595 -0.1112  0.3443
 6413TIP3    H140730   2.370   1.812  10.605 -0.3335 -1.5234 -2.1252
 6413TIP3    H240731   2.351   1.778  10.751  1.9293  2.5397 -0.7926
 6414TIP3   OH240732   0.940   4.399   5.671 -0.1632 -0.0448 -0.2290
 6414TIP3    H140733   0.988   4.347   5.735  0.3093  0.0727 -0.4813
 6414TIP3    H240734   1.008   4.434   5.613 -0.6191 -0.5245 -1.0658
 6415TIP3   OH240735   1.606   5.911  16.411 -0.0606  0.0023 -0.7728
 6415TIP3    H140736   1.588   5.833  16.359 -1.2302 -0.0140 -0.3468
 6415TIP3    H240737   1.528   5.966  16.402  0.2029  0.5272  0.0160
 6416TIP3   OH240738   2.934   3.014  16.659 -0.5986  0.1652 -0.4143
 6416TIP3    H140739   2.885   3.096  16.662 -1.8145 -0.5099 -1.5041
 6416TIP3    H240740   3.009   3.029  16.717 -0.7634  2.0656 -0.6604
 6417TIP3   OH240741   4.529   5.437   1.950  0.1590  0.8176 -0.1522
 6417TIP3    H140742   4.485   5.520   1.931 -2.1416 -0.7142 -1.7857
 6417TIP3    H240743   4.461   5.384   1.991  1.5353 -0.3696  0.6153
 6418TIP3   OH240744   4.482   6.750  17.094 -0.0027 -0.7462  0.1369
 6418TIP3    H140745   4.561   6.702  17.121  1.5003  1.7127  0.2301
 6418TIP3    H240746   4.454   6.706  17.014  1.1290 -2.0080  0.4095
 6419TIP3   OH240747   5.988   1.246   2.900 -1.5793  0.0879  0.4388
 6419TIP3    H140748   5.896   1.258   2.879 -1.5885 -0.1551  0.3441
 6419TIP3    H240749   5.993   1.263   2.994 -2.1971 -2.5847  1.0000
 6420TIP3   OH240750   1.309   3.447  17.249 -0.4268 -0.1634 -0.4058
 6420TIP3    H140751   1.393   3.443  17.203 -0.6430  0.4996 -0.8581
 6420TIP3    H240752   1.246   3.474  17.182 -0.2252  4.0010  0.9156
 6421TIP3   OH240753   1.068   6.400  14.169 -0.1211 -0.2441 -0.0726
 6421TIP3    H140754   0.999   6.380  14.106  0.3687 -0.1462 -0.6505
 6421TIP3    H240755   1.089   6.492  14.151 -0.1557 -0.1409  0.4113
 6422TIP3   OH240756   6.742   1.473   0.371 -0.0837 -0.3406  0.0523
 6422TIP3    H140757   6.790   1.537   0.425  2.2778 -2.0263  0.0270
 6422TIP3    H240758   6.701   1.414   0.434  0.3054 -0.6146  0.0527
 6423TIP3   OH240759   5.370   2.929  12.903  0.2743  0.2690 -0.3138
 6423TIP3    H140760   5.402   3.018  12.896  0.3896  0.3933  1.3888
 6423TIP3    H240761   5.378   2.908  12.997 -0.4764 -1.2402 -0.5626
 6424TIP3   OH240762   4.766   1.624  16.153  0.2147 -0.0828 -0.1555
 6424TIP3    H140763   4.737   1.570  16.227 -0.3031  0.2743 -0.1028
 6424TIP3    H240764   4.818   1.694  16.193 -0.9781  0.7383 -0.0327
 6425TIP3   OH240765   1.823   4.936  17.284  0.9624  0.2205  0.5175
 6425TIP3    H140766   1.784   5.019  17.313  1.1664 -0.2519  2.1594
 6425TIP3    H240767   1.766   4.868  17.321  1.2413 -0.4017 -0.1804
 6426TIP3   OH240768   1.480   0.266  16.150 -0.1093 -0.1867  0.2860
 6426TIP3    H140769   1.496   0.360  16.149  0.7816 -0.3371 -0.2542
 6426TIP3    H240770   1.509   0.236  16.064  0.2126 -1.0541  0.6955
 6427TIP3   OH240771   2.394   5.397  12.234 -0.0089 -0.2017  0.2558
 6427TIP3    H140772   2.476   5.444  12.217 -0.9838  1.3290 -0.3057
 6427TIP3    H240773   2.349   5.450  12.298 -1.8320  0.4814 -1.5511
 6428TIP3   OH240774   4.942   3.168  14.741  0.2274  0.0066 -0.0325
 6428TIP3    H140775   5.035   3.179  14.722  0.3220 -2.0732 -0.9165
 6428TIP3    H240776   4.921   3.081  14.709 -1.9258  0.2493  0.6170
 6429TIP3   OH240777   6.382   4.740  12.418 -0.2352 -0.3085 -0.3058
 6429TIP3    H140778   6.390   4.648  12.392 -1.3293 -0.3493 -0.5254
 6429TIP3    H240779   6.445   4.787  12.363 -0.8371 -0.7118 -1.3516
 6430TIP3   OH240780   6.638   4.472   4.871 -0.0305  0.4709  0.5572
 6430TIP3    H140781   6.726   4.490   4.904 -0.3485 -0.2764  1.8208
 6430TIP3    H240782   6.651   4.402   4.807  0.1402 -0.5507  1.6902
 6431TIP3   OH240783   0.060   6.242   5.220 -0.0635  0.4730  0.1703
 6431TIP3    H140784   0.151   6.267   5.206 -0.3235  1.0575 -0.5400
 6431TIP3    H240785   0.042   6.266   5.312  0.2841  1.0499  0.0925
 6432TIP3   OH240786   6.420   3.313  11.209 -0.1059  0.1402  0.4192
 6432TIP3    H140787   6.410   3.258  11.132  0.1938 -1.2686  1.3801
 6432TIP3    H240788   6.468   3.390  11.177  0.6791 -0.7738 -0.6347
 6433TIP3   OH240789   4.999   1.509   0.782 -0.3793  1.3358 -0.8704
 6433TIP3    H140790   5.009   1.414   0.794 -1.6934  1.3580  0.5241
 6433TIP3    H240791   5.057   1.547   0.848  0.9893  1.5217 -2.1618
 6434TIP3   OH240792   4.965   5.113  16.222 -0.1195  0.0110  0.0027
 6434TIP3    H140793   4.956   5.063  16.141  0.2720  1.8111 -1.1811
 6434TIP3    H240794   4.885   5.166  16.226  0.7519  1.3646 -0.2324
 6435TIP3   OH240795   3.220   4.632   0.638 -0.1355 -0.7018 -0.2778
 6435TIP3    H140796   3.286   4.699   0.618 -2.0760  1.4174  0.1603
 6435TIP3    H240797   3.225   4.571   0.565  0.2694  1.0653 -1.7696
 6436TIP3   OH240798   1.456   3.809  13.672 -0.2421 -0.6505  0.3671
 6436TIP3    H140799   1.429   3.779  13.759  1.1728 -2.7440  0.1262
 6436TIP3    H240800   1.491   3.731  13.629  1.2186  0.8250 -1.2398
 6437TIP3   OH240801   5.745   5.989   4.972  0.6967  0.2911  0.7526
 6437TIP3    H140802   5.773   5.905   4.936 -1.5496  0.8013 -2.3708
 6437TIP3    H240803   5.799   6.054   4.928 -1.4046  0.8476 -1.1011
 6438TIP3   OH240804   5.568   4.359   2.017  0.5900 -0.0612  0.4713
 6438TIP3    H140805   5.528   4.404   2.092 -2.5962  1.8740 -2.2565
 6438TIP3    H240806   5.533   4.270   2.021 -0.8474  0.4885  0.3934
 6439TIP3   OH240807   3.443   1.537  15.247 -0.4467  0.1042 -0.4724
 6439TIP3    H140808   3.422   1.616  15.297  2.2884 -0.9274  2.4898
 6439TIP3    H240809   3.370   1.478  15.265  0.6980 -0.4175  2.8442
 6440TIP3   OH240810   4.138   1.206   0.256  0.1951  0.0242 -0.1443
 6440TIP3    H140811   4.113   1.272   0.192  0.4443  0.5127  0.2580
 6440TIP3    H240812   4.137   1.123   0.208  0.2441  0.3721 -0.7394
 6441TIP3   OH240813   0.390   0.462  14.187 -0.3128 -0.2144  0.9077
 6441TIP3    H140814   0.413   0.382  14.139  0.2804  0.4460  0.0840
 6441TIP3    H240815   0.299   0.449  14.213 -1.8422  0.9457 -3.5424
 6442TIP3   OH240816   5.456   1.586  13.732 -0.4762 -0.0259  0.1314
 6442TIP3    H140817   5.424   1.673  13.708  1.8745  0.5501 -1.0765
 6442TIP3    H240818   5.409   1.527  13.672 -1.5797  0.4639  0.4968
 6443TIP3   OH240819   5.487   4.879  12.254  0.3274  0.1429  0.0042
 6443TIP3    H140820   5.490   4.834  12.170 -1.0086 -0.3979  0.2331
 6443TIP3    H240821   5.498   4.971  12.233  0.9003 -0.0751 -0.6701
 6444TIP3   OH240822   1.297   5.130   3.619 -0.1265 -0.0819  0.5916
 6444TIP3    H140823   1.359   5.089   3.680 -1.3748 -1.9187  0.6575
 6444TIP3    H240824   1.229   5.064   3.605 -0.2508  0.5482 -2.2407
 6445TIP3   OH240825   0.890   5.060  14.969  0.9846 -0.1388 -0.5271
 6445TIP3    H140826   0.939   4.984  14.939  1.0241  0.6360 -2.4947
 6445TIP3    H240827   0.815   5.023  15.017  1.5992 -1.3783 -0.4953
 6446TIP3   OH240828   6.302   5.675   3.662 -0.3325  0.1246 -0.3894
 6446TIP3    H140829   6.333   5.655   3.574  0.9337 -0.1214  0.1050
 6446TIP3    H240830   6.316   5.595   3.712  1.0138  0.9449  0.5860
 6447TIP3   OH240831   6.142   0.578  13.431  0.2392  0.0863  0.2063
 6447TIP3    H140832   6.093   0.497  13.445  0.1224 -0.0005 -0.7290
 6447TIP3    H240833   6.120   0.605  13.342  0.5351  0.9718  0.3977
 6448TIP3   OH240834   6.805   6.775   4.076  0.6296  0.0096  0.4409
 6448TIP3    H140835   6.830   6.780   3.984  0.2876  2.0820  0.4410
 6448TIP3    H240836   6.712   6.752   4.074  0.4652  0.6833  0.2506
 6449TIP3   OH240837   5.029   5.113  11.327  0.1244 -0.3353 -0.0941
 6449TIP3    H140838   5.077   5.160  11.395 -0.8731  1.9631 -0.9402
 6449TIP3    H240839   5.080   5.032  11.314  3.0865  1.4647 -0.1178
 6450TIP3   OH240840   5.871   5.372  11.219  0.3661 -0.1061  0.3165
 6450TIP3    H140841   5.835   5.411  11.139  1.0107 -0.3271 -0.0801
 6450TIP3    H240842   5.950   5.327  11.190  1.1866  0.7133  1.2480
 6451TIP3   OH240843   6.595   0.039  15.029  0.3330 -0.2404  0.9689
 6451TIP3    H140844   6.551   0.049  14.945  0.4097  1.3959  1.0955
 6451TIP3    H240845   6.686   0.065  15.011  0.1409  0.9853  1.7534
 6452TIP3   OH240846   6.641   4.850   5.933 -0.2192 -0.4869 -0.1138
 6452TIP3    H140847   6.717   4.793   5.920  1.5812  1.5687  1.1016
 6452TIP3    H240848   6.572   4.791   5.965  1.1865 -2.2133 -0.2048
 6453TIP3   OH240849   1.774   1.708  13.007  0.2068 -0.2556  0.2237
 6453TIP3    H140850   1.759   1.745  13.094  1.0247  0.8812 -0.1089
 6453TIP3    H240851   1.761   1.781  12.947 -0.6569 -1.1063 -0.6427
 6454TIP3   OH240852   4.111   4.071   6.780  0.0590 -0.0705 -0.0836
 6454TIP3    H140853   4.034   4.112   6.742  0.5268 -0.3601 -1.3807
 6454TIP3    H240854   4.148   4.137   6.839  0.4237  1.1205 -1.6265
 6455TIP3   OH240855   2.237   5.799  16.641  0.3000  0.2594 -0.1306
 6455TIP3    H140856   2.205   5.862  16.577  0.6338  1.0902  0.5087
 6455TIP3    H240857   2.248   5.850  16.722  2.0767 -0.2657 -0.0176
 6456TIP3   OH240858   2.023   3.038   3.601  0.2256 -0.0707 -0.4450
 6456TIP3    H140859   1.977   3.022   3.683 -0.0497  0.3531 -0.5120
 6456TIP3    H240860   2.005   3.130   3.581  0.0307 -0.2578 -1.1426
 6457TIP3   OH240861   6.047   1.259   3.906  0.1733  0.5261 -0.3627
 6457TIP3    H140862   6.063   1.199   3.978 -0.7538  0.6456 -0.0461
 6457TIP3    H240863   6.118   1.242   3.844  2.2870  1.9399  1.5453
 6458TIP3   OH240864   3.916   5.926  16.141 -0.2649  0.0676 -0.2476
 6458TIP3    H140865   3.988   5.909  16.080 -0.4077 -0.1346 -0.3562
 6458TIP3    H240866   3.880   6.010  16.114  0.3345  0.4772  0.1974
 6459TIP3   OH240867   0.958   4.721  11.431  0.0129 -0.4625 -0.1026
 6459TIP3    H140868   0.984   4.628  11.431  0.2228 -0.4118  0.7279
 6459TIP3    H240869   0.863   4.719  11.438  0.0304 -0.6249  0.1301
 6460TIP3   OH240870   4.293   0.743   0.590 -0.1671  0.1819 -0.3308
 6460TIP3    H140871   4.319   0.680   0.523  0.0398  0.0038 -0.0815
 6460TIP3    H240872   4.302   0.696   0.673  0.8586  0.8156 -0.0691
 6461TIP3   OH240873   3.980   4.756   0.009  0.4547  0.4626  0.0033
 6461TIP3    H140874   3.906   4.808   0.041 -0.5867 -0.7493 -0.3819
 6461TIP3    H240875   3.963   4.746  -0.084 -0.4993 -2.3574  0.4445
 6462TIP3   OH240876   3.288   3.887  13.873  0.0791 -0.2722  0.2818
 6462TIP3    H140877   3.365   3.942  13.888  0.2802 -0.5947  0.4336
 6462TIP3    H240878   3.299   3.813  13.933 -0.1502 -0.5223  0.0187
 6463TIP3   OH240879   6.084   0.511   2.092 -0.0764 -0.0964  0.0491
 6463TIP3    H140880   6.014   0.527   2.029 -2.1248  0.6205  2.3885
 6463TIP3    H240881   6.054   0.555   2.172  1.5798 -2.4837  2.0612
 6464TIP3   OH240882   4.623   1.932   4.263 -0.1060  0.1272  0.1873
 6464TIP3    H140883   4.544   1.975   4.298 -0.3115  0.1183 -0.2609
 6464TIP3    H240884   4.626   1.848   4.307 -0.0820  0.3271  0.5666
 6465TIP3   OH240885   5.207   6.517   1.942 -0.1333  0.0519  0.0046
 6465TIP3    H140886   5.184   6.426   1.961 -0.3955  0.0794 -0.1711
 6465TIP3    H240887   5.256   6.513   1.860 -2.0051  0.2808 -1.1551
 6466TIP3   OH240888   3.193   4.354   2.573  0.2164  0.4085 -0.2881
 6466TIP3    H140889   3.134   4.389   2.640 -0.9154  0.4508 -1.2925
 6466TIP3    H240890   3.232   4.277   2.615 -1.0409 -0.0022  0.1789
 6467TIP3   OH240891   4.219   1.738   0.976 -0.3785  0.4595 -0.4142
 6467TIP3    H140892   4.283   1.809   0.975 -0.3292  0.4128 -1.1900
 6467TIP3    H240893   4.258   1.671   0.920  0.2572 -0.7909  1.4932
 6468TIP3   OH240894   5.896   0.515   1.207 -0.1250  0.1596  0.3491
 6468TIP3    H140895   5.953   0.516   1.284  0.9697  0.3089 -0.4511
 6468TIP3    H240896   5.810   0.491   1.241  0.6959 -1.3741  1.3965
 6469TIP3   OH240897   0.436   2.891  16.473  0.3314  0.2092 -0.1396
 6469TIP3    H140898   0.356   2.928  16.509  0.0016 -1.5944  1.0589
 6469TIP3    H240899   0.435   2.915  16.381 -2.0985 -0.6181 -0.3595
 6470TIP3   OH240900   3.714   0.597   0.925  0.1203  0.2155 -0.0415
 6470TIP3    H140901   3.663   0.558   0.996 -0.6292  1.7439  0.2945
 6470TIP3    H240902   3.804   0.596   0.956 -0.0746  0.0049  0.5256
 6471TIP3   OH240903   5.788   6.178   1.487  0.4062 -1.0343  0.0422
 6471TIP3    H140904   5.852   6.237   1.526  0.2564 -0.5461 -0.4641
 6471TIP3    H240905   5.720   6.235   1.451 -1.4520 -1.5633  2.4859
 6472TIP3   OH240906   4.134   0.205   6.319  0.6677  0.0590 -0.0774
 6472TIP3    H140907   4.046   0.236   6.339  0.7832  0.7821 -0.6599
 6472TIP3    H240908   4.127   0.168   6.232  1.0586  0.6344 -0.3584
 6473TIP3   OH240909   6.586   5.280  15.587 -0.3418 -0.2810  0.1098
 6473TIP3    H140910   6.506   5.333  15.589  0.8945  1.6441  0.0160
 6473TIP3    H240911   6.636   5.316  15.513  1.3541 -0.3503  1.2092
 6474TIP3   OH240912   2.675   4.577   0.604 -0.4933  0.1489  0.2233
 6474TIP3    H140913   2.616   4.608   0.536  1.4686  1.1580 -1.0726
 6474TIP3    H240914   2.763   4.588   0.567  0.5929  0.2895  2.7185
 6475TIP3   OH240915   5.481   2.451   4.321  0.2289  0.1180  0.6169
 6475TIP3    H140916   5.387   2.429   4.326  0.0933  0.4933 -0.1163
 6475TIP3    H240917   5.525   2.373   4.354 -0.3585  0.0830  1.3324
 6476TIP3   OH240918   5.255   1.140   3.819  0.1575  0.6199  0.0626
 6476TIP3    H140919   5.194   1.213   3.813  0.8741  1.1902 -0.3780
 6476TIP3    H240920   5.341   1.179   3.804  0.6813 -0.0981  1.1261
 6477TIP3   OH240921   3.190   1.418  13.654  0.4216 -0.2406 -0.1810
 6477TIP3    H140922   3.169   1.505  13.620 -0.1059  0.0253  0.8162
 6477TIP3    H240923   3.209   1.432  13.747 -0.0014 -1.2303  0.0620
 6478TIP3   OH240924   6.528   3.841   3.626 -0.4739 -0.1988 -0.4884
 6478TIP3    H140925   6.590   3.782   3.668 -1.3146 -1.1454 -0.5660
 6478TIP3    H240926   6.444   3.795   3.630 -1.5684  1.8731  1.3463
 6479TIP3   OH240927   1.082   3.930   4.443  0.4874 -0.2027  0.0821
 6479TIP3    H140928   1.062   3.996   4.509  0.2946 -1.3008  1.1464
 6479TIP3    H240929   1.119   3.979   4.370  0.0187  1.1167  0.7129
 6480TIP3   OH240930   3.089   4.275  11.700 -0.4925  0.4209 -0.0838
 6480TIP3    H140931   3.062   4.189  11.731  0.8998 -0.1004 -0.2681
 6480TIP3    H240932   3.172   4.259  11.654 -0.1847  1.8630 -0.0602
 6481TIP3   OH240933   6.257   6.682  11.589  0.2102  0.4112 -0.4236
 6481TIP3    H140934   6.349   6.676  11.614 -0.3291 -0.2808  1.4909
 6481TIP3    H240935   6.226   6.762  11.631 -0.0654  0.6359 -1.0520
 6482TIP3   OH240936   0.804   3.917  13.471 -0.2348 -0.4615  0.8416
 6482TIP3    H140937   0.789   4.012  13.479 -0.0292 -0.0668 -2.4094
 6482TIP3    H240938   0.862   3.910  13.395 -1.2514 -3.2904  0.3046
 6483TIP3   OH240939   2.543   6.203   1.347 -0.0802 -0.6593 -0.0027
 6483TIP3    H140940   2.495   6.124   1.322 -0.9372 -0.2154  0.1995
 6483TIP3    H240941   2.532   6.208   1.442 -0.8839  0.2362 -0.1316
 6484TIP3   OH240942   2.698   3.636   3.851 -0.0111  0.1743  0.3864
 6484TIP3    H140943   2.787   3.603   3.842  0.8089  2.1966  0.7582
 6484TIP3    H240944   2.644   3.575   3.801  1.9541  0.5421 -2.2855
 6485TIP3   OH240945   1.712   0.695   4.533 -0.2312 -0.3837 -0.1760
 6485TIP3    H140946   1.624   0.687   4.497 -0.1847 -0.6002 -0.2417
 6485TIP3    H240947   1.771   0.688   4.458 -0.2616  3.4414 -0.6603
 6486TIP3   OH240948   1.974   3.582  15.598  0.1580 -0.4685 -0.5276
 6486TIP3    H140949   2.050   3.638  15.614  0.9489 -1.1244 -1.8289
 6486TIP3    H240950   1.946   3.553  15.684  0.4279  1.0331  0.0763
 6487TIP3   OH240951   1.855   4.557   5.026 -0.6201  0.0387  0.1136
 6487TIP3    H140952   1.812   4.542   4.941  1.1300  0.6895 -0.9047
 6487TIP3    H240953   1.922   4.489   5.031 -1.7652 -1.0129  1.7380
 6488TIP3   OH240954   2.096   3.378   0.335  0.0574 -0.2361  0.9629
 6488TIP3    H140955   2.185   3.370   0.302 -0.3259 -2.6396  0.4474
 6488TIP3    H240956   2.106   3.416   0.423  1.5507 -0.0290  0.7114
 6489TIP3   OH240957   0.262   3.348  10.257  0.1651  0.1124 -0.5672
 6489TIP3    H140958   0.212   3.402  10.318  0.5651  0.8708 -0.9154
 6489TIP3    H240959   0.195   3.304  10.204 -0.1427  1.1288 -1.0325
 6490TIP3   OH240960   2.444   0.670   2.247  0.0323 -0.1287  0.2089
 6490TIP3    H140961   2.495   0.631   2.318 -0.5663 -2.3944 -0.5670
 6490TIP3    H240962   2.431   0.761   2.274  2.7899 -0.0260  1.3448
 6491TIP3   OH240963   5.245   6.160  13.983 -0.0433 -0.1646  0.0692
 6491TIP3    H140964   5.282   6.183  13.898 -2.6027  0.2320 -0.9980
 6491TIP3    H240965   5.155   6.135  13.964 -0.5519 -0.4680  2.6225
 6492TIP3   OH240966   2.310   1.014  14.287 -0.2426  0.5974  0.1502
 6492TIP3    H140967   2.239   1.065  14.248 -0.4642  0.3364  0.2033
 6492TIP3    H240968   2.287   1.008  14.380 -2.0754 -2.5173 -0.4155
 6493TIP3   OH240969   5.164   5.503   0.245 -0.3523 -0.0927  0.2582
 6493TIP3    H140970   5.224   5.566   0.286  0.2776  0.1411 -0.9818
 6493TIP3    H240971   5.161   5.429   0.306  0.5494  0.2471  0.7290
 6494TIP3   OH240972   3.372   1.267   1.764 -0.5725  0.1827  0.5042
 6494TIP3    H140973   3.316   1.334   1.725  1.3673  2.2262  1.1109
 6494TIP3    H240974   3.330   1.184   1.741 -0.0955  1.2598 -5.1285
 6495TIP3   OH240975   6.064   2.652  12.290 -0.4143  0.0818 -0.6581
 6495TIP3    H140976   6.037   2.560  12.290 -1.7706  0.4512 -2.2416
 6495TIP3    H240977   6.157   2.649  12.267  0.2131 -1.0303  1.9366
 6496TIP3   OH240978   0.031   2.302   1.990 -0.2279 -0.7870  0.2983
 6496TIP3    H140979   0.079   2.305   1.908  0.3409 -1.2269  0.6089
 6496TIP3    H240980  -0.032   2.231   1.979 -0.3498 -0.6542  0.1383
 6497TIP3   OH240981   0.389   3.254   0.239 -0.5814 -0.1211  0.2911
 6497TIP3    H140982   0.412   3.214   0.323  1.7010 -1.6688 -1.0074
 6497TIP3    H240983   0.434   3.339   0.239  0.1353 -0.5011  0.2756
 6498TIP3   OH240984   5.136   3.483  13.030  0.2559  0.1750  0.2677
 6498TIP3    H140985   5.219   3.508  12.990  1.1456 -0.4178  1.6878
 6498TIP3    H240986   5.101   3.565  13.066 -0.2348  0.5891 -1.0998
 6499TIP3   OH240987   4.537   5.437   4.666  0.5782 -0.4018 -0.5152
 6499TIP3    H140988   4.539   5.530   4.685 -2.5512  0.0516 -2.1036
 6499TIP3    H240989   4.603   5.423   4.599  0.9996  0.6953 -0.3193
 6500TIP3   OH240990   2.331   6.752  14.499  0.6290  0.6512  0.1658
 6500TIP3    H140991   2.396   6.725  14.565  1.4597 -3.0115 -2.0158
 6500TIP3    H240992   2.384   6.784  14.425 -0.1357  0.2032 -0.5795
 6501TIP3   OH240993   4.423   2.297  11.545  0.3987 -0.1273  0.3676
 6501TIP3    H140994   4.417   2.389  11.520 -1.5672 -0.5682 -0.9189
 6501TIP3    H240995   4.480   2.257  11.479  0.4553 -0.0213  0.3535
 6502TIP3   OH240996   3.761   3.291  14.235 -0.6262 -0.1519  0.0146
 6502TIP3    H140997   3.756   3.223  14.167  0.8116  1.3756 -1.6429
 6502TIP3    H240998   3.844   3.275  14.279 -0.5781  0.1624  0.0364
 6503TIP3   OH240999   5.729   4.498  14.511  0.3370  0.3739  0.3677
 6503TIP3    H141000   5.784   4.566  14.471  0.5815  0.8170  1.4104
 6503TIP3    H241001   5.771   4.415  14.486 -0.3382  0.5728 -1.4547
 6504TIP3   OH241002   5.889   1.713  13.932  0.1638  0.0321 -0.3040
 6504TIP3    H141003   5.828   1.786  13.923 -0.7108 -0.4299  1.7376
 6504TIP3    H241004   5.974   1.750  13.907 -0.2781  1.7396  0.6446
 6505TIP3   OH241005   5.847   2.434   4.215  0.1381 -0.4749 -0.1593
 6505TIP3    H141006   5.778   2.501   4.224 -0.3589 -1.0885  0.6542
 6505TIP3    H241007   5.908   2.471   4.151 -1.0383  0.0119 -1.0248
 6506TIP3   OH241008   0.814   3.689   0.670 -0.4389 -0.7488 -0.4142
 6506TIP3    H141009   0.793   3.750   0.741  0.4229 -2.0993  1.0433
 6506TIP3    H241010   0.842   3.609   0.715 -0.8406 -1.9738 -2.2892
 6507TIP3   OH241011   1.243   3.041  11.184  0.3674 -0.2180  0.0405
 6507TIP3    H141012   1.290   2.999  11.112  0.9642 -1.3061  1.0294
 6507TIP3    H241013   1.311   3.061  11.248 -0.1081  1.0515  0.1588
 6508TIP3   OH241014   3.883   4.671  17.049 -0.0725  0.6596 -0.1650
 6508TIP3    H141015   3.937   4.604  17.007 -1.1924 -0.3533 -0.0062
 6508TIP3    H241016   3.859   4.731  16.979 -1.2249 -0.5506 -0.8200
 6509TIP3   OH241017   1.918   0.288  15.478  0.4147  0.6863  0.2946
 6509TIP3    H141018   1.833   0.258  15.446 -0.8541  0.7011  3.3798
 6509TIP3    H241019   1.982   0.250  15.419 -1.8009  2.0116 -3.1028
 6510TIP3   OH241020   5.696   5.170   2.755  0.1460  0.0877 -0.2720
 6510TIP3    H141021   5.759   5.191   2.686  1.3214  2.0943  1.3297
 6510TIP3    H241022   5.751   5.140   2.828 -0.8333  0.7947  0.7706
 6511TIP3   OH241023   5.891   5.579  14.777  0.5302 -0.6211 -0.3016
 6511TIP3    H141024   5.796   5.579  14.763  0.6700  1.1532 -1.3704
 6511TIP3    H241025   5.901   5.563  14.871 -0.8920  0.9087  0.1341
 6512TIP3   OH241026   2.156   3.885  15.508 -0.2477 -0.3019 -0.4106
 6512TIP3    H141027   2.082   3.939  15.538  0.8481  0.8415  0.3209
 6512TIP3    H241028   2.117   3.819  15.452 -1.7149  0.9100 -0.8482
 6513TIP3   OH241029   6.791   1.398   3.049  0.1582  0.2584  0.1997
 6513TIP3    H141030   6.761   1.489   3.049 -0.1393  0.1829 -1.7843
 6513TIP3    H241031   6.719   1.349   3.089  0.1002  0.8255  0.7950
 6514TIP3   OH241032   3.631   0.876  13.167 -0.3565 -0.8607  0.2881
 6514TIP3    H141033   3.594   0.826  13.239  0.6046  0.7389  1.9194
 6514TIP3    H241034   3.597   0.965  13.178  0.3833 -0.4203 -0.7945
 6515TIP3   OH241035   4.231   0.772   3.622  0.3609 -0.4643  0.4112
 6515TIP3    H141036   4.182   0.828   3.562 -0.7478 -2.0418 -0.2062
 6515TIP3    H241037   4.318   0.812   3.628 -0.3342  1.1741 -0.1737
 6516TIP3   OH241038   3.066   0.229   0.907  0.0332  0.1043 -0.0317
 6516TIP3    H141039   3.156   0.260   0.896 -0.3745  1.6133  0.7785
 6516TIP3    H241040   3.072   0.134   0.895  1.7836  0.1506  0.3527
 6517TIP3   OH241041   0.827   5.238  11.830 -0.0834  0.6689 -0.3347
 6517TIP3    H141042   0.864   5.305  11.888  0.3076  0.3530 -0.2198
 6517TIP3    H241043   0.741   5.220  11.867  0.1279  0.5318  0.1031
 6518TIP3   OH241044   4.149   5.005  13.833  0.8401 -0.4753  0.4820
 6518TIP3    H141045   4.204   4.931  13.806 -0.1462 -0.4338 -1.7783
 6518TIP3    H241046   4.192   5.081  13.793 -1.6145 -0.6090 -2.6034
 6519TIP3   OH241047   0.190   6.325  13.477  0.0158 -0.5315  0.0266
 6519TIP3    H141048   0.284   6.335  13.494  0.0309  1.1731 -0.9037
 6519TIP3    H241049   0.149   6.395  13.527 -0.4967  0.4790 -1.7541
 6520TIP3   OH241050   4.780   2.710   0.752  0.5184 -0.2074 -0.0734
 6520TIP3    H141051   4.734   2.723   0.668  0.5448 -0.8775 -0.1990
 6520TIP3    H241052   4.860   2.761   0.744  0.7411 -0.6364 -0.6452
 6521TIP3   OH241053   4.856   5.667  15.106  0.3958  0.1647 -0.4170
 6521TIP3    H141054   4.821   5.716  15.032 -0.9219 -0.2339 -0.0904
 6521TIP3    H241055   4.778   5.639  15.155  1.1141 -1.9058 -0.3972
 6522TIP3   OH241056   5.777   0.639   6.149 -0.1747  0.0150  0.0826
 6522TIP3    H141057   5.762   0.618   6.241  0.1130  0.9588  0.3414
 6522TIP3    H241058   5.864   0.677   6.146  0.3894 -1.3206 -0.7945
 6523TIP3   OH241059   1.291   4.930   3.841  0.6748 -0.3791  0.4811
 6523TIP3    H141060   1.239   4.880   3.778  2.0901 -2.1899  0.6909
 6523TIP3    H241061   1.380   4.925   3.807  1.1084  0.5530  1.4485
 6524TIP3   OH241062   2.043   0.175  11.132  0.0825  0.3286 -0.0510
 6524TIP3    H141063   2.021   0.116  11.060  0.8010  1.2800 -1.0714
 6524TIP3    H241064   1.999   0.258  11.110  0.5395  0.7081  0.4501
 6525TIP3   OH241065   4.768   2.538  12.888  0.0635 -0.0535  0.0199
 6525TIP3    H141066   4.817   2.523  12.969  0.1062 -1.4601 -0.2567
 6525TIP3    H241067   4.774   2.633  12.874  3.2474 -0.2499 -0.3419
 6526TIP3   OH241068   3.924   2.118  16.977  0.4046 -0.0295 -0.2842
 6526TIP3    H141069   4.007   2.137  16.933  1.4982 -3.0361  0.3942
 6526TIP3    H241070   3.950   2.086  17.064 -1.4592 -1.2162 -0.1511
 6527TIP3   OH241071   3.605   4.507   3.970  0.0838  0.7054  0.1245
 6527TIP3    H141072   3.594   4.452   4.047 -1.7659  0.2101 -0.4845
 6527TIP3    H241073   3.680   4.469   3.924  0.4607  0.3073  1.0641
 6528TIP3   OH241074   5.300   5.409   5.158 -0.4561  0.2282  0.3677
 6528TIP3    H141075   5.260   5.435   5.075  0.0657 -0.0942  0.0163
 6528TIP3    H241076   5.253   5.461   5.224  0.0447  1.5088 -0.2538
 6529TIP3   OH241077   3.715   1.193  13.371  0.1638  0.3176 -0.0718
 6529TIP3    H141078   3.661   1.172  13.447  0.6047 -0.6232 -0.0167
 6529TIP3    H241079   3.665   1.160  13.296  0.3340  0.0773 -0.0813
 6530TIP3   OH241080   2.427   3.260   0.477 -0.3857 -0.0779  0.3937
 6530TIP3    H141081   2.341   3.246   0.517 -0.9193  1.2535 -0.2389
 6530TIP3    H241082   2.408   3.279   0.385  0.7172 -1.5110 -0.1365
 6531TIP3   OH241083   3.049   6.135   5.318  0.1183  0.8061  0.4857
 6531TIP3    H141084   3.127   6.165   5.366  2.5747 -1.7667 -1.7006
 6531TIP3    H241085   3.033   6.047   5.352 -1.1386  0.8763  0.0744
 6532TIP3   OH241086   1.829   6.287  16.589  0.2163 -0.3138  0.4437
 6532TIP3    H141087   1.737   6.262  16.596  0.4681 -1.3577  0.1673
 6532TIP3    H241088   1.847   6.339  16.668 -0.5066 -0.4403  0.6906
 6533TIP3   OH241089   5.901   5.371  14.543 -0.3853 -0.4055  0.1537
 6533TIP3    H141090   5.872   5.341  14.456 -0.0437  1.0917 -0.4849
 6533TIP3    H241091   5.849   5.450  14.560  0.0643 -0.2853  0.9986
 6534TIP3   OH241092   6.704   3.511   5.458  0.0864 -0.0502  0.2256
 6534TIP3    H141093   6.707   3.498   5.363 -0.2959  1.4157  0.0102
 6534TIP3    H241094   6.783   3.561   5.478  0.2484 -0.4913  0.7147
 6535TIP3   OH241095   1.435   3.355   5.122  0.1582 -0.0622 -0.5002
 6535TIP3    H141096   1.385   3.426   5.081 -0.4273 -0.4682 -0.5045
 6535TIP3    H241097   1.526   3.374   5.102  0.1428  1.5546  0.8457
 6536TIP3   OH241098   5.373   0.127   2.852 -0.0097  0.2871  0.0248
 6536TIP3    H141099   5.290   0.098   2.890  0.7488  0.0874  1.5630
 6536TIP3    H241100   5.383   0.217   2.883  1.2308 -0.2958  1.4090
 6537TIP3   OH241101   5.410   3.856   1.358  0.2007  0.0609  0.1209
 6537TIP3    H141102   5.329   3.806   1.371 -0.4137  0.6026 -1.4580
 6537TIP3    H241103   5.417   3.866   1.263  2.9128 -1.2286  0.1426
 6538TIP3   OH241104   1.860   6.361   1.167 -0.5118  0.4043 -0.1310
 6538TIP3    H141105   1.886   6.274   1.197  0.2758 -0.2274 -2.5060
 6538TIP3    H241106   1.835   6.348   1.075 -0.2229  2.7008 -0.5591
 6539TIP3   OH241107   6.393   0.288  17.084  0.5130  0.0548  0.0659
 6539TIP3    H141108   6.401   0.202  17.042  0.6913  1.3947 -2.7917
 6539TIP3    H241109   6.304   0.316  17.065  0.2711  0.2917  1.4722
 6540TIP3   OH241110   5.248   0.865  13.763  0.0101  0.0768  0.2894
 6540TIP3    H141111   5.215   0.842  13.676  0.3749 -3.0743  0.9105
 6540TIP3    H241112   5.340   0.889  13.748  0.3090 -1.2594 -0.1198
 6541TIP3   OH241113   2.223   2.760  17.236 -0.5289  0.6739  0.3214
 6541TIP3    H141114   2.216   2.693  17.303  0.5172 -0.6527 -0.8546
 6541TIP3    H241115   2.283   2.825  17.273  0.2813 -0.1971  0.5619
 6542TIP3   OH241116   4.000   0.441  11.900 -0.3963  0.3286  0.3521
 6542TIP3    H141117   3.966   0.371  11.956 -1.2704 -0.4876 -1.1575
 6542TIP3    H241118   3.961   0.521  11.935 -1.2450 -0.2147  0.6703
 6543TIP3   OH241119   6.284   5.795  14.648  0.1732  0.2310  0.3148
 6543TIP3    H141120   6.221   5.766  14.582 -0.9708  1.7634  0.7079
 6543TIP3    H241121   6.283   5.891  14.642  1.2850  0.3305  1.4330
 6544TIP3   OH241122   0.540   3.296  12.259  0.1205  0.2655  0.4133
 6544TIP3    H141123   0.554   3.374  12.312 -0.2807  0.1244  0.7323
 6544TIP3    H241124   0.614   3.294  12.198 -0.4537  1.5094 -0.3472
 6545TIP3   OH241125   2.569   3.328  11.560  0.5091 -0.2672 -0.2728
 6545TIP3    H141126   2.611   3.396  11.613  1.2181 -0.8957 -0.0147
 6545TIP3    H241127   2.475   3.347  11.566  0.7560  1.3022 -1.0609
 6546TIP3   OH241128   1.687   2.048   4.116 -0.5153 -0.6150  0.3327
 6546TIP3    H141129   1.646   2.073   4.199  1.1301  2.7837  0.1930
 6546TIP3    H241130   1.624   2.073   4.049 -0.8234 -1.1380  0.4240
 6547TIP3   OH241131   5.758   3.431   3.526 -0.1716  0.0904 -0.5628
 6547TIP3    H141132   5.794   3.514   3.557 -1.1967  0.2898  0.1382
 6547TIP3    H241133   5.706   3.455   3.449  0.3449 -0.0516 -0.9608
 6548TIP3   OH241134   4.389   5.723  14.978 -0.6524  0.0362 -0.1175
 6548TIP3    H141135   4.362   5.656  14.914  0.5759 -0.3665 -0.2331
 6548TIP3    H241136   4.478   5.696  15.004  0.1498  2.0290 -0.7193
 6549TIP3   OH241137   2.965   0.558   4.908  0.8203 -0.4397  0.1557
 6549TIP3    H141138   2.929   0.521   4.827  1.1881  3.1403 -1.7322
 6549TIP3    H241139   2.888   0.578   4.961  0.5599 -2.4362  0.5643
 6550TIP3   OH241140   2.200   3.330   0.666 -0.4060 -0.9835  0.6756
 6550TIP3    H141141   2.227   3.380   0.743 -0.8171 -2.4685  1.7961
 6550TIP3    H241142   2.112   3.363   0.646 -0.1924 -0.4078  0.6810
 6551TIP3   OH241143   0.899   5.816   5.060 -0.1963  0.2688 -0.0928
 6551TIP3    H141144   0.953   5.811   4.981 -0.6746  1.0878 -0.4734
 6551TIP3    H241145   0.809   5.808   5.028 -0.4087  0.9695  0.3319
 6552TIP3   OH241146   6.113   0.095   1.486  0.4059 -0.2315  0.1389
 6552TIP3    H141147   6.069   0.176   1.513  0.1248  0.2937 -1.7926
 6552TIP3    H241148   6.202   0.122   1.464  0.4506 -0.5320 -0.0545
 6553TIP3   OH241149   2.570   4.510  11.688  0.3916 -0.2311  0.7978
 6553TIP3    H141150   2.582   4.595  11.732 -1.1168  1.0578 -1.1549
 6553TIP3    H241151   2.656   4.470  11.687  1.0980  1.2351  1.8907
 6554TIP3   OH241152   4.400   4.090   1.329 -0.2392 -0.7335  0.0216
 6554TIP3    H141153   4.363   4.147   1.261 -1.2677 -1.2636  0.1203
 6554TIP3    H241154   4.442   4.019   1.281  3.1059  1.2660 -0.1848
 6555TIP3   OH241155   0.787   2.104   5.083 -0.4783  0.4842 -0.1723
 6555TIP3    H141156   0.731   2.063   5.149  1.0530 -0.0509  0.8108
 6555TIP3    H241157   0.801   2.035   5.018  0.0298  0.2286  0.2032
 6556TIP3   OH241158   4.407   2.295   0.008 -0.6644  0.1036 -0.8629
 6556TIP3    H141159   4.326   2.319   0.054 -0.0300 -1.1598  0.9909
 6556TIP3    H241160   4.465   2.264   0.077  1.0561  0.0347 -2.3068
 6557TIP3   OH241161   3.395   6.408  13.479  0.1948  0.4726  0.0815
 6557TIP3    H141162   3.385   6.503  13.488  1.6709  0.7470 -1.0567
 6557TIP3    H241163   3.422   6.395  13.389 -5.2094 -1.5019 -1.4410
 6558TIP3   OH241164   3.208   1.774   4.921 -0.0408 -0.4464 -0.1858
 6558TIP3    H141165   3.125   1.794   4.878 -0.5015 -1.1145  0.3906
 6558TIP3    H241166   3.239   1.694   4.879 -0.1790 -0.7516  0.2978
 6559TIP3   OH241167   3.773   6.053   2.909  0.3075  0.1978  0.7215
 6559TIP3    H141168   3.737   6.138   2.881 -2.8602 -1.7887 -1.6635
 6559TIP3    H241169   3.777   6.059   3.004 -2.1738  2.2341  0.7683
 6560TIP3   OH241170   3.975   3.230  15.902  0.2438  0.5353  0.6441
 6560TIP3    H141171   3.999   3.319  15.928  1.1522  0.3165  0.5585
 6560TIP3    H241172   4.052   3.178  15.921 -0.3649 -0.2766  0.8896
 6561TIP3   OH241173   1.410   2.059   3.699 -0.2009 -0.0002  0.3834
 6561TIP3    H141174   1.437   1.979   3.745  1.4007 -0.2314 -0.9067
 6561TIP3    H241175   1.325   2.036   3.661  0.7469 -1.5125 -0.9123
 6562TIP3   OH241176   4.931   6.494   3.558 -0.6540  0.2769 -0.3577
 6562TIP3    H141177   5.027   6.494   3.558 -0.5657 -1.2754 -4.5794
 6562TIP3    H241178   4.907   6.586   3.544  0.0516  1.0756  3.0085
 6563TIP3   OH241179   5.893   1.321  15.067 -0.3841  0.6154 -0.1474
 6563TIP3    H141180   5.825   1.304  15.002 -1.0111  0.2694  0.5855
 6563TIP3    H241181   5.915   1.234  15.101  1.3846  0.5652 -1.3153
 6564TIP3   OH241182   6.405   5.685  10.864  0.5372 -0.8020 -0.4704
 6564TIP3    H141183   6.488   5.705  10.908  0.3872 -0.0606 -0.5258
 6564TIP3    H241184   6.376   5.603  10.904  1.1965 -0.9559 -0.3074
 6565TIP3   OH241185   6.074   6.170   1.331  0.6106 -0.6755 -0.0169
 6565TIP3    H141186   6.025   6.153   1.251 -3.8032  2.1808  1.9205
 6565TIP3    H241187   6.092   6.264   1.330 -0.9120 -0.2764  2.9926
 6566TIP3   OH241188   6.546   6.377   6.284  0.3248 -0.0946 -0.3607
 6566TIP3    H141189   6.619   6.404   6.340  0.6606 -0.1814 -0.7487
 6566TIP3    H241190   6.476   6.354   6.345  0.1198  1.4144 -0.0195
 6567TIP3   OH241191   5.992   4.139   1.072 -0.8390 -0.5133  0.1260
 6567TIP3    H141192   5.994   4.199   1.146  1.1921  0.9064 -1.0034
 6567TIP3    H241193   6.066   4.079   1.088 -1.9014 -1.7517  0.4658
 6568TIP3   OH241194   3.219   2.525  12.890  0.2095  0.6742 -0.0347
 6568TIP3    H141195   3.177   2.534  12.805 -0.8018 -0.5481  0.3202
 6568TIP3    H241196   3.257   2.611  12.908 -0.0750  1.0966 -1.4467
 6569TIP3   OH241197   1.382   3.508   2.925 -0.4957 -0.3535 -0.1213
 6569TIP3    H141198   1.408   3.472   3.011 -2.1919 -0.5051  0.3395
 6569TIP3    H241199   1.315   3.574   2.946 -0.9452 -0.4212 -1.3377
 6570TIP3   OH241200   0.232   4.979  14.072 -0.2028 -0.4601  0.2423
 6570TIP3    H141201   0.187   4.951  13.993 -0.1030 -1.2654  0.4724
 6570TIP3    H241202   0.209   5.072  14.081  1.0684  0.0515 -1.6054
 6571TIP3   OH241203   4.822   5.147  13.490 -0.1771  0.6698 -0.1085
 6571TIP3    H141204   4.841   5.225  13.438  1.3640  0.5836  0.2917
 6571TIP3    H241205   4.864   5.164  13.574  0.1498 -0.5641 -0.0096
 6572TIP3   OH241206   2.031   3.768   2.469  0.0361 -0.0674  0.2245
 6572TIP3    H141207   2.045   3.691   2.524 -0.5794  0.2152  0.7849
 6572TIP3    H241208   2.045   3.842   2.528  0.3745  0.2479 -0.2527
 6573TIP3   OH241209   5.340   5.791  10.815 -0.5839  0.6151  0.0150
 6573TIP3    H141210   5.294   5.741  10.882 -1.1061 -0.6833 -1.3128
 6573TIP3    H241211   5.366   5.726  10.749  0.2434  1.8226 -0.8751
 6574TIP3   OH241212   3.543   3.194  14.378  0.2481  0.2190  0.0339
 6574TIP3    H141213   3.523   3.133  14.307  0.0353  0.6974 -0.3167
 6574TIP3    H241214   3.627   3.232  14.355  0.0644  0.5545 -0.0827
 6575TIP3   OH241215   1.970   5.412  16.563 -0.2995  0.3583 -0.0271
 6575TIP3    H141216   2.017   5.329  16.571 -0.6389  0.3736  2.6855
 6575TIP3    H241217   2.038   5.478  16.549  0.1145 -0.1223 -0.2774
 6576TIP3   OH241218   6.402   1.809  10.769  0.0079 -0.3229  0.6212
 6576TIP3    H141219   6.364   1.722  10.776 -2.3817  0.6946  0.5609
 6576TIP3    H241220   6.467   1.801  10.699 -1.6713 -1.5432 -0.8345
 6577TIP3   OH241221   3.433   2.795  15.151  0.1403  0.0307  0.0407
 6577TIP3    H141222   3.510   2.746  15.120 -0.1247  0.3282 -1.0898
 6577TIP3    H241223   3.376   2.800  15.075 -0.6825  0.4512  0.6844
 6578TIP3   OH241224   4.861   2.111   6.273  0.0330  0.0640 -0.4638
 6578TIP3    H141225   4.796   2.045   6.295  0.1114 -0.3351 -1.3997
 6578TIP3    H241226   4.873   2.161   6.353 -0.5987 -0.5691  0.0286
 6579TIP3   OH241227   2.557   3.645   6.275 -0.4145  0.3642  0.0291
 6579TIP3    H141228   2.624   3.692   6.324 -0.3016  0.5584 -0.3127
 6579TIP3    H241229   2.552   3.560   6.317  1.8109 -0.5708 -1.5041
 6580TIP3   OH241230   6.647   5.663  15.770 -0.1433 -0.9892  0.0142
 6580TIP3    H141231   6.575   5.599  15.772 -2.0995  1.1706  2.1297
 6580TIP3    H241232   6.607   5.743  15.737  1.4677  0.0789  0.6114
 6581TIP3   OH241233   6.017   4.956   0.936 -0.3004  0.0821 -0.4248
 6581TIP3    H141234   5.945   5.014   0.909 -0.7157 -0.7284 -1.0882
 6581TIP3    H241235   5.989   4.921   1.020  0.0179  0.9514  0.0510
 6582TIP3   OH241236   1.250   6.531   6.048 -0.2343  0.1427  0.4377
 6582TIP3    H141237   1.335   6.563   6.018 -0.9666  1.1340 -0.5772
 6582TIP3    H241238   1.259   6.435   6.047  0.9641  0.2544  0.6168
 6583TIP3   OH241239   5.191   2.406  16.675 -0.1940  0.0335  0.0526
 6583TIP3    H141240   5.105   2.425  16.713 -0.4991  0.3514 -0.7951
 6583TIP3    H241241   5.196   2.460  16.597  0.6046 -0.3086 -0.1418
 6584TIP3   OH241242   1.500   0.993   0.020  0.0943  0.1901 -0.0893
 6584TIP3    H141243   1.410   1.015  -0.005 -0.1125 -1.2558 -0.6887
 6584TIP3    H241244   1.509   0.900  -0.002  2.4262  0.8179 -2.0113
 6585TIP3   OH241245   3.741   4.404   2.706  0.4086 -0.1893  0.1393
 6585TIP3    H141246   3.682   4.368   2.639 -0.6395  0.7132  0.5515
 6585TIP3    H241247   3.811   4.339   2.714 -0.3888 -1.1624 -0.5627
 6586TIP3   OH241248   0.070   4.487  12.846  0.3891  0.1243  0.2726
 6586TIP3    H141249   0.154   4.524  12.873  0.0513  1.4678 -0.4452
 6586TIP3    H241250   0.069   4.496  12.751 -0.0105 -1.1078  0.1565
 6587TIP3   OH241251   3.296   0.359   1.013 -0.1389 -0.5650  0.3502
 6587TIP3    H141252   3.335   0.307   1.083 -1.3840 -2.3211 -0.2318
 6587TIP3    H241253   3.363   0.360   0.944  0.8574  0.6770  1.3119
 6588TIP3   OH241254   4.247   5.222   5.333  0.0443  0.0299 -0.1834
 6588TIP3    H141255   4.223   5.214   5.425 -0.1190  1.9312 -0.0343
 6588TIP3    H241256   4.239   5.133   5.298  0.5535 -0.7969  1.7307
 6589TIP3   OH241257   0.912   3.098  12.665  0.0388 -0.1950  0.0268
 6589TIP3    H141258   0.898   3.042  12.588  1.4468  1.3270 -1.3665
 6589TIP3    H241259   1.004   3.087  12.687  0.0915  0.8199  0.3419
 6590TIP3   OH241260   6.178   6.811   6.614 -0.7490 -0.8586  0.2945
 6590TIP3    H141261   6.221   6.887   6.653  0.4273 -1.3927  0.0609
 6590TIP3    H241262   6.101   6.796   6.668 -1.1469  0.6831  0.1652
 6591TIP3   OH241263   6.439   2.408  14.717  0.0274 -0.0258  0.3501
 6591TIP3    H141264   6.510   2.456  14.674 -1.9527  2.4710 -0.2569
 6591TIP3    H241265   6.442   2.436  14.808 -0.2249  0.1302  0.3095
 6592TIP3   OH241266   4.839   3.324   3.417 -0.3973  0.2654 -0.1762
 6592TIP3    H141267   4.934   3.321   3.422 -0.3991 -1.0695 -0.7465
 6592TIP3    H241268   4.810   3.341   3.506  0.3592  0.2192  0.0781
 6593TIP3   OH241269   1.222   5.587   2.012  0.1010  0.1242  0.4732
 6593TIP3    H141270   1.234   5.681   2.021  1.9017 -0.1533  1.0964
 6593TIP3    H241271   1.308   5.553   1.990 -0.5232 -1.3941  0.2740
 6594TIP3   OH241272   4.427   0.948   0.673  0.0110  0.2349 -0.2412
 6594TIP3    H141273   4.377   1.030   0.668 -1.2834 -0.4192  1.6862
 6594TIP3    H241274   4.376   0.885   0.622 -0.5048 -0.1122  0.6944
 6595TIP3   OH241275   0.249   2.250  17.093 -0.0095 -0.2768  0.0351
 6595TIP3    H141276   0.301   2.319  17.133 -1.1117  0.3841  0.3361
 6595TIP3    H241277   0.239   2.184  17.162 -1.2645  0.5162  0.6310
 6596TIP3   OH241278   0.353   3.563   3.578 -0.3418  0.4051  0.1270
 6596TIP3    H141279   0.440   3.595   3.553 -0.6551  1.3902  0.2726
 6596TIP3    H241280   0.305   3.558   3.495 -0.8470  2.0318  0.3109
 6597TIP3   OH241281   4.062   0.332   2.146 -0.3561  0.1973 -0.1322
 6597TIP3    H141282   3.974   0.357   2.176 -0.4063  0.5269 -0.5591
 6597TIP3    H241283   4.079   0.388   2.070  0.6747  0.9004  0.6038
 6598TIP3   OH241284   0.985   1.217  14.895 -0.0831 -0.1773  0.7330
 6598TIP3    H141285   0.910   1.158  14.904  0.6678 -1.7214 -2.4051
 6598TIP3    H241286   0.989   1.236  14.801  1.6993  2.2524  1.2604
 6599TIP3   OH241287   1.315   0.029  15.118  0.3453 -0.4337 -0.2461
 6599TIP3    H141288   1.245   0.089  15.091  1.6607  1.3780  0.2423
 6599TIP3    H241289   1.270  -0.051  15.142 -1.4566  0.2839 -1.1323
 6600TIP3   OH241290   5.935   1.927   0.525 -0.4493 -0.1053 -0.2821
 6600TIP3    H141291   5.986   1.935   0.605  0.8931  2.3256 -1.3647
 6600TIP3    H241292   5.896   1.839   0.531 -1.5375  0.5600  3.6913
 6601TIP3   OH241293   2.159   5.549  16.876  0.0440 -0.1042  0.5715
 6601TIP3    H141294   2.153   5.517  16.965  0.0101  0.1740  0.6694
 6601TIP3    H241295   2.070   5.575  16.853  0.2473  0.8629  0.8477
 6602TIP3   OH241296   0.519   3.990   2.076 -0.3866  0.6109 -0.1601
 6602TIP3    H141297   0.519   3.984   1.980  0.7843  0.8486 -0.1904
 6602TIP3    H241298   0.577   3.919   2.104 -2.6582 -1.0199  0.5079
 6603TIP3   OH241299   0.176   3.746   0.778  0.8850  0.2398  0.6293
 6603TIP3    H141300   0.244   3.756   0.845 -0.2445  0.8388  1.7126
 6603TIP3    H241301   0.120   3.823   0.789 -1.9262 -1.9124  2.0474
 6604TIP3   OH241302   0.997   1.290  14.627 -0.0339 -0.5797 -0.0964
 6604TIP3    H141303   1.027   1.345  14.555 -2.2308 -0.2857 -0.8186
 6604TIP3    H241304   0.909   1.323  14.648 -0.4090 -2.2408  1.0715
 6605TIP3   OH241305   4.230   4.482   0.560  0.3664  0.4475  0.1004
 6605TIP3    H141306   4.190   4.496   0.646  3.8800 -0.5399  2.0152
 6605TIP3    H241307   4.179   4.412   0.520 -1.9360  1.6172  0.9390
 6606TIP3   OH241308   6.522   5.782   4.666 -0.0975  0.3085  0.4054
 6606TIP3    H141309   6.503   5.711   4.605 -1.1972  2.0557 -1.3378
 6606TIP3    H241310   6.596   5.828   4.628 -1.6615  2.2412 -0.3692
 6607TIP3   OH241311   0.915   3.067   0.872  0.0466  0.8304  0.1075
 6607TIP3    H141312   0.867   3.116   0.939  0.6773 -0.0604  1.2441
 6607TIP3    H241313   0.894   2.975   0.891  0.4823  0.5582 -0.7226
 6608TIP3   OH241314   0.585   0.672   4.935  0.2202  0.1051 -0.1440
 6608TIP3    H141315   0.626   0.629   5.010  0.6988  0.5120 -0.1683
 6608TIP3    H241316   0.631   0.638   4.859  1.4815  1.6077 -0.0816
 6609TIP3   OH241317   0.275   6.249   1.709 -0.6053  0.6200 -0.1976
 6609TIP3    H141318   0.294   6.178   1.648 -0.5715  1.2368 -0.9021
 6609TIP3    H241319   0.357   6.260   1.758 -1.0906 -0.8727  0.9928
 6610TIP3   OH241320   3.480   4.930  12.752  0.1524 -0.7824  0.5761
 6610TIP3    H141321   3.417   4.943  12.823 -1.5902 -1.2477 -0.8741
 6610TIP3    H241322   3.486   4.835  12.742 -1.2280 -0.6879 -1.3183
 6611TIP3   OH241323   5.713   3.317   2.139 -0.1790  0.8042  0.1256
 6611TIP3    H141324   5.748   3.260   2.071 -0.7954 -0.3174  0.7389
 6611TIP3    H241325   5.641   3.364   2.098  1.0173  1.9882 -0.6972
 6612TIP3   OH241326   1.033   1.379   0.382 -0.0528  0.7462  0.2158
 6612TIP3    H141327   1.011   1.458   0.333 -1.4336  1.9704  2.6587
 6612TIP3    H241328   1.076   1.412   0.461 -1.3566 -0.8657  1.6297
 6613TIP3   OH241329   1.312   3.105  15.344  0.1776 -0.1032  0.1178
 6613TIP3    H141330   1.260   3.185  15.343 -0.7144 -0.6886 -1.2016
 6613TIP3    H241331   1.265   3.048  15.406 -0.5819 -0.5092 -0.8200
 6614TIP3   OH241332   4.479   2.306   2.615  0.3962 -0.2049 -0.2118
 6614TIP3    H141333   4.551   2.326   2.555  0.9037 -0.5508  0.2807
 6614TIP3    H241334   4.464   2.212   2.603  0.5189 -0.2798  0.2267
 6615TIP3   OH241335   3.911   2.819  17.277 -0.0381  0.0855 -0.4116
 6615TIP3    H141336   3.868   2.804  17.193 -0.9986 -2.8010  0.5199
 6615TIP3    H241337   3.932   2.731  17.309  1.2833  1.1822  1.8677
 6616TIP3   OH241338   1.814   1.537   1.932 -0.1668 -0.0067 -0.2959
 6616TIP3    H141339   1.775   1.539   1.845 -0.1983 -0.0543 -0.2830
 6616TIP3    H241340   1.741   1.513   1.990  0.2582 -1.8551 -0.4757
 6617TIP3   OH241341   4.058   5.119  11.794  0.3337 -0.1593  0.0052
 6617TIP3    H141342   3.966   5.143  11.809  0.0227 -2.6991  2.3965
 6617TIP3    H241343   4.108   5.190  11.834 -0.5097  1.7966 -2.2338
 6618TIP3   OH241344   2.101   0.800   0.367 -0.0600  1.1618 -0.5314
 6618TIP3    H141345   2.034   0.843   0.419  1.5452  0.7059  2.0384
 6618TIP3    H241346   2.183   0.819   0.413  0.9371 -2.9982 -0.3313
 6619TIP3   OH241347   3.894   4.256  13.340  0.3761  0.5405 -0.2668
 6619TIP3    H141348   3.947   4.306  13.402  2.0151 -1.3900 -0.0575
 6619TIP3    H241349   3.853   4.187  13.393  1.7291 -1.0761 -1.2885
 6620TIP3   OH241350   3.484   0.819   1.924 -0.0331  0.0116 -0.7714
 6620TIP3    H141351   3.496   0.751   1.991 -0.9350  1.1468  0.5561
 6620TIP3    H241352   3.557   0.879   1.938  1.1350 -0.9909 -2.3643
 6621TIP3   OH241353   4.378   1.169  16.581  0.2440 -0.4261  0.3393
 6621TIP3    H141354   4.390   1.154  16.487  0.7634  0.7587  0.2009
 6621TIP3    H241355   4.298   1.121  16.603 -0.4372  0.1016 -0.9201
 6622TIP3   OH241356   1.150   3.943   3.522 -0.0782 -0.1677  0.0527
 6622TIP3    H141357   1.207   3.881   3.477 -0.3676 -0.4267  0.0406
 6622TIP3    H241358   1.106   3.891   3.589 -0.5458 -0.0427 -0.1552
 6623TIP3   OH241359   2.937   1.258  17.023  0.3844 -0.2855 -0.3417
 6623TIP3    H141360   3.029   1.275  17.042  0.0061  0.2557  1.1237
 6623TIP3    H241361   2.900   1.232  17.108 -1.2899  1.6543 -0.4285
 6624TIP3   OH241362   4.325   1.360   1.008  0.3175 -0.6083 -0.5893
 6624TIP3    H141363   4.307   1.437   0.954  0.8192  0.4055  0.6457
 6624TIP3    H241364   4.404   1.321   0.969 -0.2514 -0.8222 -1.5451
 6625TIP3   OH241365   2.915   2.960  12.092 -0.3250 -0.4135 -0.3350
 6625TIP3    H141366   2.920   3.056  12.090  0.4243 -0.4178  0.6908
 6625TIP3    H241367   2.967   2.932  12.017  1.3223 -0.0400  0.6150
 6626TIP3   OH241368   6.806   3.052   4.893  0.0346  0.0574  0.0250
 6626TIP3    H141369   6.778   3.139   4.866 -0.8100 -0.5483 -1.1136
 6626TIP3    H241370   6.725   3.008   4.919  0.3809 -0.5644  0.0643
 6627TIP3   OH241371   4.649   1.453  15.485 -0.0725 -0.5929 -0.0512
 6627TIP3    H141372   4.635   1.532  15.433  1.6615 -0.5242 -0.4653
 6627TIP3    H241373   4.678   1.485  15.570 -0.6643 -0.7628  0.2184
 6628TIP3   OH241374   2.651   0.010   0.206 -0.2578  0.1037  0.2906
 6628TIP3    H141375   2.654   0.028   0.300 -0.3812 -1.2242  0.5648
 6628TIP3    H241376   2.724  -0.050   0.191 -0.2465  0.3085 -0.4617
 6629TIP3   OH241377   0.923   6.139   4.809  0.1252  0.1266  0.1451
 6629TIP3    H141378   0.852   6.077   4.795 -0.1927  0.8140 -1.3174
 6629TIP3    H241379   0.945   6.170   4.722  0.4194  1.9305  0.8543
 6630TIP3   OH241380   2.839   6.220  12.938 -0.1809 -0.1635  0.5802
 6630TIP3    H141381   2.796   6.305  12.941  0.5661  0.2899 -0.8073
 6630TIP3    H241382   2.842   6.190  13.029 -1.0952  0.9626  0.9840
 6631TIP3   OH241383   6.509   1.565  11.026  0.2368  0.4516  0.2954
 6631TIP3    H141384   6.518   1.659  11.036 -2.9679  0.7214  1.2226
 6631TIP3    H241385   6.461   1.554  10.944  0.4333 -0.3672  0.2866
 6632TIP3   OH241386   1.250   5.879  16.983  0.7658  0.5791 -0.1166
 6632TIP3    H141387   1.311   5.936  17.029 -0.3227  2.5374 -1.0531
 6632TIP3    H241388   1.305   5.814  16.939  2.0451  1.1713  0.5980
 6633TIP3   OH241389   2.973   0.321  12.579  0.0116  0.0901 -0.6621
 6633TIP3    H141390   3.050   0.315  12.522  0.0832  0.0159 -0.5569
 6633TIP3    H241391   2.958   0.231  12.608  0.3026  0.2121 -0.1278
 6634TIP3   OH241392   3.282   3.260   1.923  0.2128  0.2568  0.1402
 6634TIP3    H141393   3.264   3.226   1.835 -0.3613  0.1571  0.2943
 6634TIP3    H241394   3.262   3.187   1.982  3.2435 -0.6194  0.1960
 6635TIP3   OH241395   1.056   2.330  16.566  0.0468  0.2937 -0.8048
 6635TIP3    H141396   0.972   2.355  16.526 -0.0144 -0.0613 -0.9040
 6635TIP3    H241397   1.120   2.342  16.497  0.2683  1.7610 -0.3703
 6636TIP3   OH241398   4.482   2.041  15.735  0.7238 -0.6355  0.8318
 6636TIP3    H141399   4.412   2.011  15.794 -0.7754  0.7775 -0.1894
 6636TIP3    H241400   4.465   2.135  15.724  3.2854 -0.1101  1.2234
 6637TIP3   OH241401   5.472   3.051   2.516  0.6934  0.2133  0.1815
 6637TIP3    H141402   5.475   3.127   2.459  1.5198 -0.2004 -0.3314
 6637TIP3    H241403   5.555   3.053   2.564 -0.2772  0.9583  1.8986
 6638TIP3   OH241404   1.965   3.527  11.770  0.4013 -0.6552  0.0457
 6638TIP3    H141405   2.010   3.577  11.838 -0.0427  1.2112 -0.9981
 6638TIP3    H241406   2.022   3.451  11.756  0.7718 -0.7910  2.0959
 6639TIP3   OH241407   0.138   4.961  17.066  0.2361 -0.3679 -0.4147
 6639TIP3    H141408   0.178   5.027  17.009  2.0989 -1.7154 -0.7095
 6639TIP3    H241409   0.195   4.957  17.142  0.0998 -1.5551 -0.3568
 6640TIP3   OH241410   1.949   4.563  16.523  0.0063  0.2271 -0.3123
 6640TIP3    H141411   1.884   4.566  16.594 -1.2368 -1.4472 -1.3243
 6640TIP3    H241412   2.029   4.534  16.565 -0.3370  0.6555  0.6596
 6641TIP3   OH241413   6.439   4.701  15.566  0.5028 -0.1966 -0.6553
 6641TIP3    H141414   6.505   4.636  15.543  0.0714 -0.8793  0.0415
 6641TIP3    H241415   6.368   4.651  15.606  0.1440  0.6914 -0.1660
 6642TIP3   OH241416   5.748   1.001  11.122  0.0934  0.3973  0.5324
 6642TIP3    H141417   5.701   0.968  11.198  0.1078  0.0942  0.4078
 6642TIP3    H241418   5.700   0.968  11.047  1.3273 -1.1325  0.3810
 6643TIP3   OH241419   6.486   2.505   5.883 -0.5774  0.2367  0.3279
 6643TIP3    H141420   6.569   2.533   5.843 -0.7253  0.6710  0.3216
 6643TIP3    H241421   6.501   2.515   5.977 -0.3548 -0.4352  0.3657
 6644TIP3   OH241422   6.709   6.015  11.357 -0.1061  0.2692  0.7816
 6644TIP3    H141423   6.712   5.969  11.273 -1.3352  1.0964  0.2502
 6644TIP3    H241424   6.680   5.950  11.420  0.1402 -0.1860  0.4254
 6645TIP3   OH241425   5.184   6.104  12.626  0.2348 -0.4826 -0.1542
 6645TIP3    H141426   5.171   6.094  12.721 -0.1789 -1.2682 -0.2958
 6645TIP3    H241427   5.275   6.077  12.611  0.4167 -0.0115  0.0617
 6646TIP3   OH241428   2.165   4.608  13.524 -0.2327 -0.4765  0.0922
 6646TIP3    H141429   2.218   4.613  13.604  0.0566 -1.0271 -0.0652
 6646TIP3    H241430   2.153   4.700  13.499 -0.7278 -0.2794  1.0272
 6647TIP3   OH241431   4.114   4.076   2.009 -0.2766 -0.3151  0.1109
 6647TIP3    H141432   4.202   4.100   2.039  1.3368 -1.7780 -3.1247
 6647TIP3    H241433   4.084   4.011   2.072  1.0931 -0.0212  1.0852
 6648TIP3   OH241434   0.285   3.350  16.975 -0.8440  0.2024 -0.4237
 6648TIP3    H141435   0.252   3.437  16.950 -0.1855  0.2908 -0.9927
 6648TIP3    H241436   0.258   3.292  16.904 -0.2187  0.1791 -0.6433
 6649TIP3   OH241437   0.791   2.774  11.074 -0.0739  0.0543 -0.3846
 6649TIP3    H141438   0.821   2.701  11.020  0.0180 -1.1690  1.2546
 6649TIP3    H241439   0.729   2.821  11.019 -1.8540 -2.5881 -0.7106
 6650TIP3   OH241440   6.269   2.754   3.359  0.2481  0.3241  0.0994
 6650TIP3    H141441   6.243   2.722   3.445 -1.7781 -2.4531 -1.4484
 6650TIP3    H241442   6.222   2.838   3.350 -1.1198 -0.3294  0.9279
 6651TIP3   OH241443   4.649   2.950  13.765 -0.1957  0.0360 -0.0717
 6651TIP3    H141444   4.656   2.930  13.859 -2.5862 -0.7840 -0.0412
 6651TIP3    H241445   4.555   2.956  13.749  0.2177  0.9920 -2.2745
 6652TIP3   OH241446   3.597   3.565   1.376 -0.6699  0.1386  0.3029
 6652TIP3    H141447   3.507   3.595   1.364 -0.5052  0.9588  1.0576
 6652TIP3    H241448   3.589   3.472   1.399 -1.2704 -0.0042 -0.4773
 6653TIP3   OH241449   1.966   1.486   1.064  0.1446  0.5043 -0.4466
 6653TIP3    H141450   1.883   1.502   1.018  0.8580 -0.9577 -2.3071
 6653TIP3    H241451   2.032   1.493   0.995  1.3964 -0.2178  0.6782
 6654TIP3   OH241452   5.708   0.619  12.390 -0.0843  0.1643 -0.0014
 6654TIP3    H141453   5.625   0.650  12.355 -0.2380 -0.6527 -0.3701
 6654TIP3    H241454   5.774   0.674  12.349 -0.4971  1.3164  0.8742
 6655TIP3   OH241455   2.190   4.677  12.969  0.1811 -0.7205  0.0412
 6655TIP3    H141456   2.277   4.647  12.942  0.1850 -0.5067 -0.1941
 6655TIP3    H241457   2.173   4.752  12.912  0.1196 -0.3574  0.5441
 6656TIP3   OH241458   6.234   4.326   2.243  0.7573 -0.2909 -0.3534
 6656TIP3    H141459   6.235   4.421   2.243 -0.0118 -0.2785 -0.7550
 6656TIP3    H241460   6.159   4.302   2.297  1.2622 -0.6723  0.1820
 6657TIP3   OH241461   2.384   1.712  11.849 -0.3207  0.1527 -0.4910
 6657TIP3    H141462   2.295   1.732  11.819 -0.4855 -0.0686 -0.1440
 6657TIP3    H241463   2.429   1.797  11.847 -0.5040  0.2454 -0.7814
 6658TIP3   OH241464   6.012   2.871  13.734 -0.0427  0.1953  0.1026
 6658TIP3    H141465   5.983   2.826  13.813  0.0202 -0.6597 -0.3472
 6658TIP3    H241466   6.068   2.807  13.689  1.5582  1.3894  0.3584
 6659TIP3   OH241467   1.619   4.418  13.351  0.3843  0.5029  0.5874
 6659TIP3    H141468   1.587   4.501  13.314  0.6391  0.0854 -0.5900
 6659TIP3    H241469   1.714   4.431  13.357  0.6453 -0.3549 -1.3134
 6660TIP3   OH241470   2.040   0.994  15.844 -0.1355 -0.0932 -0.0754
 6660TIP3    H141471   2.041   1.064  15.778 -0.9247 -0.5066 -0.5263
 6660TIP3    H241472   1.978   1.025  15.911 -1.9647 -1.2247 -1.2236
 6661TIP3   OH241473   2.573   6.807  16.642  0.2044  0.2144  0.0762
 6661TIP3    H141474   2.668   6.809  16.634  0.2951 -0.5197  0.9285
 6661TIP3    H241475   2.542   6.794  16.552  0.8580  1.7723 -0.3819
 6662TIP3   OH241476   3.832   4.835  16.829 -1.2265 -0.4570  0.3247
 6662TIP3    H141477   3.774   4.797  16.764  0.0591  0.0196 -1.1238
 6662TIP3    H241478   3.911   4.859  16.781 -0.1890 -0.2136  2.0719
 6663TIP3   OH241479   2.698   2.168  16.488 -0.8843  0.5093 -0.0717
 6663TIP3    H141480   2.681   2.150  16.581 -2.0952 -0.1310 -0.4044
 6663TIP3    H241481   2.730   2.086  16.453  1.4389  1.2688  0.1759
 6664TIP3   OH241482   1.211   5.318   3.792  0.3103  0.6812 -0.1588
 6664TIP3    H141483   1.256   5.242   3.756 -0.5356  0.7579 -1.4277
 6664TIP3    H241484   1.119   5.306   3.766  0.4456  2.9236 -1.7596
 6665TIP3   OH241485   3.828   0.294  10.701  0.1709 -0.2353 -0.2886
 6665TIP3    H141486   3.787   0.314  10.617 -0.5280  0.2472  0.1582
 6665TIP3    H241487   3.823   0.199  10.709  1.3098 -0.3887 -1.3275
 6666TIP3   OH241488   0.181   2.877  14.447  0.4672  0.1370  0.7583
 6666TIP3    H141489   0.265   2.840  14.474  0.5094 -0.3706 -0.0500
 6666TIP3    H241490   0.161   2.832  14.365 -0.3122  0.6783  0.6530
 6667TIP3   OH241491   5.665   2.348  12.204 -0.0357  0.1098  0.2751
 6667TIP3    H141492   5.637   2.399  12.128  3.7077  1.7357 -0.1229
 6667TIP3    H241493   5.647   2.257  12.179 -3.1455  0.8833 -0.6071
 6668TIP3   OH241494   5.425   6.426   5.699 -0.1957 -0.6268 -0.1048
 6668TIP3    H141495   5.332   6.414   5.679 -0.2297 -3.2193  1.3446
 6668TIP3    H241496   5.426   6.491   5.769 -1.1842 -2.7472  1.9523
 6669TIP3   OH241497   0.171   3.587  13.095  0.4008 -0.0961 -0.2161
 6669TIP3    H141498   0.248   3.533  13.077  1.4454  0.8071  1.4380
 6669TIP3    H241499   0.153   3.573  13.187 -0.2815  1.1378 -0.1565
 6670TIP3   OH241500   2.861   5.697   6.100  0.0671  0.7138  0.0749
 6670TIP3    H141501   2.852   5.772   6.041 -1.0192 -0.5754 -1.4240
 6670TIP3    H241502   2.774   5.687   6.139  0.9717  2.0837  2.6196
 6671TIP3   OH241503   6.541   1.194  16.770  0.4440  0.4897  0.1067
 6671TIP3    H141504   6.633   1.177  16.789  0.9177  1.5080 -1.2080
 6671TIP3    H241505   6.510   1.112  16.731  1.5797  1.1096 -2.1802
 6672TIP3   OH241506   3.554   4.195  14.373 -0.0027 -0.2441  0.0176
 6672TIP3    H141507   3.522   4.280  14.343  1.9092  0.9732  1.3177
 6672TIP3    H241508   3.514   4.183  14.459 -0.3333 -0.7004 -0.2004
 6673TIP3   OH241509   5.482   5.766   1.856  0.1719  0.5616  0.2252
 6673TIP3    H141510   5.547   5.801   1.916  0.8185  1.1987 -0.8233
 6673TIP3    H241511   5.516   5.680   1.832 -0.9260 -0.4141  2.0415
 6674TIP3   OH241512   2.798   4.781   4.163  0.0908 -0.0420  0.1097
 6674TIP3    H141513   2.762   4.823   4.084  0.1631 -0.6672 -0.2591
 6674TIP3    H241514   2.883   4.747   4.135 -0.2379 -0.9840  0.2232
 6675TIP3   OH241515   5.787   4.261  11.948  0.0133 -0.3200 -0.6276
 6675TIP3    H141516   5.825   4.346  11.923 -1.1343 -0.0495 -1.5294
 6675TIP3    H241517   5.855   4.219  12.000  1.2078  0.5169 -1.4678
 6676TIP3   OH241518   1.429   6.361  16.794  0.5981  0.1691  0.7255
 6676TIP3    H141519   1.390   6.341  16.879 -0.1981 -1.0092  0.1050
 6676TIP3    H241520   1.361   6.410  16.747 -0.1303 -1.7102 -0.2824
 6677TIP3   OH241521   3.030   0.971  13.599  0.0458 -0.1893  0.0812
 6677TIP3    H141522   3.019   0.973  13.504 -0.1907  0.0296  0.1109
 6677TIP3    H241523   2.993   0.886  13.626  0.0568 -0.2247 -0.0181
 6678TIP3   OH241524   3.258   3.171   3.964  0.0208 -0.3068 -0.0614
 6678TIP3    H141525   3.295   3.175   3.876 -1.3116 -0.0371 -0.6189
 6678TIP3    H241526   3.330   3.141   4.019  2.0271  3.3245 -0.5667
 6679TIP3   OH241527   0.671   6.608  12.292 -0.3086  0.3138 -0.0546
 6679TIP3    H141528   0.590   6.580  12.332  0.2612  0.0029  0.8942
 6679TIP3    H241529   0.715   6.660  12.359 -0.1662  1.2996 -0.8949
 6680TIP3   OH241530   5.997   1.517  11.583 -0.2969 -0.4143  1.0462
 6680TIP3    H141531   5.953   1.438  11.614  0.7232 -1.4333 -0.0247
 6680TIP3    H241532   5.946   1.545  11.507 -0.9692  0.2679  1.7484
 6681TIP3   OH241533   3.671   6.427   3.421 -0.4743  0.3344  0.0955
 6681TIP3    H141534   3.710   6.504   3.379  1.1578 -0.3476  0.3080
 6681TIP3    H241535   3.718   6.419   3.504 -1.0048 -0.5803  0.3177
 6682TIP3   OH241536   2.505   5.836  17.169 -0.0070  0.1545  0.0726
 6682TIP3    H141537   2.459   5.800  17.094 -0.8649 -0.4504  0.8879
 6682TIP3    H241538   2.520   5.928  17.146  0.5757 -0.2476 -1.2293
 6683TIP3   OH241539   1.730   1.046   3.579 -0.4972  0.3260 -0.3811
 6683TIP3    H141540   1.807   1.076   3.627 -0.8780  0.6482  0.0275
 6683TIP3    H241541   1.706   0.963   3.620 -0.2445  0.1237 -0.6419
 6684TIP3   OH241542   0.083   2.486  11.672 -0.5035  0.6505  0.0123
 6684TIP3    H141543   0.179   2.487  11.678 -0.6286 -0.9689  3.4268
 6684TIP3    H241544   0.058   2.402  11.710 -3.3723  1.7652  0.6753
 6685TIP3   OH241545   5.319   4.199   1.949  0.3120 -0.0904  0.1195
 6685TIP3    H141546   5.271   4.130   1.902  1.1379  0.3334 -1.3740
 6685TIP3    H241547   5.373   4.151   2.012 -0.2194 -0.7171  0.1151
 6686TIP3   OH241548   5.567   2.809   0.022  0.6362 -0.2707 -0.1051
 6686TIP3    H141549   5.570   2.823  -0.073  1.7663 -2.1687 -0.3590
 6686TIP3    H241550   5.474   2.792   0.041  0.3897  0.2492 -0.8421
 6687TIP3   OH241551   0.500   5.167  15.241  0.0691 -0.4832  0.2208
 6687TIP3    H141552   0.456   5.154  15.157 -1.9625  0.0226  1.1757
 6687TIP3    H241553   0.579   5.218  15.219 -1.0222  0.6269 -1.2218
 6688TIP3   OH241554   0.117   3.628  14.303  0.1806  0.1004  0.2778
 6688TIP3    H141555   0.156   3.646  14.217 -1.4010 -0.1048 -0.5081
 6688TIP3    H241556   0.025   3.611  14.284 -0.6428  2.0690  2.2467
 6689TIP3   OH241557   4.198   2.791   4.147 -0.0403 -0.5755 -0.0295
 6689TIP3    H141558   4.156   2.733   4.083  0.0223  1.1414 -1.7037
 6689TIP3    H241559   4.266   2.836   4.097 -1.6446  2.6909  0.5288
 6690TIP3   OH241560   1.163   6.180  16.867  0.3835 -0.1378 -0.5880
 6690TIP3    H141561   1.092   6.124  16.897 -0.2038  1.6561  1.4699
 6690TIP3    H241562   1.123   6.235  16.800  0.1346  0.0805 -0.2585
 6691TIP3   OH241563   6.175   0.394   3.757 -0.4942  0.6677 -0.1527
 6691TIP3    H141564   6.135   0.416   3.841  0.7413  0.1000  0.6017
 6691TIP3    H241565   6.108   0.415   3.692 -2.5925 -1.6879  1.1763
 6692TIP3   OH241566   1.028   1.171   0.158 -0.4134  0.0283 -0.2992
 6692TIP3    H141567   0.962   1.222   0.112 -0.6715  0.2926  0.3556
 6692TIP3    H241568   1.056   1.228   0.230  0.1489 -0.2865 -0.2664
 6693TIP3   OH241569   4.843   0.186   5.952  0.0700 -0.1953 -0.0432
 6693TIP3    H141570   4.866   0.214   6.041 -0.8899 -1.6915  0.6816
 6693TIP3    H241571   4.772   0.124   5.964 -0.9969  0.6347 -1.9647
 6694TIP3   OH241572   4.232   5.654  11.967 -0.3759 -0.0766 -0.3071
 6694TIP3    H141573   4.139   5.671  11.951  0.0121  0.6577 -1.8695
 6694TIP3    H241574   4.250   5.571  11.922 -0.4956 -0.7455  0.8552
 6695TIP3   OH241575   4.432   2.737  12.180  0.0378 -0.0978  0.4369
 6695TIP3    H141576   4.404   2.753  12.270 -0.8306 -2.1308  0.5567
 6695TIP3    H241577   4.432   2.641  12.172  0.8769  0.0435 -1.4856
 6696TIP3   OH241578   1.486   3.099  11.860 -0.1695 -0.3046 -1.2762
 6696TIP3    H141579   1.503   3.191  11.878 -0.3731 -0.5198  0.1316
 6696TIP3    H241580   1.572   3.057  11.864 -0.3500 -0.5502  0.5440
 6697TIP3   OH241581   4.928   6.315  12.627 -0.1270  0.3351  0.3682
 6697TIP3    H141582   4.882   6.231  12.623  0.5727 -0.1144  1.4935
 6697TIP3    H241583   5.017   6.295  12.596 -0.3257  0.9362 -0.6071
 6698TIP3   OH241584   3.697   5.481   0.897  0.1712  0.6253  0.5024
 6698TIP3    H141585   3.737   5.566   0.915  0.0078  0.4165  1.9686
 6698TIP3    H241586   3.611   5.486   0.939  0.1170 -0.2143  0.5099
 6699TIP3   OH241587   4.518   5.519   6.095  0.0357 -0.4338 -0.2734
 6699TIP3    H141588   4.444   5.529   6.035  0.0419 -1.9242 -0.5592
 6699TIP3    H241589   4.489   5.452   6.158 -0.0307  1.2171  1.4878
 6700TIP3   OH241590   5.889   4.821  13.441  0.5641 -0.0400 -0.0258
 6700TIP3    H141591   5.889   4.846  13.349 -0.4703  2.3932  0.6016
 6700TIP3    H241592   5.860   4.729  13.441  0.2536  0.0380 -2.0870
 6701TIP3   OH241593   6.511   1.854   2.253 -0.0799 -0.4315  0.2247
 6701TIP3    H141594   6.454   1.787   2.290  0.2755  0.6676  2.8831
 6701TIP3    H241595   6.485   1.935   2.297 -0.9903  1.3866 -3.3956
 6702TIP3   OH241596   0.027   5.004   1.145  0.7161  0.0777 -0.3329
 6702TIP3    H141597  -0.044   5.068   1.155  0.0556 -0.6594 -0.1795
 6702TIP3    H241598   0.106   5.050   1.172 -0.0580  0.1851  1.8292
 6703TIP3   OH241599   2.013   5.294   0.511 -0.0527 -0.3017 -0.1809
 6703TIP3    H141600   2.037   5.328   0.597 -1.7149  1.3258 -0.3337
 6703TIP3    H241601   1.920   5.273   0.518 -0.3911  0.5234 -1.7715
 6704TIP3   OH241602   3.132   6.058  14.341  0.2670  0.7212 -0.0949
 6704TIP3    H141603   3.139   6.106  14.258  0.0810  0.8924 -0.0124
 6704TIP3    H241604   3.046   6.017  14.338  0.2088  0.8313  0.0699
 6705TIP3   OH241605   1.694   4.499  10.902 -0.6581 -0.1106  0.4897
 6705TIP3    H141606   1.681   4.588  10.936 -0.7072 -0.4438  1.3565
 6705TIP3    H241607   1.607   4.460  10.902 -0.6572 -0.1197 -0.0226
 6706TIP3   OH241608   6.763   6.003   3.841 -0.0172 -0.0374 -0.4626
 6706TIP3    H141609   6.722   6.027   3.924  0.8965  0.1584 -0.0620
 6706TIP3    H241610   6.703   6.034   3.774 -0.7652 -0.2116  0.1320
 6707TIP3   OH241611   4.127   6.160   5.413 -0.3722 -0.0173  0.3396
 6707TIP3    H141612   4.121   6.089   5.350  0.2004 -0.1982  0.4866
 6707TIP3    H241613   4.153   6.236   5.362  0.5802 -0.2751  0.4293
 6708TIP3   OH241614   6.427   4.966  14.708 -0.1402 -0.0157 -0.1787
 6708TIP3    H141615   6.424   4.998  14.617 -2.9213 -1.6484 -0.7107
 6708TIP3    H241616   6.444   5.045  14.760 -3.4999  1.8875 -1.7425
 6709TIP3   OH241617   3.116   5.150  15.190  0.5346  0.5463  0.2866
 6709TIP3    H141618   3.149   5.111  15.271 -0.0671  0.2352  0.3835
 6709TIP3    H241619   3.107   5.076  15.130 -0.6421  0.5235  0.4830
 6710TIP3   OH241620   4.111   4.191   1.761 -0.5111 -0.5160  0.5631
 6710TIP3    H141621   4.134   4.282   1.776  1.6748 -1.1048  1.0015
 6710TIP3    H241622   4.090   4.157   1.848 -2.1395 -0.2539  0.2979
 6711TIP3   OH241623   5.619   5.232  13.780  0.7035  0.5261 -0.2520
 6711TIP3    H141624   5.707   5.265  13.794  0.8242  0.4711 -0.8491
 6711TIP3    H241625   5.576   5.300  13.728 -0.2289  1.4598  1.6925
 6712TIP3   OH241626   6.513   3.495   2.398 -0.1895 -0.2570  0.1279
 6712TIP3    H141627   6.471   3.557   2.339  0.4773  0.3195  0.2391
 6712TIP3    H241628   6.505   3.535   2.485  3.3726  1.4605 -0.2483
 6713TIP3   OH241629   5.778   2.171  11.610  0.5214  0.0440 -0.4289
 6713TIP3    H141630   5.847   2.146  11.548  0.8637 -0.6402  0.2285
 6713TIP3    H241631   5.820   2.234  11.669  1.0197 -1.4925  0.8918
 6714TIP3   OH241632   0.108   3.559   1.278 -0.1261 -0.4688  0.0850
 6714TIP3    H141633   0.198   3.583   1.303  0.3984 -0.8096 -1.4447
 6714TIP3    H241634   0.067   3.643   1.257  0.3293 -0.4565 -0.7873
 6715TIP3   OH241635   1.621   2.246  16.306  0.0189  0.1259 -0.2024
 6715TIP3    H141636   1.546   2.208  16.261  1.6738 -0.3810 -2.6948
 6715TIP3    H241637   1.600   2.339  16.313 -0.3412  0.2149 -2.0516
 6716TIP3   OH241638   0.054   2.263   0.117 -0.4338 -0.2784 -0.1017
 6716TIP3    H141639   0.073   2.280   0.209  1.4782 -0.7310 -0.3972
 6716TIP3    H241640  -0.021   2.203   0.119 -2.0394  1.7266  1.0813
 6717TIP3   OH241641   4.431   5.609  11.555 -0.0523 -0.0256  0.0677
 6717TIP3    H141642   4.467   5.656  11.630  2.1715  1.0781 -1.6464
 6717TIP3    H241643   4.503   5.553  11.525 -1.0517 -0.7598 -1.0105
 6718TIP3   OH241644   0.074   1.324  16.943 -0.1707  0.1984  0.2913
 6718TIP3    H141645   0.050   1.278  17.023 -1.4199  2.2547  1.1228
 6718TIP3    H241646   0.007   1.392  16.933  0.3713  0.4191 -2.1083
 6719TIP3   OH241647   6.491   2.414   0.847  0.2761 -0.3293 -0.3475
 6719TIP3    H141648   6.492   2.321   0.870  1.5082 -0.1949  0.2142
 6719TIP3    H241649   6.533   2.418   0.761  2.1804 -0.0801  0.5710
 6720TIP3   OH241650   3.317   5.936  13.978 -0.1636  0.3383 -0.0083
 6720TIP3    H141651   3.290   5.909  14.066 -1.2517 -0.3905 -0.5417
 6720TIP3    H241652   3.296   6.029  13.973  2.8639  1.1603  1.5830
 6721TIP3   OH241653   2.380   2.581   5.447 -0.3466 -0.1678  0.2926
 6721TIP3    H141654   2.380   2.544   5.536  0.8587 -1.4838 -0.2355
 6721TIP3    H241655   2.441   2.654   5.452  2.0809 -2.0890 -0.1543
 6722TIP3   OH241656   4.984   1.980  13.705  0.2183 -0.3252  0.0501
 6722TIP3    H141657   4.981   2.024  13.621  0.7466 -2.1729 -0.9616
 6722TIP3    H241658   4.899   2.000  13.745 -0.6097 -0.5908 -1.5237
 6723TIP3   OH241659   3.993   3.173  14.307  0.3920  0.5156 -0.3853
 6723TIP3    H141660   4.049   3.201  14.380 -0.2755 -0.4877  0.5125
 6723TIP3    H241661   4.010   3.080  14.298  0.1617  0.5553 -1.2635
 6724TIP3   OH241662   6.806   0.670  16.552  0.2420  0.1322 -0.0206
 6724TIP3    H141663   6.801   0.595  16.493 -1.1086 -0.6699  1.0555
 6724TIP3    H241664   6.827   0.631  16.637 -0.8241  0.9253  0.6118
 6725TIP3   OH241665   4.858   6.473  11.409  0.5578  0.2842  0.6987
 6725TIP3    H141666   4.912   6.494  11.332  0.6825 -0.3740  0.6111
 6725TIP3    H241667   4.921   6.460  11.480  0.4202  1.3948  1.0379
 6726TIP3   OH241668   3.623   4.914  12.996  0.4599 -0.2759  0.0739
 6726TIP3    H141669   3.590   4.985  12.941  0.2999 -0.3663  0.0505
 6726TIP3    H241670   3.710   4.942  13.023  0.7292 -0.4491 -0.6155
 6727TIP3   OH241671   6.567   1.964  15.331  0.1957  0.1375 -0.0288
 6727TIP3    H141672   6.476   1.971  15.304  0.5366  0.4160 -1.1481
 6727TIP3    H241673   6.579   1.872  15.354  0.2346 -0.4275 -2.1783
 6728TIP3   OH241674   1.935   2.152   0.747 -0.0147 -0.6036  0.7809
 6728TIP3    H141675   1.883   2.120   0.673 -0.0795 -0.3377  0.7096
 6728TIP3    H241676   2.022   2.167   0.709  0.4405 -2.1835  1.1725
 6729TIP3   OH241677   4.436   5.799  17.146  0.0813  0.1960  0.1157
 6729TIP3    H141678   4.482   5.878  17.116  0.6510  0.2365  1.0952
 6729TIP3    H241679   4.462   5.789  17.238 -0.0501 -1.0842  0.0246
 6730TIP3   OH241680   5.646   6.115   0.429  0.2385 -0.0872 -0.0858
 6730TIP3    H141681   5.695   6.055   0.484  0.5021 -0.1021 -0.3391
 6730TIP3    H241682   5.712   6.161   0.378 -0.1022 -1.5258 -1.8831
 6731TIP3   OH241683   6.661   0.720  15.274  0.4185 -0.1048 -0.0275
 6731TIP3    H141684   6.649   0.663  15.198  3.5868 -3.1428  1.6274
 6731TIP3    H241685   6.603   0.684  15.341  0.2713  0.4182  0.1327
 6732TIP3   OH241686   4.869   5.580   0.399 -0.1922  0.3500 -0.0157
 6732TIP3    H141687   4.869   5.497   0.446 -1.1596 -0.1251 -0.8158
 6732TIP3    H241688   4.961   5.604   0.391 -0.0180  0.4632  2.1232
 6733TIP3   OH241689   6.048   4.593  16.698 -0.6497  0.1454  0.6704
 6733TIP3    H141690   6.079   4.599  16.608 -0.6379  0.9371  0.7148
 6733TIP3    H241691   6.017   4.503  16.708  1.0026 -0.4635  0.4242
 6734TIP3   OH241692   0.681   1.991  11.488  0.1752 -0.1726 -0.3262
 6734TIP3    H141693   0.688   1.954  11.400 -0.4896 -0.4524 -0.2656
 6734TIP3    H241694   0.626   1.928  11.536  1.2732 -0.4906  0.5402
 6735TIP3   OH241695   6.806   2.862  12.769 -0.3124  0.0164  0.0541
 6735TIP3    H141696   6.804   2.891  12.861  0.4247 -1.2924  0.5048
 6735TIP3    H241697   6.874   2.916  12.729  0.1903 -0.2208  0.5754
 6736TIP3   OH241698   1.117   3.754   2.655  0.3034 -0.5898  0.0601
 6736TIP3    H141699   1.172   3.676   2.647  1.5424  0.1928  0.7280
 6736TIP3    H241700   1.130   3.802   2.573  1.8328  0.3462  0.8237
 6737TIP3   OH241701   3.073   6.814   1.822  0.0879 -0.2792  0.3392
 6737TIP3    H141702   3.028   6.824   1.906 -1.3694 -0.2989 -0.4178
 6737TIP3    H241703   3.117   6.898   1.808  0.9208 -0.5192  1.4456
 6738TIP3   OH241704   4.225   1.286  10.890 -0.4132 -0.3907  0.8413
 6738TIP3    H141705   4.239   1.358  10.829 -0.1489  0.3396  1.7457
 6738TIP3    H241706   4.180   1.219  10.839 -2.3578  1.1499  0.4735
 6739TIP3   OH241707   1.096   1.671   1.748 -0.1022  0.0924 -0.7611
 6739TIP3    H141708   1.064   1.747   1.797  1.5467 -0.1887  0.7961
 6739TIP3    H241709   1.065   1.595   1.798  0.2973 -0.2171 -0.9825
 6740TIP3   OH241710   6.403   2.570   1.511  0.3354  0.0991  0.5485
 6740TIP3    H141711   6.325   2.625   1.502  0.7989  0.6653 -0.0089
 6740TIP3    H241712   6.369   2.480   1.514 -0.4208  0.4057  1.4055
 6741TIP3   OH241713   1.605   3.252   4.856 -0.0791 -0.0607 -0.2815
 6741TIP3    H141714   1.580   3.205   4.776  0.2731  0.6782 -0.8399
 6741TIP3    H241715   1.627   3.184   4.919  0.0447 -0.6446 -0.9527
 6742TIP3   OH241716   1.178   1.835  12.101 -0.4358  0.1855  0.1001
 6742TIP3    H141717   1.088   1.803  12.099 -1.0747  1.7226  2.2175
 6742TIP3    H241718   1.170   1.930  12.100  1.1834  0.3334  0.0962
 6743TIP3   OH241719   1.764   0.242  11.660 -0.7965 -0.4739  0.0000
 6743TIP3    H141720   1.799   0.268  11.575  0.4476  1.0920  0.9692
 6743TIP3    H241721   1.673   0.274  11.659 -0.2765  1.0402 -0.0937
 6744TIP3   OH241722   1.614   3.560  16.297  0.0900 -0.5801 -0.1835
 6744TIP3    H141723   1.600   3.504  16.373 -0.1582 -1.0951 -0.5989
 6744TIP3    H241724   1.573   3.512  16.225  0.1280  0.0078 -0.5970
 6745TIP3   OH241725   5.735   5.120   0.111 -0.3494 -0.4131  0.7412
 6745TIP3    H141726   5.764   5.117   0.202  1.9051 -0.1024  0.0777
 6745TIP3    H241727   5.752   5.032   0.078 -0.2642 -0.2627  0.3783
 6746TIP3   OH241728   2.316   0.615  14.559  0.4670  0.3508  0.3882
 6746TIP3    H141729   2.407   0.590  14.575 -0.4571 -2.3946  1.7051
 6746TIP3    H241730   2.318   0.659  14.474  2.5743 -2.4197 -1.1018
 6747TIP3   OH241731   1.964   1.157   6.561 -0.3543  0.6496 -0.0234
 6747TIP3    H141732   1.876   1.160   6.600  0.5566  1.7088  1.9998
 6747TIP3    H241733   2.000   1.073   6.589 -1.4122 -0.6397 -2.4389
 6748TIP3   OH241734   1.796   2.470  10.723 -0.0770  0.0820  0.0578
 6748TIP3    H141735   1.722   2.476  10.783 -1.7980 -0.1197 -1.9865
 6748TIP3    H241736   1.814   2.376  10.717 -0.4090  0.0431 -0.3378
 6749TIP3   OH241737   2.808   6.183  14.962  0.3251  0.5202  0.3540
 6749TIP3    H141738   2.844   6.094  14.968  0.9020  0.7966  1.0364
 6749TIP3    H241739   2.745   6.188  15.034  1.0560  1.0095  0.9634
 6750TIP3   OH241740   1.135   6.748   6.697  0.7047 -0.6113  0.9848
 6750TIP3    H141741   1.075   6.816   6.728  0.2008 -0.6552  0.1224
 6750TIP3    H241742   1.078   6.679   6.665  1.1927  0.0018 -1.2680
 6751TIP3   OH241743   2.929   3.261  11.268 -0.1862 -0.0560 -0.9713
 6751TIP3    H141744   2.970   3.179  11.296  1.5298  0.9627 -0.3769
 6751TIP3    H241745   2.842   3.259  11.308 -0.5322 -2.0152 -1.7804
 6752TIP3   OH241746   3.914   4.580  13.043  0.1797  0.4025  0.2402
 6752TIP3    H141747   3.941   4.516  12.977  1.1624  2.1730 -1.1122
 6752TIP3    H241748   3.826   4.607  13.017  0.0777  0.2084  0.3733
 6753TIP3   OH241749   2.699   3.949  16.937 -0.4838 -0.1000  0.1976
 6753TIP3    H141750   2.742   3.970  16.854 -0.6240 -0.0826  0.1278
 6753TIP3    H241751   2.723   4.022  16.995 -0.0282 -0.3327  0.3022
 6754TIP3   OH241752   1.041   2.930   2.175  0.7007 -0.0938  0.3764
 6754TIP3    H141753   0.971   2.959   2.115  1.2611 -2.4866 -1.5169
 6754TIP3    H241754   1.002   2.938   2.262 -2.3752 -2.3837 -0.6991
 6755TIP3   OH241755   0.610   1.977   1.607 -0.2318 -0.3459  0.2086
 6755TIP3    H141756   0.555   1.901   1.627  0.0199 -0.3588  0.8879
 6755TIP3    H241757   0.633   1.966   1.515  1.2723 -2.0771  0.7471
 6756TIP3   OH241758   4.904   1.305   1.608  0.6270  0.0609 -0.3941
 6756TIP3    H141759   4.973   1.364   1.641  1.7268 -0.8509 -1.0228
 6756TIP3    H241760   4.867   1.352   1.533 -1.1458  1.6576  1.4308
 6757TIP3   OH241761   1.038   1.667  13.295  0.1669 -0.7051  0.7807
 6757TIP3    H141762   0.968   1.647  13.233  1.6164 -1.9065 -0.5371
 6757TIP3    H241763   1.081   1.583  13.310  1.8743  0.1617  0.8751
 6758TIP3   OH241764   6.364   5.775  16.152 -0.2706  0.1196  0.3770
 6758TIP3    H141765   6.286   5.739  16.196  0.1946 -1.3768 -0.0028
 6758TIP3    H241766   6.329   5.829  16.082 -0.9807 -0.8240 -0.0102
 6759TIP3   OH241767   4.805   6.413   4.872 -0.3260 -0.0972 -0.2811
 6759TIP3    H141768   4.742   6.351   4.911 -0.9865 -0.0944 -1.3161
 6759TIP3    H241769   4.811   6.484   4.935  1.1755 -1.6434  1.3921
 6760TIP3   OH241770   2.546   6.167  13.244  0.0349 -0.3201 -0.0226
 6760TIP3    H141771   2.536   6.112  13.166 -0.0014  2.7581 -2.2883
 6760TIP3    H241772   2.468   6.222  13.244  0.2830  0.0668  1.9400
 6761TIP3   OH241773   4.826   4.093  15.113  0.4678  0.5529  0.6241
 6761TIP3    H141774   4.847   4.123  15.201 -1.5933 -1.2265  1.7685
 6761TIP3    H241775   4.853   4.164  15.055  1.8722  1.7190  2.6859
 6762TIP3   OH241776   2.794   3.544   3.569  0.4565 -0.5271 -0.0873
 6762TIP3    H141777   2.805   3.629   3.526  0.5734 -0.7657 -0.5295
 6762TIP3    H241778   2.720   3.503   3.524  0.6258 -0.8080 -0.1095
 6763TIP3   OH241779   5.545   4.186   1.574  0.1092  0.0726  0.2276
 6763TIP3    H141780   5.476   4.125   1.597 -1.1698  1.1783 -0.5795
 6763TIP3    H241781   5.544   4.252   1.644  0.4147  0.0324  0.2724
 6764TIP3   OH241782   0.535   3.726   4.741  0.0348  0.5190  0.1294
 6764TIP3    H141783   0.630   3.724   4.748  0.0245 -0.5679 -0.0139
 6764TIP3    H241784   0.507   3.640   4.771 -0.9839  1.2248  1.2675
 6765TIP3   OH241785   4.203   4.746   4.094 -0.0467  0.4068  0.8211
 6765TIP3    H141786   4.269   4.719   4.030 -1.3228  0.2241 -0.4420
 6765TIP3    H241787   4.245   4.733   4.179  1.0595 -0.9714  0.0769
 6766TIP3   OH241788   6.145   6.455   5.173  0.4375 -0.2524 -0.1320
 6766TIP3    H141789   6.103   6.372   5.192 -2.4181  1.2753  0.4358
 6766TIP3    H241790   6.146   6.501   5.257 -1.2531  1.6921 -1.1501
 6767TIP3   OH241791   3.930   2.757  16.598 -0.4327  0.0289 -0.1029
 6767TIP3    H141792   3.968   2.791  16.679 -1.0718  1.2079 -0.2799
 6767TIP3    H241793   3.839   2.738  16.621 -0.4446 -0.2544 -0.3756
 6768TIP3   OH241794   1.096   0.295   4.027 -0.0173 -0.5257  0.0605
 6768TIP3    H141795   1.168   0.242   3.994 -0.3740 -0.9396 -0.0606
 6768TIP3    H241796   1.019   0.262   3.980 -0.1991  0.2815 -0.2160
 6769TIP3   OH241797   3.475   6.447   5.872 -0.0147 -0.2401 -0.1662
 6769TIP3    H141798   3.498   6.474   5.783 -0.0123  1.4014  0.3245
 6769TIP3    H241799   3.553   6.403   5.905  0.9225  1.5103 -0.0344
 6770TIP3   OH241800   5.199   6.404  10.912 -0.5562  0.0747  0.0586
 6770TIP3    H141801   5.217   6.366  10.826 -0.7900  3.1486 -1.4187
 6770TIP3    H241802   5.106   6.390  10.926 -0.9042  1.2706 -1.0680
 6771TIP3   OH241803   2.052   2.367  16.571  0.2027 -0.0496  0.1075
 6771TIP3    H141804   2.059   2.396  16.662  0.0719  0.4161 -0.0327
 6771TIP3    H241805   2.103   2.286  16.568  0.4162  0.0700  0.5375
 6772TIP3   OH241806   3.365   4.916  11.631  0.0803 -0.4760 -0.6854
 6772TIP3    H141807   3.335   4.959  11.551  1.5025  1.1382 -0.4002
 6772TIP3    H241808   3.449   4.877  11.607 -0.4602 -1.7543 -0.5149
 6773TIP3   OH241809   5.264   6.363  12.939  0.2344  0.1191  0.2255
 6773TIP3    H141810   5.332   6.430  12.938  1.0755 -0.7363 -0.1657
 6773TIP3    H241811   5.213   6.381  13.018  2.5494 -0.8733  1.9714
 6774TIP3   OH241812   0.427   1.301  11.618  0.3885  0.1512  0.0416
 6774TIP3    H141813   0.385   1.230  11.667 -2.0862  0.4750 -1.5344
 6774TIP3    H241814   0.498   1.258  11.570 -0.2245 -1.0110  0.1651
 6775TIP3   OH241815   4.575   6.115   2.017  0.3800  0.0202 -0.2869
 6775TIP3    H141816   4.643   6.062   2.057 -0.4454 -1.5369 -0.8987
 6775TIP3    H241817   4.618   6.198   1.996  1.1149  0.4793  2.7791
 6776TIP3   OH241818   1.404   4.287  15.138  0.2913  0.0213 -0.2923
 6776TIP3    H141819   1.437   4.341  15.065  0.2401 -0.1381 -0.4315
 6776TIP3    H241820   1.427   4.198  15.114 -1.8840 -0.3081 -1.2839
 6777TIP3   OH241821   6.658   2.888  14.234 -0.4191  0.0250  0.5014
 6777TIP3    H141822   6.678   2.945  14.160  1.1832  0.1763  1.0330
 6777TIP3    H241823   6.572   2.917  14.264 -1.5635 -0.7176 -1.9187
 6778TIP3   OH241824   3.002   5.870  15.293  0.2104  0.4190 -0.3283
 6778TIP3    H141825   2.934   5.825  15.244  0.7720  0.5103 -1.2075
 6778TIP3    H241826   3.024   5.810  15.365  0.0299 -0.1251 -0.7286
 6779TIP3   OH241827   1.780   4.860  13.945  0.0045 -0.0785 -0.3508
 6779TIP3    H141828   1.829   4.898  13.872  2.0038 -2.6735 -0.4384
 6779TIP3    H241829   1.846   4.845  14.013 -1.0534 -1.6486  0.3621
 6780TIP3   OH241830   0.449   6.184  14.602  0.1107 -0.6158  0.5042
 6780TIP3    H141831   0.426   6.277  14.601  0.8425 -0.4368 -0.5965
 6780TIP3    H241832   0.405   6.149  14.680 -0.6500  0.5242  0.6004
 6781TIP3   OH241833   2.034   2.345   3.692  0.0724 -0.4115 -0.1101
 6781TIP3    H141834   1.992   2.431   3.701 -1.6665 -1.1036 -1.2100
 6781TIP3    H241835   2.126   2.361   3.709 -0.5395  1.2921  1.7781
 6782TIP3   OH241836   0.162   1.399   4.011 -0.2999  0.0392 -0.3523
 6782TIP3    H141837   0.111   1.432   3.937  1.3104 -1.4938 -2.2036
 6782TIP3    H241838   0.175   1.306   3.992  1.2753 -0.0876  1.2137
 6783TIP3   OH241839   4.012   0.597   1.947  0.3259  0.1990  0.0177
 6783TIP3    H141840   4.028   0.578   1.855  0.4283  0.0914  0.0577
 6783TIP3    H241841   4.084   0.656   1.972  1.2057 -1.0459  0.4475
 6784TIP3   OH241842   2.579   2.396  16.420  0.0616  0.5174  0.7940
 6784TIP3    H141843   2.487   2.370  16.417  0.1250  0.3937 -0.1117
 6784TIP3    H241844   2.626   2.317  16.446 -0.1665  0.7899  2.0764
 6785TIP3   OH241845   3.698   2.483  16.020  0.0052  0.1851  0.0632
 6785TIP3    H141846   3.679   2.577  16.016 -0.8742  0.0313  0.7151
 6785TIP3    H241847   3.759   2.474  16.094 -0.4821  0.1410  0.4570
 6786TIP3   OH241848   6.463   3.129   5.329  0.6632 -0.3108  0.0418
 6786TIP3    H141849   6.452   3.214   5.370  0.7689 -0.7422  0.9960
 6786TIP3    H241850   6.378   3.109   5.290  0.6688  0.2744 -0.2679
 6787TIP3   OH241851   2.515   0.277   0.202 -0.4877 -0.0639 -0.0207
 6787TIP3    H141852   2.474   0.263   0.288 -2.3694  0.4655 -0.8054
 6787TIP3    H241853   2.544   0.190   0.175 -1.2214 -0.4803  0.5038
 6788TIP3   OH241854   3.802   3.990  12.581  0.0457  0.2490 -0.6828
 6788TIP3    H141855   3.834   3.913  12.628 -0.3861  1.3579  1.4943
 6788TIP3    H241856   3.707   3.987  12.591 -0.1565 -0.1975 -2.6204
 6789TIP3   OH241857   3.210   4.353  15.502 -0.4994 -0.2929  0.1058
 6789TIP3    H141858   3.174   4.395  15.424  1.8534  1.8679  0.1230
 6789TIP3    H241859   3.183   4.410  15.574  1.3453  0.3568  0.3081
 6790TIP3   OH241860   1.441   5.811   2.659 -0.4619 -0.9446 -0.4127
 6790TIP3    H141861   1.359   5.809   2.707 -0.2601 -1.0792 -0.0740
 6790TIP3    H241862   1.416   5.836   2.570 -0.8030 -0.4694 -0.1837
 6791TIP3   OH241863   1.977   3.378   4.791  0.1271  0.1107  0.1274
 6791TIP3    H141864   2.022   3.310   4.740 -1.8876 -1.7111  0.6893
 6791TIP3    H241865   1.936   3.434   4.725 -1.4975 -1.5594 -0.3409
 6792TIP3   OH241866   6.597   1.055  13.029  0.5930  0.4247 -0.6458
 6792TIP3    H141867   6.583   1.149  13.041  1.0051  0.7678 -2.6102
 6792TIP3    H241868   6.561   1.015  13.108 -0.0280  2.2021 -0.0001
 6793TIP3   OH241869   5.303   2.099  12.024  0.4690  0.1330 -0.5452
 6793TIP3    H141870   5.326   2.012  12.056  1.6944  0.6700  0.0933
 6793TIP3    H241871   5.245   2.135  12.091  0.0104 -0.1633 -0.7814
 6794TIP3   OH241872   5.992   1.407   0.118 -0.0609  0.2377  0.3145
 6794TIP3    H141873   6.003   1.408   0.214 -1.5160 -1.0979  0.5162
 6794TIP3    H241874   5.968   1.316   0.099  2.8702 -0.1901 -1.6333
 6795TIP3   OH241875   6.627   4.866   2.449 -0.3525  0.3183 -0.0280
 6795TIP3    H141876   6.703   4.814   2.422  0.2894  0.9798  0.5064
 6795TIP3    H241877   6.571   4.803   2.496 -0.3887 -0.2918 -0.8826
 6796TIP3   OH241878   5.171   2.570   1.717 -0.4957 -0.1406  0.6383
 6796TIP3    H141879   5.113   2.633   1.676 -0.4633  0.4525  1.4840
 6796TIP3    H241880   5.121   2.489   1.720 -0.5026 -0.1917 -0.5429
 6797TIP3   OH241881   1.992   2.991   5.545  0.2394  0.7234  0.0388
 6797TIP3    H141882   2.015   3.015   5.635 -0.1743  1.4403 -0.0460
 6797TIP3    H241883   1.937   2.914   5.554  1.0478  0.1702  0.3464
 6798TIP3   OH241884   5.341   2.647   2.209  0.2781 -0.0280 -0.3699
 6798TIP3    H141885   5.271   2.694   2.163  2.0107  1.3731 -1.6673
 6798TIP3    H241886   5.357   2.699   2.287  1.9141  1.3888 -1.6009
 6799TIP3   OH241887   6.789   0.321  14.849  0.2101 -0.5501 -0.6851
 6799TIP3    H141888   6.835   0.382  14.908 -0.6125 -1.0289  0.4732
 6799TIP3    H241889   6.721   0.374  14.808  1.2995 -0.0148 -1.8547
 6800TIP3   OH241890   2.042   4.535  11.781 -0.4246 -0.2433  0.2622
 6800TIP3    H141891   2.115   4.544  11.842  0.6239 -0.1329 -0.9783
 6800TIP3    H241892   1.966   4.570  11.829  0.6500  1.1531  0.9897
 6801TIP3   OH241893   4.750   2.231  12.488  1.0251  0.1954  0.2048
 6801TIP3    H141894   4.692   2.307  12.491 -0.6928 -1.1343  1.6695
 6801TIP3    H241895   4.778   2.218  12.579  2.3443 -0.1350 -0.2377
 6802TIP3   OH241896   2.554   5.331  13.717  0.4273  0.1302 -0.4796
 6802TIP3    H141897   2.567   5.340  13.811 -1.0331  2.1346 -0.4334
 6802TIP3    H241898   2.511   5.413  13.691 -0.1609 -0.8554 -2.7062
 6803TIP3   OH241899   3.101   3.573  10.786 -0.5722 -0.1326  0.1858
 6803TIP3    H141900   3.090   3.667  10.804 -0.9011 -0.0020 -0.6973
 6803TIP3    H241901   3.192   3.565  10.757 -0.8870  0.1020 -0.8956
 6804TIP3   OH241902   0.733   3.060   0.501  0.0317 -0.0313  0.1009
 6804TIP3    H141903   0.807   3.001   0.487  1.1876  1.4112 -0.0733
 6804TIP3    H241904   0.704   3.041   0.590  0.2779 -0.9940 -0.0227
 6805TIP3   OH241905   2.061   5.676  14.072  0.2550 -0.0958  0.3217
 6805TIP3    H141906   1.996   5.708  14.010 -0.8717 -2.5601  0.1826
 6805TIP3    H241907   2.042   5.723  14.153 -1.0199 -0.0278 -0.0164
 6806TIP3   OH241908   1.208   0.854  17.148  0.4031  0.0762  0.5590
 6806TIP3    H141909   1.119   0.888  17.134  0.2045 -0.7663 -0.3180
 6806TIP3    H241910   1.265   0.925  17.118  0.0035 -0.0605 -0.5812
 6807TIP3   OH241911   5.978   4.466  14.354 -0.2329  0.6587 -0.2031
 6807TIP3    H141912   6.020   4.388  14.391 -0.8852 -0.0275 -0.9016
 6807TIP3    H241913   6.048   4.532  14.354  0.2225  0.1901  0.7261
 6808TIP3   OH241914   5.623   2.525  12.543 -0.1543  0.4929  0.0387
 6808TIP3    H141915   5.675   2.516  12.622  0.0327 -0.0322 -0.1429
 6808TIP3    H241916   5.567   2.601  12.559 -0.4327  0.1154  0.8423
 6809TIP3   OH241917   2.058   5.824  14.709 -0.2245  0.3755 -0.0790
 6809TIP3    H141918   2.079   5.733  14.688 -0.0377  0.0700  1.3563
 6809TIP3    H241919   1.970   5.837  14.675 -0.9513 -0.8986  1.2491
 6810TIP3   OH241920   2.298   4.631   1.374  0.2349  0.4731  0.0817
 6810TIP3    H141921   2.357   4.580   1.319  0.5839  1.7076 -0.7056
 6810TIP3    H241922   2.262   4.568   1.436  4.5364  0.1995  2.4537
 6811TIP3   OH241923   3.352   6.591  13.072 -0.3453  0.1186 -0.3314
 6811TIP3    H141924   3.355   6.622  12.982 -3.4279  0.8651 -0.2509
 6811TIP3    H241925   3.384   6.501  13.068  1.9640  0.9863 -1.7292
 6812TIP3   OH241926   3.180   3.331   3.348  0.3150  0.0501  0.1545
 6812TIP3    H141927   3.109   3.349   3.410  0.3691  0.0870  0.2047
 6812TIP3    H241928   3.228   3.413   3.340 -2.1838  1.3016 -3.1494
 6813TIP3   OH241929   0.941   2.425   5.516  0.1130  0.5680 -0.4363
 6813TIP3    H141930   0.915   2.384   5.433 -1.0763  0.2822  0.0654
 6813TIP3    H241931   0.914   2.362   5.583  1.0659  0.7999  0.1758
 6814TIP3   OH241932   2.292   4.354   1.682 -0.1514 -0.3187  0.6007
 6814TIP3    H141933   2.300   4.448   1.666  0.1411 -0.5449 -0.5865
 6814TIP3    H241934   2.360   4.335   1.747 -0.6423  0.4007  1.3445
 6815TIP3   OH241935   4.514   1.294  10.709  0.5360 -0.4720  0.0969
 6815TIP3    H141936   4.517   1.265  10.617  1.1962  0.7636 -0.2726
 6815TIP3    H241937   4.598   1.266  10.745 -0.0801 -1.7399  0.5710
 6816TIP3   OH241938   1.710   0.111   3.754 -0.3863  0.0423 -0.0666
 6816TIP3    H141939   1.751   0.029   3.782 -0.9381  0.4668  2.0885
 6816TIP3    H241940   1.761   0.179   3.799 -1.2340  0.7580 -0.1771
 6817TIP3   OH241941   0.693   3.146  15.794  0.4834 -0.3250 -0.6273
 6817TIP3    H141942   0.706   3.052  15.780 -0.3719 -0.3166 -1.5715
 6817TIP3    H241943   0.716   3.160  15.886 -2.0802 -1.9931  0.3370
 6818TIP3   OH241944   2.605   6.267   4.179 -0.1939  0.1620  0.1107
 6818TIP3    H141945   2.655   6.221   4.112  0.5720  0.7302  0.2922
 6818TIP3    H241946   2.582   6.198   4.242 -0.9956 -0.3865 -0.7673
 6819TIP3   OH241947   2.119   3.725  11.529  0.5524 -0.1467 -0.2063
 6819TIP3    H141948   2.206   3.719  11.568  0.6165 -1.3931 -0.5020
 6819TIP3    H241949   2.060   3.685  11.593  0.5855 -1.7189 -1.1146
 6820TIP3   OH241950   2.507   1.971  13.373  0.6635 -0.0169 -0.8166
 6820TIP3    H141951   2.586   2.023  13.362  0.4587  0.5535  0.2929
 6820TIP3    H241952   2.502   1.956  13.468  0.3485 -1.4668 -1.0505
 6821TIP3   OH241953   2.699   3.141  14.006 -0.3730  0.2390  0.1308
 6821TIP3    H141954   2.722   3.224  13.963  0.0709 -0.1492 -0.3825
 6821TIP3    H241955   2.759   3.077  13.968 -0.9674 -0.3934  0.2628
 6822TIP3   OH241956   5.882   1.299  10.783  0.2691 -0.7791 -0.3368
 6822TIP3    H141957   5.929   1.349  10.850  0.6329 -2.1539  0.4485
 6822TIP3    H241958   5.868   1.362  10.712 -1.8801  1.2638  1.8217
 6823TIP3   OH241959   4.560   5.087   2.035  0.0131  0.4846 -0.5494
 6823TIP3    H141960   4.513   5.168   2.053  0.0669  0.4652 -0.3145
 6823TIP3    H241961   4.567   5.045   2.121  0.9763  0.7626 -0.4899
 6824TIP3   OH241962   1.753   6.775  14.445  0.4579 -0.0436  0.2799
 6824TIP3    H141963   1.762   6.734  14.359 -2.0743  1.1700 -0.6110
 6824TIP3    H241964   1.811   6.725  14.501  0.1638 -2.5725 -1.5606
 6825TIP3   OH241965   5.239   4.915  11.246  0.1805  0.0583  0.2854
 6825TIP3    H141966   5.197   4.830  11.258  1.3329 -0.8210 -1.6182
 6825TIP3    H241967   5.260   4.919  11.153  0.8172  2.1245  0.4752
 6826TIP3   OH241968   0.521   6.251  15.060  0.5368  0.5171  0.1799
 6826TIP3    H141969   0.485   6.196  15.129  0.3146  1.6872  1.0193
 6826TIP3    H241970   0.483   6.216  14.979  0.4187 -0.5567  0.6884
 6827TIP3   OH241971   0.679   2.876   4.018  0.2496 -0.3090 -0.6945
 6827TIP3    H141972   0.671   2.899   3.926 -2.0180 -0.4436 -0.5729
 6827TIP3    H241973   0.611   2.811   4.032  1.9767 -1.8901  0.5947
 6828TIP3   OH241974   5.248   4.651   5.845  0.3042  0.6385 -0.5761
 6828TIP3    H141975   5.220   4.572   5.892 -0.1752  1.5596  0.7182
 6828TIP3    H241976   5.302   4.618   5.773  0.8115 -0.8224  0.4444
 6829TIP3   OH241977   0.852   1.845   2.921  0.3157  1.1503  0.2520
 6829TIP3    H141978   0.920   1.838   2.854  1.4291  2.8725  1.1861
 6829TIP3    H241979   0.899   1.864   3.002 -1.0511 -0.5358  1.4793
 6830TIP3   OH241980   6.095   5.119  14.935 -0.5849 -0.2887 -0.6615
 6830TIP3    H141981   6.181   5.155  14.916 -0.6726  0.2834  0.0021
 6830TIP3    H241982   6.091   5.037  14.885  0.9049 -1.0697  0.4553
 6831TIP3   OH241983   5.773   6.605  15.314  0.8213  0.4960 -0.4030
 6831TIP3    H141984   5.760   6.670  15.246 -2.0015 -0.1597 -0.5802
 6831TIP3    H241985   5.719   6.531  15.287 -1.5720  0.7666  3.1728
 6832TIP3   OH241986   4.467   3.814   0.523  0.5850  0.1150 -0.1302
 6832TIP3    H141987   4.555   3.791   0.494 -0.0624 -0.6955 -1.5109
 6832TIP3    H241988   4.436   3.877   0.458  1.0180  2.2961  1.6900
 6833TIP3   OH241989   2.346   4.491  12.231 -0.0389  0.6177  0.0686
 6833TIP3    H141990   2.410   4.516  12.165  0.2630  0.0846  0.1599
 6833TIP3    H241991   2.312   4.575  12.264  1.7420  0.9423  1.1341
 6834TIP3   OH241992   6.277   6.622  14.027 -0.3128  0.0739  0.0264
 6834TIP3    H141993   6.308   6.679  14.098 -0.2191  0.9712 -0.7309
 6834TIP3    H241994   6.347   6.558  14.015  0.7919  1.4377 -0.9484
 6835TIP3   OH241995   3.854   5.657  12.667 -0.3693  0.3618  0.7334
 6835TIP3    H141996   3.900   5.657  12.583 -0.6438  1.2924  0.5772
 6835TIP3    H241997   3.915   5.615  12.728  1.4314  3.0915  0.9138
 6836TIP3   OH241998   1.932   6.624  16.367 -0.0748 -0.0538  0.6820
 6836TIP3    H141999   1.916   6.547  16.312 -0.6426  0.7770 -0.3153
 6836TIP3    H242000   2.025   6.642  16.357 -0.6539  1.7028 -2.1603
 6837TIP3   OH242001   2.921   4.243  15.156 -0.2064  1.1345  0.0849
 6837TIP3    H142002   2.932   4.320  15.211 -2.2026  0.6697  1.1861
 6837TIP3    H242003   2.830   4.247  15.127  0.0002 -0.1956 -0.7839
 6838TIP3   OH242004   5.750   4.654   2.233  0.0413 -0.1991  0.3813
 6838TIP3    H142005   5.659   4.628   2.221  0.3243 -1.6795  1.2761
 6838TIP3    H242006   5.791   4.640   2.148 -0.8129  1.5850 -0.3468
 6839TIP3   OH242007   0.263   2.032   5.823  0.1014  0.1149 -0.0798
 6839TIP3    H142008   0.222   2.098   5.768 -0.0046  1.4085  1.5272
 6839TIP3    H242009   0.191   1.972   5.846 -0.0481  0.1173 -0.5317
 6840TIP3   OH242010   5.980   2.200   3.925 -0.0411  0.0701  0.0852
 6840TIP3    H142011   6.026   2.277   3.957 -0.3094  0.1367  0.3181
 6840TIP3    H242012   5.926   2.233   3.852  0.5570 -0.0782 -0.4302
 6841TIP3   OH242013   1.699   1.876  13.795 -0.5907  0.3194  0.1534
 6841TIP3    H142014   1.787   1.851  13.824 -0.5497  1.6793  1.2533
 6841TIP3    H242015   1.711   1.905  13.705  0.4469  2.3868  0.9379
 6842TIP3   OH242016   3.516   0.403  15.781 -0.3717  0.8116 -0.1525
 6842TIP3    H142017   3.448   0.339  15.761  0.6475 -0.6971  1.0661
 6842TIP3    H242018   3.588   0.380  15.722  0.0708  0.6892  0.4297
 6843TIP3   OH242019   6.764   0.014  13.322 -0.2895 -0.4448 -0.2819
 6843TIP3    H142020   6.828   0.083  13.301 -0.7155  0.2324  0.6063
 6843TIP3    H242021   6.814  -0.052  13.369 -0.1294 -0.1809 -0.0826
 6844TIP3   OH242022   2.606   4.213  15.460  0.2030  1.0736 -0.4245
 6844TIP3    H142023   2.532   4.271  15.442  0.0595  0.8528 -0.5585
 6844TIP3    H242024   2.666   4.228  15.387  0.5174  1.6246 -0.0444
 6845TIP3   OH242025   4.722   6.679  15.547 -0.4463  0.1119 -0.1165
 6845TIP3    H142026   4.718   6.596  15.499 -0.7802  0.1030 -0.0699
 6845TIP3    H242027   4.767   6.739  15.487 -3.3335  0.8895 -1.5895
 6846TIP3   OH242028   6.573   0.367   3.228  0.5832  0.5460 -0.5342
 6846TIP3    H142029   6.660   0.402   3.210  1.5413 -0.0067  2.5913
 6846TIP3    H242030   6.517   0.444   3.241  1.1454  0.9162 -0.3058
 6847TIP3   OH242031   1.005   6.085  13.954  0.1639 -0.1949 -0.3767
 6847TIP3    H142032   1.087   6.071  13.906  0.6186  0.9359  0.0511
 6847TIP3    H242033   1.007   6.022  14.026 -0.3783 -1.6927 -1.6293
 6848TIP3   OH242034   5.644   0.167  11.471  0.5631  0.0579 -0.3011
 6848TIP3    H142035   5.641   0.149  11.377 -3.0496  0.1003 -0.2860
 6848TIP3    H242036   5.693   0.249  11.479  1.9748 -0.6007 -2.0195
 6849TIP3   OH242037   1.103   3.821   2.094 -0.0319 -0.4653 -0.4362
 6849TIP3    H142038   1.168   3.883   2.062 -0.4724  0.1616 -0.1281
 6849TIP3    H242039   1.051   3.798   2.017 -0.4025  0.2019 -0.3866
 6850TIP3   OH242040   4.683   0.786   4.218  0.5095 -0.0316  0.7258
 6850TIP3    H142041   4.737   0.851   4.172 -2.5153  1.7606 -0.4239
 6850TIP3    H242042   4.672   0.823   4.306  0.6510 -0.0806  0.7639
 6851TIP3   OH242043   0.071   2.058   5.107  0.4432  0.6788 -0.1363
 6851TIP3    H142044   0.113   1.994   5.050 -0.2891  0.1477 -0.0865
 6851TIP3    H242045   0.039   2.126   5.047 -1.5472 -0.5638 -0.5103
 6852TIP3   OH242046   2.233   6.498  15.343 -0.1118 -0.2038 -0.6898
 6852TIP3    H142047   2.319   6.540  15.339  0.5616 -1.4661  0.2120
 6852TIP3    H242048   2.177   6.563  15.384  0.4657  0.5256 -1.0314
 6853TIP3   OH242049   4.353   1.618   1.346 -0.6349  0.2786  0.4835
 6853TIP3    H142050   4.384   1.708   1.356  1.2720 -0.0439 -2.2515
 6853TIP3    H242051   4.257   1.627   1.339 -0.4568  2.1177  0.0762
 6854TIP3   OH242052   4.666   2.303  10.562  0.0915 -0.2059  1.0650
 6854TIP3    H142053   4.711   2.268  10.486 -1.3265 -0.7370  0.4387
 6854TIP3    H242054   4.638   2.391  10.535  0.0508 -0.1910  1.1532
 6855TIP3   OH242055   2.120   5.224  11.502  0.5834  0.0603 -0.2313
 6855TIP3    H142056   2.096   5.197  11.590  1.3854  0.5751  0.1491
 6855TIP3    H242057   2.199   5.175  11.482 -0.2423 -0.9387 -1.1318
 6856TIP3   OH242058   6.381   0.773   3.500 -0.3916 -0.0101  0.0442
 6856TIP3    H142059   6.302   0.824   3.520 -1.3713 -0.2570 -2.9143
 6856TIP3    H242060   6.351   0.682   3.498  0.0101 -0.1313 -0.7676
 6857TIP3   OH242061   4.850   5.901   4.277 -0.5097  0.0501  0.1440
 6857TIP3    H142062   4.909   5.890   4.351 -0.8932  0.6185  0.5313
 6857TIP3    H242063   4.895   5.858   4.204 -0.1472 -0.5362  0.7110
 6858TIP3   OH242064   6.096   5.615  11.645 -0.1438 -0.4542 -0.7740
 6858TIP3    H142065   6.161   5.585  11.708 -1.1020  0.3780  0.6236
 6858TIP3    H242066   6.098   5.710  11.651 -1.0174 -0.4014 -1.2162
 6859TIP3   OH242067   2.764   5.267   1.482  0.0619 -0.0647  0.1836
 6859TIP3    H142068   2.846   5.296   1.524  1.0317 -0.6423 -1.2708
 6859TIP3    H242069   2.793   5.206   1.414 -1.5643  0.1151 -0.6741
 6860TIP3   OH242070   4.309   3.045   5.860  0.0205  0.3142 -0.4342
 6860TIP3    H142071   4.222   3.006   5.848  0.4619 -0.5058 -0.9934
 6860TIP3    H242072   4.333   3.023   5.950  0.0921 -0.3563 -0.6129
 6861TIP3   OH242073   5.489   2.179  14.502  0.2202  0.6609 -0.0387
 6861TIP3    H142074   5.574   2.168  14.460  1.2070 -1.1744  2.3672
 6861TIP3    H242075   5.434   2.111  14.464  0.4629  0.4180  0.0477
 6862TIP3   OH242076   3.847   1.676  14.510 -1.0093  0.4488  0.4331
 6862TIP3    H142077   3.900   1.614  14.461  0.5811  2.5650 -0.6062
 6862TIP3    H242078   3.792   1.622  14.567 -0.6520 -1.9159 -1.4368
 6863TIP3   OH242079   0.823   2.978   1.999 -0.2237  0.0939  0.2539
 6863TIP3    H142080   0.760   2.948   2.065 -0.2395 -2.2089 -0.7583
 6863TIP3    H242081   0.782   3.056   1.961 -1.3042  0.0663  1.3187
 6864TIP3   OH242082   5.027   4.106  13.623  0.5628  0.3976 -0.3750
 6864TIP3    H142083   5.091   4.154  13.570  0.0441  0.2019 -1.1906
 6864TIP3    H242084   4.988   4.043  13.562 -1.5905  1.6336 -0.3438
 6865TIP3   OH242085   1.368   2.490   0.063  0.0142 -0.3526  0.1125
 6865TIP3    H142086   1.453   2.520   0.095 -0.1163 -0.0589  0.1855
 6865TIP3    H242087   1.388   2.447  -0.020  0.2824 -0.6170  0.3145
 6866TIP3   OH242088   5.251   0.030   5.261  0.0665  0.6119  0.0372
 6866TIP3    H142089   5.246  -0.063   5.282  0.7338  0.2561 -1.3544
 6866TIP3    H242090   5.317   0.064   5.322  2.3229 -0.5128 -1.6890
 6867TIP3   OH242091   0.620   3.640  16.941 -0.8630 -0.0338  0.9162
 6867TIP3    H142092   0.636   3.581  17.015  0.8830  0.5638  1.0429
 6867TIP3    H242093   0.562   3.591  16.883  1.2352 -2.2279  0.6041
 6868TIP3   OH242094   1.725   5.205   4.769 -0.0654  0.6387 -0.1330
 6868TIP3    H142095   1.715   5.185   4.675 -1.0887 -0.3281  0.1715
 6868TIP3    H242096   1.781   5.283   4.771  2.3264 -0.9585 -1.4403
 6869TIP3   OH242097   6.603   1.954   4.398  0.2443 -0.0265 -0.1425
 6869TIP3    H142098   6.668   1.928   4.333  0.3056  2.2052 -1.0119
 6869TIP3    H242099   6.519   1.942   4.354  0.2088  0.0757 -0.1005
 6870TIP3   OH242100   3.670   1.898  13.831  0.3975  0.1290  0.3599
 6870TIP3    H142101   3.749   1.940  13.798  1.2364 -0.8982  0.9988
 6870TIP3    H242102   3.654   1.826  13.770 -1.6530  1.9730 -1.3537
 6871TIP3   OH242103   2.590   2.809  14.201  0.2499  0.4948  0.4159
 6871TIP3    H142104   2.557   2.728  14.239  0.2146  0.2681 -0.0886
 6871TIP3    H242105   2.513   2.851  14.164  0.6726 -0.5683 -1.7403
 6872TIP3   OH242106   4.438   5.959  15.880  0.3903  0.8877 -0.5725
 6872TIP3    H142107   4.456   6.047  15.915 -2.1908  0.6574  1.4643
 6872TIP3    H242108   4.381   5.919  15.945 -1.1145 -1.1297 -3.0631
 6873TIP3   OH242109   1.401   1.902   2.767 -0.1206  0.1063 -0.9631
 6873TIP3    H142110   1.342   1.857   2.827 -1.4589  0.3399 -2.0762
 6873TIP3    H242111   1.489   1.882   2.800 -0.8056 -0.3039  0.6681
 6874TIP3   OH242112   5.553   5.779   0.528 -0.1833 -0.6826 -0.3392
 6874TIP3    H142113   5.624   5.737   0.577 -0.0328 -1.4005 -1.1716
 6874TIP3    H242114   5.590   5.864   0.502  0.2982 -0.9664 -0.5912
 6875TIP3   OH242115   0.208   4.713  16.034  0.3933 -0.3827  0.3730
 6875TIP3    H142116   0.137   4.773  16.012  0.4046  0.2868  2.1274
 6875TIP3    H242117   0.186   4.679  16.121  2.0207 -0.4519  0.7728
 6876TIP3   OH242118   4.387   1.111  15.569  0.2467 -0.8179 -1.0120
 6876TIP3    H142119   4.377   1.204  15.586  1.5603 -0.4352 -2.2303
 6876TIP3    H242120   4.298   1.079  15.554 -0.1820  0.2768 -0.8411
 6877TIP3   OH242121   6.536   3.724   1.951 -0.2034  0.1901  0.1604
 6877TIP3    H142122   6.537   3.784   1.877  2.4130  1.9328  1.5224
 6877TIP3    H242123   6.584   3.647   1.919 -0.3736  0.3169 -0.4115
 6878TIP3   OH242124   5.730   5.068   3.252  0.0260  0.3144 -0.1237
 6878TIP3    H142125   5.642   5.104   3.246  0.1371  0.4202 -1.2298
 6878TIP3    H242126   5.786   5.134   3.212  0.9380  1.3524  2.7739
 6879TIP3   OH242127   4.549   6.570   2.022  0.0959 -0.4943  0.2567
 6879TIP3    H142128   4.607   6.605   2.090 -0.6744 -0.5033  0.9146
 6879TIP3    H242129   4.506   6.647   1.985  2.1961 -0.2352 -1.8045
 6880TIP3   OH242130   0.370   5.085  15.463  0.7397 -0.0242  0.7276
 6880TIP3    H142131   0.436   5.043  15.519  0.7817 -0.5071  0.3247
 6880TIP3    H242132   0.420   5.126  15.393  0.6217 -0.2729  0.4975
 6881TIP3   OH242133   6.575   5.830  14.089 -0.1190  0.4390 -0.2255
 6881TIP3    H142134   6.521   5.900  14.051 -0.1251 -0.5315 -2.0417
 6881TIP3    H242135   6.649   5.821  14.029  0.3832 -0.4692  0.5139
 6882TIP3   OH242136   5.514   3.930  13.335  0.1851 -0.5507 -0.0687
 6882TIP3    H142137   5.521   3.845  13.290  0.0137 -0.5068 -0.1825
 6882TIP3    H242138   5.604   3.958  13.348  0.3123 -1.7406  1.8666
 6883TIP3   OH242139   4.448   4.954  12.824  0.1662 -0.2223 -1.2582
 6883TIP3    H142140   4.458   5.035  12.774 -1.5402 -0.5452 -2.1506
 6883TIP3    H242141   4.464   4.885  12.760  1.4187 -0.6036 -0.5415
 6884TIP3   OH242142   4.055   4.899   5.965 -1.0477  0.7815 -0.0294
 6884TIP3    H142143   4.022   4.816   5.930 -1.9366  0.6315  1.1384
 6884TIP3    H242144   3.979   4.958   5.961 -0.6963  1.2450  0.1081
 6885TIP3   OH242145   2.615   0.124  16.891 -0.0623  0.6186  0.1883
 6885TIP3    H142146   2.582   0.071  16.819 -1.3604  2.0141 -0.2819
 6885TIP3    H242147   2.671   0.065  16.941 -1.5484 -1.2258 -0.2546
 6886TIP3   OH242148   0.409   6.750   3.201  0.3004 -0.4773  0.2658
 6886TIP3    H142149   0.394   6.826   3.256  0.6406 -0.1190 -0.1338
 6886TIP3    H242150   0.440   6.786   3.118 -0.0630 -1.0206 -0.1058
 6887TIP3   OH242151   1.097   0.354   3.480  0.6042  0.0982 -0.0365
 6887TIP3    H142152   1.170   0.416   3.492  1.0291 -0.1600 -1.2954
 6887TIP3    H242153   1.123   0.300   3.406 -0.1666 -1.0372  0.5118
 6888TIP3   OH242154   6.305   5.447  10.966  0.0745  0.0494  0.4612
 6888TIP3    H142155   6.283   5.449  11.059 -0.9764  1.6891  0.1955
 6888TIP3    H242156   6.355   5.366  10.955 -1.0697 -0.9092  2.1480
 6889TIP3   OH242157   0.240   1.277   1.953 -0.0781 -0.6923 -0.0886
 6889TIP3    H142158   0.293   1.238   1.883  1.2318  0.7673  0.0510
 6889TIP3    H242159   0.162   1.311   1.908  0.9876  0.6768 -0.9618
 6890TIP3   OH242160   0.584   5.039  10.917 -0.1630 -0.2398  0.0272
 6890TIP3    H142161   0.674   5.037  10.883 -0.2081 -1.4676 -0.0447
 6890TIP3    H242162   0.546   5.118  10.877  1.3067  1.1142  1.2190
 6891TIP3   OH242163   4.456   2.730  13.973  0.2356 -0.6407  0.6845
 6891TIP3    H142164   4.406   2.805  13.943  0.4547 -0.1603  1.4887
 6891TIP3    H242165   4.487   2.688  13.893  2.3486  1.6493  0.2238
 6892TIP3   OH242166   4.928   2.907  15.066  0.1167  0.5740 -0.1059
 6892TIP3    H142167   5.008   2.866  15.099 -2.2123 -1.4342  3.3488
 6892TIP3    H242168   4.903   2.853  14.991 -0.2226 -1.4045  1.3774
 6893TIP3   OH242169   0.276   1.485   5.130  0.0420  0.1841 -0.3684
 6893TIP3    H142170   0.368   1.503   5.108 -0.2267  0.8439 -0.9739
 6893TIP3    H242171   0.239   1.451   5.048 -0.0835 -0.7535  0.0699
 6894TIP3   OH242172   4.945   6.185   1.339 -0.4413 -0.0262 -0.1393
 6894TIP3    H142173   4.856   6.200   1.307 -0.0881 -0.3387 -1.2964
 6894TIP3    H242174   4.934   6.143   1.423 -1.3908 -0.1592 -0.3299
 6895TIP3   OH242175   3.427   3.488   6.477  0.2936 -0.3729  0.2725
 6895TIP3    H142176   3.333   3.503   6.490  0.1423 -0.7689 -0.3413
 6895TIP3    H242177   3.433   3.399   6.443  0.7067  0.3999 -1.7835
 6896TIP3   OH242178   6.095   5.529   4.230 -0.3334 -0.1578 -0.2299
 6896TIP3    H142179   6.164   5.485   4.181 -1.2867 -0.6066 -1.1856
 6896TIP3    H242180   6.024   5.542   4.167 -2.6213 -3.0538  1.5427
 6897TIP3   OH242181   2.352   4.640   2.235  0.6453  0.1957 -0.4955
 6897TIP3    H142182   2.384   4.727   2.259 -1.8355  1.2108 -0.7294
 6897TIP3    H242183   2.368   4.587   2.313  3.4061  0.4722 -0.8180
 6898TIP3   OH242184   4.963   4.213  16.151  0.1796 -0.6456 -0.7777
 6898TIP3    H142185   4.959   4.201  16.246  0.0771 -0.5358 -0.7668
 6898TIP3    H242186   4.874   4.239  16.127 -0.1311 -1.9858 -1.0910
 6899TIP3   OH242187   0.726   1.716   3.635  0.2584 -0.4131  0.7225
 6899TIP3    H142188   0.664   1.760   3.693 -0.2947 -0.0838 -0.1058
 6899TIP3    H242189   0.806   1.708   3.686  0.6937  2.4570  0.5509
 6900TIP3   OH242190   0.032   4.437  12.574  0.6591 -0.4391 -0.2435
 6900TIP3    H142191   0.118   4.410  12.542  0.4390 -1.6895  0.2007
 6900TIP3    H242192  -0.013   4.355  12.595 -0.1675  0.2570  0.7555
 6901TIP3   OH242193   4.076   0.254  14.084  0.3087 -0.0208 -0.3915
 6901TIP3    H142194   4.165   0.221  14.070  0.0704  0.6096 -3.7510
 6901TIP3    H242195   4.077   0.342  14.047 -1.1370  0.8962  1.6269
 6902TIP3   OH242196   1.148   0.441   4.742 -0.1793 -0.1611 -0.3070
 6902TIP3    H142197   1.233   0.460   4.781  1.5375 -3.8658 -1.9990
 6902TIP3    H242198   1.085   0.460   4.811  2.0119  2.4020  1.0623
 6903TIP3   OH242199   4.611   5.581  15.210 -0.4696  0.1375 -0.6777
 6903TIP3    H142200   4.606   5.566  15.304 -0.2768 -0.7184 -0.8047
 6903TIP3    H242201   4.633   5.496  15.173  2.4341  1.0661 -1.2295
 6904TIP3   OH242202   5.404   0.795   5.453  0.3016 -0.5941  0.8998
 6904TIP3    H142203   5.313   0.823   5.450  0.1389 -1.1724  0.3318
 6904TIP3    H242204   5.432   0.811   5.543  0.2974  1.6784  0.5133
 6905TIP3   OH242205   1.659   3.780  14.507  0.4996 -0.4345 -0.0168
 6905TIP3    H142206   1.738   3.791  14.455  1.3183 -1.5441  0.9756
 6905TIP3    H242207   1.587   3.787  14.444  1.3488  1.1297 -0.8459
 6906TIP3   OH242208   6.662   5.761   4.052  0.1934  0.0054  0.0992
 6906TIP3    H142209   6.624   5.849   4.042  0.2277 -0.0772 -0.8165
 6906TIP3    H242210   6.596   5.712   4.101 -0.4907  0.1220 -0.6973
 6907TIP3   OH242211   2.535   1.948  15.935  0.0013  0.6253  0.4836
 6907TIP3    H142212   2.600   1.997  15.984 -2.0329  3.5493  0.3980
 6907TIP3    H242213   2.451   1.975  15.972 -1.1737 -3.9990  1.4385
 6908TIP3   OH242214   1.777   4.122  13.073  0.3496 -0.3106  0.2672
 6908TIP3    H142215   1.812   4.034  13.086 -0.1282 -0.5088  0.2110
 6908TIP3    H242216   1.720   4.136  13.148 -0.3662 -0.4417 -0.2455
 6909TIP3   OH242217   0.815   0.586   0.323  0.5074  0.1739 -0.2271
 6909TIP3    H142218   0.756   0.622   0.390 -1.4043  1.9439 -2.7483
 6909TIP3    H242219   0.890   0.646   0.322  0.2668  0.4764 -0.0957
 6910TIP3   OH242220   0.115   5.006   0.653 -0.1119 -0.1672  0.1708
 6910TIP3    H142221   0.160   4.989   0.571  1.3170  0.9815  0.6906
 6910TIP3    H242222   0.043   4.942   0.655  1.7469 -2.3460 -0.4589
 6911TIP3   OH242223   0.870   5.882   4.428 -0.0708  0.4364 -0.0182
 6911TIP3    H142224   0.850   5.794   4.399 -0.6325  0.6936 -0.4033
 6911TIP3    H242225   0.861   5.936   4.349  2.0511  0.5649 -0.2022
 6912TIP3   OH242226   6.545   5.665  15.073  0.5299  0.3306 -0.0844
 6912TIP3    H142227   6.486   5.590  15.062 -0.7613  0.9184  2.3961
 6912TIP3    H242228   6.511   5.730  15.011 -1.6258  0.7351  1.4429
 6913TIP3   OH242229   2.034   0.192   0.415 -0.4486  0.1858 -0.5743
 6913TIP3    H142230   2.091   0.247   0.468 -0.7081  0.1979 -0.3071
 6913TIP3    H242231   1.945   0.216   0.442 -0.5486 -0.8668  0.0572
 6914TIP3   OH242232   5.943   0.387  13.301 -0.3098 -0.1064  0.3364
 6914TIP3    H142233   5.912   0.298  13.314 -0.8406 -0.0597 -0.5465
 6914TIP3    H242234   5.927   0.404  13.208  2.6921 -0.2060 -0.2542
 6915TIP3   OH242235   5.776   5.580  16.239 -0.1749  0.0759  0.2261
 6915TIP3    H142236   5.744   5.670  16.237 -1.5604 -0.4304 -1.1069
 6915TIP3    H242237   5.849   5.579  16.177 -0.6115  0.1200 -0.2904
 6916TIP3   OH242238   0.808   3.942  11.033  0.8496 -0.1336 -0.3816
 6916TIP3    H142239   0.864   3.899  11.097  1.6294 -1.5449 -1.9793
 6916TIP3    H242240   0.866   4.004  10.989 -0.2616  2.6653  1.9079
 6917TIP3   OH242241   5.585   3.876  12.612  0.4899  0.2743 -0.1428
 6917TIP3    H142242   5.503   3.898  12.568  0.2344 -0.4926 -0.0678
 6917TIP3    H242243   5.599   3.783  12.590  0.3711 -0.1097  1.3585
 6918TIP3   OH242244   0.477   3.056   0.031 -0.2754  0.1372  0.3213
 6918TIP3    H142245   0.414   3.128   0.039  1.4125  1.6887 -0.0480
 6918TIP3    H242246   0.554   3.086   0.080  0.3845 -1.4914  0.3062
 6919TIP3   OH242247   3.880   3.758   4.487  0.4896  0.0879  0.0093
 6919TIP3    H142248   3.924   3.827   4.537 -1.2906  1.3273 -0.0634
 6919TIP3    H242249   3.951   3.709   4.445  1.7744  2.7464 -1.0683
 6920TIP3   OH242250   4.844   1.351   2.989 -0.4313 -0.0500 -0.2423
 6920TIP3    H142251   4.783   1.377   3.057 -0.8504 -1.3900 -0.1093
 6920TIP3    H242252   4.794   1.295   2.931 -0.2025  1.4210 -1.9124
 6921TIP3   OH242253   6.743   5.339   3.898 -0.6630  0.5140 -0.8562
 6921TIP3    H142254   6.811   5.393   3.938  1.1319 -1.0113 -1.7702
 6921TIP3    H242255   6.721   5.384   3.816 -1.1316  1.2715 -0.3229
 6922TIP3   OH242256   4.771   0.684  10.469  0.6860 -0.0029 -0.2736
 6922TIP3    H142257   4.759   0.777  10.489  0.4694 -0.4324  1.7250
 6922TIP3    H242258   4.865   0.675  10.455  0.6541  0.5858 -0.9407
 6923TIP3   OH242259   5.698   1.638  10.909  0.3847  0.4849  0.0796
 6923TIP3    H142260   5.693   1.733  10.924  2.0298  0.6207 -0.2054
 6923TIP3    H242261   5.671   1.628  10.817 -2.5830  0.3628  0.9018
 6924TIP3   OH242262   4.881   3.786   2.142 -0.0402  0.3203 -0.3438
 6924TIP3    H142263   4.924   3.781   2.227 -0.8946 -2.4386  0.0072
 6924TIP3    H242264   4.808   3.847   2.155 -0.6001 -0.6263  1.1588
 6925TIP3   OH242265   0.471   6.524  13.134  0.0413 -0.1627 -0.3822
 6925TIP3    H142266   0.564   6.512  13.149  0.3775  1.3220 -1.0878
 6925TIP3    H242267   0.448   6.602  13.185 -0.7519 -0.3595 -0.4263
 6926TIP3   OH242268   3.832   4.811   0.362  0.3545  0.0935  0.2008
 6926TIP3    H142269   3.790   4.728   0.342 -0.6416  0.5514  0.3359
 6926TIP3    H242270   3.908   4.788   0.415  1.0134 -0.8518 -1.1368
 6927TIP3   OH242271   6.537   4.707   1.514 -0.1828  0.0694  0.0922
 6927TIP3    H142272   6.482   4.752   1.580 -0.7382 -0.2875 -0.1233
 6927TIP3    H242273   6.594   4.651   1.566  0.2974  0.7850  0.3475
 6928TIP3   OH242274   1.845   5.029   0.321  0.2200 -0.1026  0.1747
 6928TIP3    H142275   1.842   4.940   0.285  1.0432 -0.3140  0.6236
 6928TIP3    H242276   1.799   5.023   0.404 -1.6984  0.3905 -0.8259
 6929TIP3   OH242277   4.172   6.207   2.861  0.0921 -0.0348  0.0199
 6929TIP3    H142278   4.258   6.208   2.820  0.1211 -1.3487  0.0300
 6929TIP3    H242279   4.189   6.221   2.954  0.2622  0.1028 -0.0326
 6930TIP3   OH242280   5.863   0.095  14.595 -0.0534 -0.4277  0.1583
 6930TIP3    H142281   5.859   0.162  14.663 -1.4549 -0.8899  0.5350
 6930TIP3    H242282   5.933   0.036  14.623  1.1355  0.8169 -0.1298
 6931TIP3   OH242283   3.856   5.026  12.241  0.5047  0.5797 -0.1627
 6931TIP3    H142284   3.835   5.078  12.164 -0.0360  1.1676  0.3887
 6931TIP3    H242285   3.789   4.957  12.243  0.1160  0.9665  0.1658
 6932TIP3   OH242286   4.708   2.287   1.745  0.5044  0.1994 -0.2734
 6932TIP3    H142287   4.688   2.277   1.838  1.8994 -3.7006 -0.2732
 6932TIP3    H242288   4.647   2.229   1.700  2.3357 -0.9241 -1.4189
 6933TIP3   OH242289   3.624   3.478   6.203 -0.2338 -0.4235 -0.0688
 6933TIP3    H142290   3.537   3.448   6.229 -0.9803  1.7746  0.0814
 6933TIP3    H242291   3.661   3.516   6.283  0.3470 -0.1701 -0.4567
 6934TIP3   OH242292   3.165   5.065   1.865 -0.0028  0.2922  0.1011
 6934TIP3    H142293   3.138   5.125   1.935  0.3383  0.2241  0.2923
 6934TIP3    H242294   3.240   5.108   1.824  0.2017  0.0270  0.1965
 6935TIP3   OH242295   4.469   2.332  13.498  0.5144  0.3841  0.2840
 6935TIP3    H142296   4.450   2.344  13.591  0.0676 -1.9303  0.5245
 6935TIP3    H242297   4.449   2.239  13.481  0.6534  0.7521 -2.0952
 6936TIP3   OH242298   5.037   0.660  13.142 -0.2599  0.2305 -0.7232
 6936TIP3    H142299   4.977   0.732  13.164  1.4504  0.9942  1.6363
 6936TIP3    H242300   4.987   0.581  13.165 -0.0759  0.8909  2.2221
 6937TIP3   OH242301   4.539   3.835   6.134 -0.3673 -0.0167 -0.5003
 6937TIP3    H142302   4.578   3.770   6.074 -0.4396  0.2685 -0.8589
 6937TIP3    H242303   4.605   3.904   6.139  0.0361 -0.4663  0.4788
 6938TIP3   OH242304   4.154   0.386   6.071 -0.0228  0.0131  0.4832
 6938TIP3    H142305   4.245   0.366   6.047 -0.9110  1.4309 -4.3739
 6938TIP3    H242306   4.107   0.303   6.058  0.4080 -0.5791  2.4883
 6939TIP3   OH242307   5.177   5.186  16.620  0.0412 -0.0653 -0.1429
 6939TIP3    H142308   5.210   5.273  16.596  1.5391 -0.6645 -0.2982
 6939TIP3    H242309   5.139   5.152  16.538  0.0696  0.1578 -0.2497
 6940TIP3   OH242310   0.812   0.239   3.984 -1.0079  0.0851  0.2094
 6940TIP3    H142311   0.837   0.188   3.907  0.3393  1.2730 -0.1712
 6940TIP3    H242312   0.785   0.324   3.948  1.6371  1.3745  1.1702
 6941TIP3   OH242313   3.889   1.544   3.034 -0.0685 -0.2818 -0.3130
 6941TIP3    H142314   3.807   1.574   2.997 -0.1853  2.0022  1.6897
 6941TIP3    H242315   3.906   1.603   3.107  0.7464 -3.8146  2.5365
 6942TIP3   OH242316   5.824   1.402   2.181  0.6809  0.3856 -0.4454
 6942TIP3    H142317   5.768   1.478   2.194 -0.1572  0.0698 -2.0018
 6942TIP3    H242318   5.788   1.359   2.103  2.5597 -0.3046 -0.9689
 6943TIP3   OH242319   2.963   2.961   3.091 -0.0037  0.1761  0.2317
 6943TIP3    H142320   2.978   2.871   3.065  1.4678  0.2141  0.9159
 6943TIP3    H242321   2.882   2.959   3.141  0.2167 -0.8290  0.5492
 6944TIP3   OH242322   0.022   5.979   0.442  0.1734 -0.3184  0.4827
 6944TIP3    H142323   0.016   6.069   0.410  0.4070 -0.4136  0.1677
 6944TIP3    H242324  -0.068   5.955   0.464  0.2638  0.3954  1.6746
 6945TIP3   OH242325   5.297   2.193   1.722  0.2359  0.0091 -0.1716
 6945TIP3    H142326   5.273   2.258   1.788  0.7726  0.4529 -0.4092
 6945TIP3    H242327   5.315   2.244   1.644  3.3379 -0.1779  0.3703
 6946TIP3   OH242328   4.941   1.494   1.942 -0.2201  0.3269 -1.1963
 6946TIP3    H142329   4.963   1.422   2.000  2.1337  2.6349  0.8870
 6946TIP3    H242330   5.015   1.500   1.881 -0.9507  0.2693 -2.1119
 6947TIP3   OH242331   5.450   3.390   5.293 -0.7622  0.0476 -0.0566
 6947TIP3    H142332   5.379   3.342   5.251  0.3314 -1.6136 -0.0726
 6947TIP3    H242333   5.487   3.445   5.224 -0.3898 -1.0221 -0.7241
 6948TIP3   OH242334   2.102   5.366   2.384 -0.4185  0.0384 -0.2524
 6948TIP3    H142335   2.193   5.346   2.407  0.3751  1.8790 -1.6105
 6948TIP3    H242336   2.052   5.346   2.463  1.2998 -0.1000  0.8371
 6949TIP3   OH242337   6.439   1.985   5.776  0.0179  0.5533 -0.0420
 6949TIP3    H142338   6.435   2.079   5.760  0.7812  0.6058  0.0260
 6949TIP3    H242339   6.515   1.955   5.726  0.3627  0.1452  0.7086
 6950TIP3   OH242340   2.468   4.934  14.202  0.2258  0.2663  0.1041
 6950TIP3    H142341   2.440   4.932  14.111  0.8211 -1.0754 -0.0517
 6950TIP3    H242342   2.388   4.956  14.251 -0.8739 -2.4311 -0.4262
 6951TIP3   OH242343   5.655   6.010   3.002  0.1990  0.3867 -0.5415
 6951TIP3    H142344   5.717   6.077   3.029 -1.6559  1.9807 -0.1643
 6951TIP3    H242345   5.634   5.962   3.082  1.5832 -0.7267 -0.8250
 6952TIP3   OH242346   4.022   6.284  14.542 -0.1512  0.5127  0.7030
 6952TIP3    H142347   3.932   6.287  14.509  0.3199  2.1243 -0.4754
 6952TIP3    H242348   4.018   6.222  14.615 -2.1322  0.2685  0.4256
 6953TIP3   OH242349   0.488   2.129   3.130  0.0858  0.1392  0.0912
 6953TIP3    H142350   0.416   2.075   3.163  2.9271 -2.9571  1.4392
 6953TIP3    H242351   0.477   2.128   3.035 -1.5731 -0.3743  0.2801
 6954TIP3   OH242352   1.159   4.084  12.848 -0.4571  0.1902  0.0402
 6954TIP3    H142353   1.221   4.158  12.845 -3.7195  3.0875  0.8271
 6954TIP3    H242354   1.167   4.044  12.761  2.6059  0.3579  0.1791
 6955TIP3   OH242355   0.501   5.808  16.841 -0.2219  0.4544  0.4106
 6955TIP3    H142356   0.574   5.857  16.804 -0.9027  1.0712 -0.1519
 6955TIP3    H242357   0.427   5.868  16.835 -1.0432 -0.5813 -0.1594
 6956TIP3   OH242358   5.503   4.226  14.476  0.0400  0.0009 -0.2872
 6956TIP3    H142359   5.481   4.138  14.445 -0.2189  0.1091 -0.4169
 6956TIP3    H242360   5.598   4.228  14.480  0.0616 -0.1081 -0.7998
 6957TIP3   OH242361   5.129   0.656   2.499 -0.2937  0.4336  0.0410
 6957TIP3    H142362   5.076   0.607   2.436 -0.8990 -0.6246  1.3374
 6957TIP3    H242363   5.108   0.615   2.584  0.6697  1.6784  0.8874
 6958TIP3   OH242364   4.366   1.426  11.162  0.1692  0.1245 -0.5066
 6958TIP3    H142365   4.283   1.472  11.149  0.1868  0.7490  1.4169
 6958TIP3    H242366   4.350   1.338  11.129 -0.7603  0.6879 -1.6117
 6959TIP3   OH242367   0.595   1.971   5.235 -0.4397  0.0645 -0.1459
 6959TIP3    H142368   0.539   2.030   5.184 -1.2943  0.7977  1.5980
 6959TIP3    H242369   0.533   1.915   5.282  0.3083 -0.0644  0.7023
 6960TIP3   OH242370   0.413   3.192  15.793 -0.3872  0.2631  0.3321
 6960TIP3    H142371   0.408   3.271  15.738  0.0682  0.3875  0.4681
 6960TIP3    H242372   0.503   3.161  15.782 -0.0427  0.7740  1.6944
 6961TIP3   OH242373   3.649   2.712  11.214 -0.2771 -0.2206 -0.0818
 6961TIP3    H142374   3.681   2.773  11.280 -0.3669  0.4867 -0.6867
 6961TIP3    H242375   3.717   2.711  11.147  0.0649 -1.3533  0.2721
 6962TIP3   OH242376   2.211   0.870   4.260 -0.3632 -0.2755  0.1533
 6962TIP3    H142377   2.297   0.847   4.225  0.7705  2.0344  1.2671
 6962TIP3    H242378   2.192   0.956   4.221 -1.5289 -0.1366  1.0011
 6963TIP3   OH242379   4.494   1.853  13.026  0.1498  0.2617 -0.3761
 6963TIP3    H142380   4.400   1.866  13.014 -0.3202 -2.5190  0.1751
 6963TIP3    H242381   4.527   1.836  12.938 -0.6546 -3.5296  0.0072
 6964TIP3   OH242382   6.225   2.117  11.344 -0.0679  0.5569 -0.0154
 6964TIP3    H142383   6.282   2.058  11.394 -1.9483 -1.7585 -0.5522
 6964TIP3    H242384   6.271   2.131  11.261 -0.4186 -1.5897 -0.5865
 6965TIP3   OH242385   4.235   5.671   5.041 -0.2375  0.5205 -0.1864
 6965TIP3    H142386   4.229   5.629   4.955 -1.1846  1.7107 -0.7208
 6965TIP3    H242387   4.200   5.605   5.102 -0.7509  0.1410 -0.8743
 6966TIP3   OH242388   2.003   5.631   5.748  0.1084  0.0040  0.3555
 6966TIP3    H142389   2.043   5.709   5.786 -0.3950  0.2413  0.4088
 6966TIP3    H242390   1.917   5.661   5.718  0.1855 -0.3694 -0.2488
 6967TIP3   OH242391   4.410   4.835   2.122  0.1066 -0.0956 -0.9289
 6967TIP3    H142392   4.476   4.769   2.145  0.6476  1.0607  0.9791
 6967TIP3    H242393   4.380   4.868   2.207 -2.3385 -0.0311 -1.8082
 6968TIP3   OH242394   6.175   6.377   4.370 -0.2310 -0.7299 -0.4205
 6968TIP3    H142395   6.161   6.439   4.298 -1.8286 -0.4814  0.0853
 6968TIP3    H242396   6.087   6.354   4.399  0.3669 -2.5920 -0.0464
 6969TIP3   OH242397   0.763   0.262   5.499  0.0997  0.2581 -1.0067
 6969TIP3    H142398   0.798   0.203   5.432 -0.0734  0.5621 -1.3661
 6969TIP3    H242399   0.687   0.215   5.534  0.1059  0.1588 -1.1242
 6970TIP3   OH242400   4.773   2.894   4.521  0.2127  0.0215  0.3226
 6970TIP3    H142401   4.823   2.972   4.546  0.4746 -0.3480  0.9715
 6970TIP3    H242402   4.830   2.821   4.545 -0.6442 -0.4077  1.0823
 6971TIP3   OH242403   0.393   5.939  15.786 -0.4926 -0.4958  0.7900
 6971TIP3    H142404   0.452   5.905  15.853  0.7641  1.7035  0.8452
 6971TIP3    H242405   0.387   5.868  15.721 -0.2608 -1.9164  2.2873
 6972TIP3   OH242406   6.302   1.212   5.784 -0.4839 -0.1301 -0.4017
 6972TIP3    H142407   6.298   1.272   5.710 -2.4469  1.0529  0.6167
 6972TIP3    H242408   6.384   1.233   5.828 -0.6551  1.0756 -0.6567
 6973TIP3   OH242409   1.158   4.797  11.686  0.6698  0.0137 -0.4445
 6973TIP3    H142410   1.223   4.819  11.752  0.2398 -0.4458  0.1327
 6973TIP3    H242411   1.131   4.881  11.649  0.4583  0.3180  0.3957
 6974TIP3   OH242412   0.078   2.090  14.449  0.1237 -0.6157  0.4790
 6974TIP3    H142413   0.074   2.032  14.525 -0.1440 -0.5206  0.5373
 6974TIP3    H242414   0.162   2.136  14.459 -0.6619  0.5868  1.5850
 6975TIP3   OH242415   2.376   4.454  11.894 -0.2452  0.5451 -0.4058
 6975TIP3    H142416   2.413   4.466  11.806  0.5452  0.6089 -0.0679
 6975TIP3    H242417   2.415   4.524  11.946 -3.1015  2.4445 -0.7149
 6976TIP3   OH242418   3.382   1.267   4.698 -0.3571 -0.1088  0.1573
 6976TIP3    H142419   3.313   1.325   4.732 -1.7034 -0.2712 -2.1794
 6976TIP3    H242420   3.457   1.325   4.685 -0.7097  0.4907  0.7268
 6977TIP3   OH242421   4.837   0.087   3.865  0.4206 -0.4287 -0.1822
 6977TIP3    H142422   4.809  -0.002   3.845 -0.8204 -0.2092  0.5380
 6977TIP3    H242423   4.893   0.078   3.942 -0.7680 -0.4406  0.6854
 6978TIP3   OH242424   6.519   4.428  12.713  0.1888  0.8280 -1.0167
 6978TIP3    H142425   6.430   4.451  12.738 -0.0564  0.5330 -1.6118
 6978TIP3    H242426   6.549   4.502  12.660 -0.3210  0.1392 -2.2713
 6979TIP3   OH242427   5.591   6.503   1.767 -0.6456 -0.0440  0.2195
 6979TIP3    H142428   5.606   6.595   1.746 -0.1547  0.2830  1.9806
 6979TIP3    H242429   5.568   6.502   1.860  2.9406 -2.0262  1.1765
 6980TIP3   OH242430   4.606   0.859   4.491  0.3355 -0.3759  0.0216
 6980TIP3    H142431   4.689   0.906   4.498 -0.5773  1.1780  0.8619
 6980TIP3    H242432   4.604   0.803   4.568  0.2300  0.2462  0.4804
 6981TIP3   OH242433   4.449   3.837  17.054  0.0671  0.2878 -0.2711
 6981TIP3    H142434   4.482   3.759  17.009 -1.7344 -0.6677 -0.0075
 6981TIP3    H242435   4.425   3.805  17.142  0.5605  1.4327  0.2865
 6982TIP3   OH242436   3.016   5.147  10.813 -0.1156 -0.4109  0.2798
 6982TIP3    H142437   2.942   5.102  10.852 -0.3547  1.1646  1.6956
 6982TIP3    H242438   3.004   5.136  10.718 -0.8505 -2.1570  0.5570
 6983TIP3   OH242439   1.529   2.011   0.597  0.3081 -0.1988 -0.4968
 6983TIP3    H142440   1.479   2.034   0.519 -0.6165 -1.8792 -0.4124
 6983TIP3    H242441   1.473   2.037   0.671  0.6507  0.2426 -0.3882
 6984TIP3   OH242442   2.400   0.559  16.075  0.0645  0.0511 -0.2133
 6984TIP3    H142443   2.398   0.464  16.076  0.4892  0.0456 -0.0160
 6984TIP3    H242444   2.492   0.582  16.089 -0.0445  0.4909 -0.2011
 6985TIP3   OH242445   3.198   0.685   2.767  0.0810 -0.7315 -0.1159
 6985TIP3    H142446   3.164   0.701   2.855  1.9229 -1.6876  0.7928
 6985TIP3    H242447   3.144   0.613   2.733 -1.9612  0.9850 -0.5660
 6986TIP3   OH242448   4.311   0.301  15.606  0.1882  0.1010 -0.2642
 6986TIP3    H142449   4.273   0.232  15.662 -0.8178  1.1788  0.4157
 6986TIP3    H242450   4.368   0.254  15.546 -0.6560 -1.3656  0.0437
 6987TIP3   OH242451   6.364   4.292   4.802 -0.0093  0.7587 -0.1499
 6987TIP3    H142452   6.294   4.338   4.849 -1.1190  2.1301 -3.0165
 6987TIP3    H242453   6.431   4.359   4.788  0.7205  0.1205  0.2749
 6988TIP3   OH242454   5.152   6.223  13.336  0.7121  0.0681 -0.1136
 6988TIP3    H142455   5.196   6.277  13.400 -0.8477  1.0499  0.1491
 6988TIP3    H242456   5.136   6.281  13.261 -0.6238 -0.1177  0.0157
 6989TIP3   OH242457   3.930   1.364  13.405 -0.4594  0.0161  0.1171
 6989TIP3    H142458   3.868   1.296  13.380  0.6490 -0.7993 -0.4959
 6989TIP3    H242459   3.973   1.330  13.484  1.5414 -0.9598 -1.3461
 6990TIP3   OH242460   1.650   2.515   2.444  0.6064  0.1836  0.7032
 6990TIP3    H142461   1.648   2.589   2.504 -1.7251  1.5373 -0.9440
 6990TIP3    H242462   1.560   2.482   2.443  0.6728 -0.0514 -1.7108
 6991TIP3   OH242463   2.593   0.621   1.842  0.0687  0.2729  0.9651
 6991TIP3    H142464   2.554   0.690   1.789 -0.7104 -0.6392  0.3445
 6991TIP3    H242465   2.683   0.651   1.858  0.9929 -0.3464 -2.5545
 6992TIP3   OH242466   5.206   4.135  14.116  0.1448 -0.3310  0.0862
 6992TIP3    H142467   5.289   4.184  14.115 -0.7178  1.1755  0.5446
 6992TIP3    H242468   5.176   4.138  14.025 -0.0044  0.1955  0.1471
 6993TIP3   OH242469   0.457   2.736   5.354  0.8363 -0.4713  0.5383
 6993TIP3    H142470   0.402   2.728   5.276  1.9610 -0.3149 -0.2842
 6993TIP3    H242471   0.504   2.653   5.359  1.0633 -0.3289  0.8202
 6994TIP3   OH242472   6.108   1.979   4.205 -0.5216  0.1251 -0.0059
 6994TIP3    H142473   6.112   1.886   4.227 -1.7332  0.4049  1.4991
 6994TIP3    H242474   6.014   2.000   4.206 -0.2909  1.2666 -0.7738
 6995TIP3   OH242475   0.447   0.971  15.798 -0.2036 -0.4301  0.0864
 6995TIP3    H142476   0.394   0.912  15.746 -2.2966  0.6258  0.9502
 6995TIP3    H242477   0.488   1.030  15.734  0.3982 -1.5962 -0.6187
 6996TIP3   OH242478   4.450   3.928   4.721  0.2500  0.7092 -0.3880
 6996TIP3    H142479   4.374   3.871   4.717 -0.6887  1.9003  0.0086
 6996TIP3    H242480   4.415   4.013   4.750  1.5671  1.5447 -1.1813
 6997TIP3   OH242481   3.145   3.698  11.220  0.9649  0.0688  0.0238
 6997TIP3    H142482   3.083   3.644  11.270  0.1241 -0.2493 -1.3247
 6997TIP3    H242483   3.105   3.785  11.219  1.2348  0.1979  0.3274
 6998TIP3   OH242484   4.273   4.860  12.209 -0.0039  0.8197 -0.2726
 6998TIP3    H142485   4.348   4.915  12.191 -1.0282  2.3676  0.0858
 6998TIP3    H242486   4.300   4.772  12.181  1.9178  1.3454 -0.1196
 6999TIP3   OH242487   1.098   1.099   3.616 -0.2313  0.1080 -0.1488
 6999TIP3    H142488   1.133   1.023   3.661 -0.3823 -0.7391 -1.4314
 6999TIP3    H242489   1.003   1.090   3.623 -0.2775 -0.6516 -1.6336
 7000TIP3   OH242490   1.689   6.082  13.002 -0.2403  0.5041  0.5237
 7000TIP3    H142491   1.730   6.153  13.050 -0.0183  0.0292  1.0423
 7000TIP3    H242492   1.692   6.007  13.062  0.2268 -0.1514 -0.3029
 7001TIP3   OH242493   2.634   5.628  12.399  0.4672  0.0562 -0.1258
 7001TIP3    H142494   2.727   5.608  12.393  0.2039 -1.1394 -0.4541
 7001TIP3    H242495   2.603   5.575  12.473  0.1610  0.8733  0.3347
 7002TIP3   OH242496   5.500   2.943   5.293 -0.2155  1.2809 -0.1069
 7002TIP3    H142497   5.588   2.977   5.311  0.1035  0.1563  0.5026
 7002TIP3    H242498   5.469   2.910   5.377 -1.0109  1.1802 -0.4341
 7003TIP3   OH242499   5.537   1.150   0.486 -0.2029  0.3352  0.1841
 7003TIP3    H142500   5.482   1.111   0.418 -3.2252  1.8727  1.6543
 7003TIP3    H242501   5.583   1.075   0.525 -2.3673 -1.1982 -0.1230
 7004TIP3   OH242502   1.531   1.117  12.021 -0.2363 -0.2967 -0.1218
 7004TIP3    H142503   1.599   1.181  12.042  1.5564 -1.6421 -1.6455
 7004TIP3    H242504   1.549   1.093  11.930 -2.0794 -1.5184 -0.1759
 7005TIP3   OH242505   0.577   2.397   3.273  0.0911 -0.1349 -0.4783
 7005TIP3    H142506   0.648   2.460   3.259  1.3409 -0.6918  2.9967
 7005TIP3    H242507   0.608   2.317   3.229  1.0062  0.0382 -0.1711
 7006TIP3   OH242508   0.330   0.557   5.957 -0.3834 -0.1770  0.4081
 7006TIP3    H142509   0.313   0.643   5.993 -0.4849 -0.1388  0.2714
 7006TIP3    H242510   0.352   0.574   5.865  1.4409 -0.1285  0.8332
 7007TIP3   OH242511   3.684   2.705  11.775 -0.1361  0.0601 -0.1839
 7007TIP3    H142512   3.610   2.699  11.714 -0.3846  0.2728  0.0935
 7007TIP3    H242513   3.672   2.633  11.835  0.5598 -0.6397 -0.8740
 7008TIP3   OH242514   0.873   2.365  13.766 -0.2026 -0.2240 -0.0020
 7008TIP3    H142515   0.896   2.280  13.728 -0.8356 -0.0858 -0.7065
 7008TIP3    H242516   0.778   2.361  13.778 -0.2564  0.4397 -0.1822
 7009TIP3   OH242517   4.074   3.111   3.179  0.6534 -0.3747 -0.1760
 7009TIP3    H142518   4.130   3.034   3.191 -0.9620 -1.6193 -0.2789
 7009TIP3    H242519   4.052   3.109   3.086 -0.1529 -0.3363  0.0116
 7010TIP3   OH242520   0.219   6.470   1.173  0.3584  0.5542  0.2917
 7010TIP3    H142521   0.267   6.438   1.250 -1.9538  0.1296  1.6227
 7010TIP3    H242522   0.182   6.391   1.133  0.7945  0.8671 -0.7358
 7011TIP3   OH242523   4.797   2.190   5.424  0.8176 -0.5642  0.3048
 7011TIP3    H142524   4.871   2.145   5.465 -0.5098 -2.2878  0.8849
 7011TIP3    H242525   4.765   2.128   5.359  1.2859  1.1050 -1.5691
 7012TIP3   OH242526   5.601   0.966  16.614  0.1723  0.2506  0.1639
 7012TIP3    H142527   5.683   0.979  16.566  0.6030 -0.5679  0.6706
 7012TIP3    H242528   5.551   1.047  16.599  0.7279  0.4203 -0.8164
 7013TIP3   OH242529   0.010   1.952   0.334  0.1072 -0.8465 -0.0654
 7013TIP3    H142530  -0.046   2.011   0.385  0.1256 -1.6759  0.9355
 7013TIP3    H242531  -0.030   1.866   0.344  0.0301 -1.0057 -1.5927
 7014TIP3   OH242532   3.295   4.042   5.762 -0.6591  1.0203 -0.3626
 7014TIP3    H142533   3.216   3.989   5.767 -0.6109  1.0526  0.9739
 7014TIP3    H242534   3.291   4.099   5.839  0.2137  1.6466 -0.7668
 7015TIP3   OH242535   5.965   5.877   3.297 -0.0525 -0.1229 -0.1439
 7015TIP3    H142536   5.996   5.787   3.290 -0.5559 -0.4570  1.7569
 7015TIP3    H242537   5.993   5.919   3.215 -1.4324 -2.4999 -1.8678
 7016TIP3   OH242538   6.152   5.114   0.270 -0.1038 -0.0019 -0.6120
 7016TIP3    H142539   6.157   5.076   0.183 -1.5269 -0.5405 -0.4787
 7016TIP3    H242540   6.177   5.043   0.329 -0.2390  0.0222 -0.5231
 7017TIP3   OH242541   2.896   4.649  15.839  0.2514 -0.6531 -0.1667
 7017TIP3    H142542   2.909   4.731  15.791  0.2702 -0.4128  0.2468
 7017TIP3    H242543   2.961   4.589  15.803 -1.5366 -1.3343 -2.3858
 7018TIP3   OH242544   5.875   6.476  16.006  0.2460  0.4744 -0.5531
 7018TIP3    H142545   5.960   6.432  16.007  1.0546  1.9843 -0.0197
 7018TIP3    H242546   5.859   6.500  16.097 -0.4680  0.7203 -0.7374
 7019TIP3   OH242547   6.431   1.540  10.197  0.1954  0.0858  0.6701
 7019TIP3    H142548   6.413   1.626  10.234 -1.3673  0.0685 -0.0194
 7019TIP3    H242549   6.395   1.478  10.260 -1.3586  0.0268 -0.2494
 7020TIP3   OH242550   5.055   2.289  16.202 -0.0297 -0.7361  0.8229
 7020TIP3    H142551   4.989   2.284  16.132 -0.2722 -1.0474  1.0715
 7020TIP3    H242552   5.080   2.382  16.205 -1.9049 -0.2592  2.0666
 7021TIP3   OH242553   2.977   4.593  10.669  0.1637 -0.7234 -0.3203
 7021TIP3    H142554   3.016   4.514  10.631  0.4253 -0.7172 -0.0711
 7021TIP3    H242555   3.030   4.610  10.748 -1.2920 -1.5670  0.8578
 7022TIP3   OH242556   2.294   2.019  12.928  0.2076 -0.3139  0.0763
 7022TIP3    H142557   2.376   2.044  12.971  2.3260 -3.5773 -1.8057
 7022TIP3    H242558   2.283   2.084  12.858  1.1646  0.1892  0.3856
 7023TIP3   OH242559   4.516   1.686  14.843  0.1927  0.5792 -0.3287
 7023TIP3    H142560   4.511   1.706  14.937 -0.3843 -2.0619  0.2497
 7023TIP3    H242561   4.609   1.673  14.826  0.1473 -0.6097  0.2763
 7024TIP3   OH242562   4.622   2.427   2.436 -0.0768  0.5954 -0.1484
 7024TIP3    H142563   4.582   2.511   2.413 -0.7201  0.1759 -0.5579
 7024TIP3    H242564   4.666   2.399   2.356  0.0404  0.4790 -0.0439
 7025TIP3   OH242565   1.956   6.207   1.505 -0.1241 -0.0978 -0.4959
 7025TIP3    H142566   1.934   6.157   1.426  0.5830  2.4884 -2.3801
 7025TIP3    H242567   2.046   6.236   1.491 -1.4185  4.0678 -0.7708
 7026TIP3   OH242568   3.631   6.694   3.773  0.2776  0.0652  0.1833
 7026TIP3    H142569   3.726   6.701   3.762  0.3257  0.1055  0.6071
 7026TIP3    H242570   3.615   6.599   3.775  0.4189  0.0534  0.9989
 7027TIP3   OH242571   1.315   0.087  14.484 -0.0006  0.1329 -0.5229
 7027TIP3    H142572   1.359   0.145  14.422 -0.0305 -0.7274 -1.3601
 7027TIP3    H242573   1.385   0.046  14.534  0.0280  0.7113 -0.0721
 7028TIP3   OH242574   4.976   1.802   3.845  0.1108  0.5408  0.2643
 7028TIP3    H142575   5.062   1.809   3.804 -0.0968 -0.6570 -0.4261
 7028TIP3    H242576   4.952   1.892   3.868  1.2307  0.9600 -0.1785
 7029TIP3   OH242577   4.402   6.079   5.813 -0.4796  0.0791 -0.2000
 7029TIP3    H142578   4.323   6.115   5.772  0.0561  2.0932  0.4477
 7029TIP3    H242579   4.375   5.995   5.850 -2.1044  0.3775 -0.6885
 7030TIP3   OH242580   6.532   1.364  12.194  0.3692 -0.0888 -0.4358
 7030TIP3    H142581   6.617   1.405  12.182  1.9460 -2.9486  0.3762
 7030TIP3    H242582   6.516   1.318  12.112 -1.0868  1.5858 -1.1149
 7031TIP3   OH242583   2.562   0.357  13.453  0.6951  0.1941 -0.5676
 7031TIP3    H142584   2.467   0.352  13.440  0.4780 -2.0932  1.4556
 7031TIP3    H242585   2.599   0.342  13.366 -0.7784 -0.2203 -1.1432
 7032TIP3   OH242586   1.615   3.183   0.743  0.1211 -0.2909  0.2022
 7032TIP3    H142587   1.651   3.271   0.739  0.1545 -0.2469  1.2942
 7032TIP3    H242588   1.658   3.136   0.671  1.7661 -0.0228  0.9805
 7033TIP3   OH242589   0.704   1.008   6.096  0.7493  0.4208 -0.0191
 7033TIP3    H142590   0.747   1.093   6.093 -3.3966  2.7031  0.6955
 7033TIP3    H242591   0.704   0.978   6.005  6.5535 -1.2991  0.3433
 7034TIP3   OH242592   5.517   2.256   6.713  0.0460  0.2477  0.1528
 7034TIP3    H142593   5.450   2.310   6.672  0.3856  1.3751  1.0645
 7034TIP3    H242594   5.468   2.194   6.768 -0.2632  0.8939  0.6090
 7035TIP3   OH242595   1.077   2.691  11.316 -0.3141  0.5611  0.3107
 7035TIP3    H142596   1.169   2.685  11.290 -0.1251  1.6492  0.6932
 7035TIP3    H242597   1.032   2.627  11.261  0.9888 -1.5899  1.7037
 7036TIP3   OH242598   4.949   5.447  11.449  0.6284 -0.1423 -0.0642
 7036TIP3    H142599   5.018   5.429  11.385  0.3096 -1.2360 -0.1019
 7036TIP3    H242600   4.977   5.402  11.528 -0.1787 -0.8095 -0.1610
 7037TIP3   OH242601   4.096   3.855   5.205 -0.2172 -0.3057  0.0381
 7037TIP3    H142602   4.167   3.919   5.194 -0.5524  0.1812  0.7014
 7037TIP3    H242603   4.118   3.807   5.284  1.0966 -2.4081 -1.5623
 7038TIP3   OH242604   3.742   0.590  13.683  0.2577  0.0565 -0.5205
 7038TIP3    H142605   3.742   0.577  13.778 -0.1227 -0.3580 -0.5764
 7038TIP3    H242606   3.785   0.675  13.671  1.3074 -0.4129 -0.0628
 7039TIP3   OH242607   6.055   2.844  12.636  0.2439  0.5018 -0.0372
 7039TIP3    H142608   6.111   2.766  12.643 -2.0832 -1.2074  0.2137
 7039TIP3    H242609   6.020   2.840  12.547  1.0530  1.9639 -0.4394
 7040TIP3   OH242610   2.622   2.082   5.184 -0.6961  0.0848 -0.4139
 7040TIP3    H142611   2.584   2.157   5.228  0.3438  0.3499  0.0571
 7040TIP3    H242612   2.685   2.046   5.247 -0.6721 -0.7566 -0.8982
 7041TIP3   OH242613   3.210   5.226   5.609  0.7454  0.4117  0.3116
 7041TIP3    H142614   3.132   5.233   5.665  1.5853 -1.1242  1.6902
 7041TIP3    H242615   3.177   5.242   5.521 -1.5917 -2.6216  0.5701
 7042TIP3   OH242616   2.347   3.158   1.252 -0.0663 -0.1386 -0.1342
 7042TIP3    H142617   2.309   3.164   1.340 -1.8965  0.7102 -0.9568
 7042TIP3    H242618   2.325   3.241   1.211  0.5788 -0.6266 -1.4941
 7043TIP3   OH242619   5.899   5.235  15.104 -0.0372 -0.4447  0.5377
 7043TIP3    H142620   5.954   5.307  15.138  0.2621  0.0256 -0.8963
 7043TIP3    H242621   5.957   5.186  15.046 -1.2067  0.2517 -1.2645
 7044TIP3   OH242622   1.822   6.043   4.400 -0.5876 -0.2549  0.5086
 7044TIP3    H142623   1.754   5.976   4.409 -1.0885  0.1803 -0.0653
 7044TIP3    H242624   1.902   5.998   4.428 -0.8160 -1.2695 -0.4294
 7045TIP3   OH242625   3.331   0.978  15.551  0.0670 -0.0837  0.6627
 7045TIP3    H142626   3.309   1.058  15.598  0.8984  0.5204  0.0280
 7045TIP3    H242627   3.254   0.921  15.562  0.9410 -0.6490  4.2070
 7046TIP3   OH242628   0.653   2.957  11.926  0.1091 -0.4785 -0.4438
 7046TIP3    H142629   0.677   2.964  12.018 -1.3790 -1.4059  0.0397
 7046TIP3    H242630   0.571   3.007  11.918  0.7467  0.4274 -1.4765
 7047TIP3   OH242631   6.163   4.474  12.341  0.0087 -0.1326  0.0514
 7047TIP3    H142632   6.182   4.403  12.402  1.7346  0.9625  0.8091
 7047TIP3    H242633   6.240   4.480  12.285 -0.8712 -0.0167 -1.1898
 7048TIP3   OH242634   6.128   6.560   4.190  0.7812 -0.0633  0.5368
 7048TIP3    H142635   6.046   6.608   4.201  0.4444 -0.9265  1.8185
 7048TIP3    H242636   6.151   6.574   4.098 -0.5374  0.6032  0.2935
 7049TIP3   OH242637   1.249   1.251   1.869 -0.4952  0.0677 -0.1083
 7049TIP3    H142638   1.225   1.186   1.935  1.2594 -0.8987 -0.3823
 7049TIP3    H242639   1.232   1.207   1.785  0.0562  0.2210 -0.2986
 7050TIP3   OH242640   5.367   2.457   2.696  0.4351  0.7163  0.4901
 7050TIP3    H142641   5.311   2.534   2.685 -0.1006 -0.0633 -2.9412
 7050TIP3    H242642   5.450   2.481   2.653  0.6591 -0.1901  0.3993
 7051TIP3   OH242643   4.220   2.161   6.612 -0.2611  0.3581 -0.6359
 7051TIP3    H142644   4.128   2.180   6.592 -0.8526 -0.2666  1.3553
 7051TIP3    H242645   4.248   2.103   6.541 -1.8825 -0.7672 -0.3811
 7052TIP3   OH242646   4.939   3.792   0.315  0.5891  0.0865 -0.5895
 7052TIP3    H142647   5.020   3.812   0.362 -1.1203 -0.9001  2.9083
 7052TIP3    H242648   4.923   3.869   0.260  1.6443  2.1570  1.9099
 7053TIP3   OH242649   1.438   1.227   3.645  0.1199  0.0568  0.4502
 7053TIP3    H142650   1.510   1.286   3.670  0.4058 -0.0726 -0.0626
 7053TIP3    H242651   1.418   1.179   3.725 -0.5029  1.2585  1.0214
 7054TIP3   OH242652   6.553   4.282   4.240  0.8924  0.7248 -0.0676
 7054TIP3    H142653   6.604   4.201   4.239  0.3309  0.3818 -1.7136
 7054TIP3    H242654   6.518   4.286   4.329  0.6718 -1.0048 -0.0473
 7055TIP3   OH242655   0.986   3.847  16.867  0.5848 -0.5403  0.3542
 7055TIP3    H142656   0.932   3.926  16.874  0.8159 -0.3681  0.2276
 7055TIP3    H242657   1.030   3.856  16.783  0.7233 -0.7325  0.4054
 7056TIP3   OH242658   4.258   6.535  12.763 -0.5950 -0.2054  0.4237
 7056TIP3    H142659   4.331   6.566  12.815 -0.6091  0.5574 -0.0054
 7056TIP3    H242660   4.262   6.440  12.770 -0.2083 -0.1274  1.2706
 7057TIP3   OH242661   6.044   3.196   1.134 -0.2960 -0.2794  0.2989
 7057TIP3    H142662   6.008   3.270   1.184 -0.8628  0.3430 -1.0049
 7057TIP3    H242663   6.002   3.203   1.048 -0.5492 -2.2810  0.2515
 7058TIP3   OH242664   2.211   0.913   2.369  0.9186 -0.1261  0.1637
 7058TIP3    H142665   2.230   0.931   2.461  1.8302  0.1326 -0.0663
 7058TIP3    H242666   2.183   0.822   2.367 -1.1797  0.4720  0.9849
 7059TIP3   OH242667   5.608   5.483   0.733  0.1326  0.1421  0.3066
 7059TIP3    H142668   5.572   5.445   0.814  1.4882 -0.7942  0.4886
 7059TIP3    H242669   5.536   5.477   0.670 -0.6544  0.0677  1.2041
 7060TIP3   OH242670   4.331   6.134  14.642 -0.3047  0.5099  0.3013
 7060TIP3    H142671   4.346   6.229  14.638 -0.4207  0.5387  0.5097
 7060TIP3    H242672   4.274   6.115  14.568 -1.0246  0.7481  0.7846
 7061TIP3   OH242673   4.182   4.384   5.682  0.5975 -0.3886 -0.0106
 7061TIP3    H142674   4.195   4.316   5.748  1.9409  0.2198  0.3771
 7061TIP3    H242675   4.264   4.434   5.683  0.6591 -0.3829 -2.1444
 7062TIP3   OH242676   1.611   0.758   4.087  0.4018 -0.0271  0.0777
 7062TIP3    H142677   1.625   0.842   4.044  2.4095 -0.0217  0.6970
 7062TIP3    H242678   1.593   0.698   4.015 -0.3724  0.7911 -0.4228
 7063TIP3   OH242679   5.271   4.758  13.801 -1.0518  0.0690 -0.0445
 7063TIP3    H142680   5.356   4.792  13.831 -1.2493  0.4980  0.0278
 7063TIP3    H242681   5.210   4.780  13.871 -1.2891  0.0562 -0.2479
 7064TIP3   OH242682   1.248   4.192   4.491  0.0478 -0.2013 -0.0317
 7064TIP3    H142683   1.293   4.227   4.568  1.0854  0.5312 -0.9547
 7064TIP3    H242684   1.158   4.223   4.499  0.3464  0.5512  0.4665
 7065TIP3   OH242685   2.940   6.139   4.934  0.2583 -0.0518 -0.4469
 7065TIP3    H142686   3.028   6.174   4.949  0.0758  0.0709  0.3640
 7065TIP3    H242687   2.881   6.209   4.964 -0.1114 -0.6963  0.3459
 7066TIP3   OH242688   5.796   2.520   2.063  0.1628  0.0401  0.0596
 7066TIP3    H142689   5.884   2.486   2.081  0.6552  1.6554  0.7842
 7066TIP3    H242690   5.771   2.566   2.144 -1.2669 -0.2537 -0.2124
 7067TIP3   OH242691   3.153   1.079   0.289  0.6995  0.1348  0.2643
 7067TIP3    H142692   3.138   1.173   0.289 -2.1552 -0.2688  0.0730
 7067TIP3    H242693   3.139   1.052   0.380 -1.5923 -0.5053 -0.2425
 7068TIP3   OH242694   1.162   4.543  15.731  0.0407 -0.0767 -0.4269
 7068TIP3    H142695   1.175   4.526  15.824 -0.0264  0.7778 -0.2596
 7068TIP3    H242696   1.239   4.504  15.689  0.7505  0.7224  0.1089
 7069TIP3   OH242697   3.531   5.309   1.498 -0.3389  0.2601 -0.4362
 7069TIP3    H142698   3.501   5.295   1.409  1.2245  1.4151 -1.1749
 7069TIP3    H242699   3.622   5.277   1.498 -0.1407  0.7860  0.5847
 7070TIP3   OH242700   1.450   2.164  16.078  0.2991  0.2152 -0.0773
 7070TIP3    H142701   1.367   2.117  16.081  0.4279 -0.0188 -0.1072
 7070TIP3    H242702   1.481   2.153  15.988  0.3215  0.3688 -0.0891
 7071TIP3   OH242703   1.723   6.183   0.433 -0.6530 -0.2960 -0.0535
 7071TIP3    H142704   1.781   6.160   0.505 -1.8713  1.5704  1.5748
 7071TIP3    H242705   1.713   6.278   0.439 -3.2115 -0.4685 -0.7755
 7072TIP3   OH242706   6.391   2.562   1.798  0.2244  0.5230 -0.2173
 7072TIP3    H142707   6.407   2.544   1.706  3.0736  0.8867  0.1642
 7072TIP3    H242708   6.463   2.619   1.825 -0.8566  0.8737  2.1016
 7073TIP3   OH242709   6.210   0.918  11.760 -0.6385  0.0750 -0.2903
 7073TIP3    H142710   6.280   0.955  11.708  0.1081 -1.4536 -0.4144
 7073TIP3    H242711   6.130   0.959  11.726  0.4437  4.6417  2.3649
 7074TIP3   OH242712   6.097   6.123   6.800  0.0400  0.3523 -0.8062
 7074TIP3    H142713   6.174   6.115   6.745 -0.5972 -1.2911 -1.4802
 7074TIP3    H242714   6.059   6.035   6.802 -2.2041  1.2817 -1.0670
 7075TIP3   OH242715   6.668   4.318  15.860  0.2413 -0.4388 -1.1117
 7075TIP3    H142716   6.727   4.373  15.911 -0.3130 -1.7339  0.9972
 7075TIP3    H242717   6.592   4.374  15.842  0.7465  0.2464 -1.1036
 7076TIP3   OH242718   0.326   2.401   5.444 -0.0740 -0.1958 -0.2932
 7076TIP3    H142719   0.270   2.428   5.516  0.4677 -2.2823  0.9501
 7076TIP3    H242720   0.406   2.371   5.486  1.1629  0.7479 -1.9222
 7077TIP3   OH242721   2.690   3.961  15.262 -0.8047  0.1126 -0.4861
 7077TIP3    H142722   2.688   3.866  15.260 -1.1172  0.1171 -0.3363
 7077TIP3    H242723   2.749   3.985  15.190  0.0796 -0.2222  0.1176
 7078TIP3   OH242724   0.627   4.047  11.206  0.3392  1.3118 -0.0319
 7078TIP3    H142725   0.606   4.137  11.181 -1.5709  1.1568  0.8864
 7078TIP3    H242726   0.706   4.026  11.157  0.5494  3.3363 -0.5990
 7079TIP3   OH242727   5.245   2.399   3.501  0.3440  0.5270 -0.4851
 7079TIP3    H142728   5.175   2.432   3.445 -0.9927 -0.9756  0.2634
 7079TIP3    H242729   5.232   2.304   3.503  2.7835  0.1580 -0.8421
 7080TIP3   OH242730   3.476   5.166   5.585  0.4178  0.0200 -0.5321
 7080TIP3    H142731   3.382   5.183   5.581  0.2243 -1.3840 -2.6111
 7080TIP3    H242732   3.483   5.070   5.590  1.6717  0.2100  3.4554
 7081TIP3   OH242733   0.408   1.559   3.891 -0.1563 -0.1681  0.5116
 7081TIP3    H142734   0.389   1.634   3.835  2.5432  0.4330  0.3202
 7081TIP3    H242735   0.358   1.487   3.853 -3.0688  1.5802  0.9230
 7082TIP3   OH242736   4.897   3.408   1.046  0.3390  0.5648  0.1472
 7082TIP3    H142737   4.833   3.429   1.114  1.0156  1.7605  0.4335
 7082TIP3    H242738   4.932   3.323   1.070 -0.4160  0.3676  0.5470
 7083TIP3   OH242739   3.718   3.943   6.654  0.0697  0.4417  0.8091
 7083TIP3    H142740   3.682   3.992   6.728 -0.7941  1.2839 -0.1499
 7083TIP3    H242741   3.756   4.010   6.597 -0.1876 -0.0822  0.0018
 7084TIP3   OH242742   6.043   5.799   6.130 -0.4020  0.1187 -0.4301
 7084TIP3    H142743   5.950   5.788   6.112  0.2226 -2.9898 -2.2182
 7084TIP3    H242744   6.064   5.885   6.092 -2.1098 -0.1021 -1.9940
 7085TIP3   OH242745   2.852   3.718  16.450 -0.5569  0.0126 -0.3750
 7085TIP3    H142746   2.865   3.647  16.513 -1.0267 -0.2520 -0.5715
 7085TIP3    H242747   2.921   3.781  16.470 -1.9027  0.8596  1.6870
 7086TIP3   OH242748   2.818   0.549   1.256  0.3323  0.3175  0.4532
 7086TIP3    H142749   2.844   0.470   1.211  0.4991  0.4329  0.3475
 7086TIP3    H242750   2.875   0.618   1.221 -0.6311  0.7169 -0.3578
 7087TIP3   OH242751   3.419   3.370  11.865  0.5362  0.2780 -0.2246
 7087TIP3    H142752   3.483   3.328  11.923  1.6078  2.3480  0.1436
 7087TIP3    H242753   3.456   3.457  11.847  0.0621 -0.1446 -3.7084
 7088TIP3   OH242754   2.250   2.248   1.062 -0.4500 -0.0907 -0.4441
 7088TIP3    H142755   2.192   2.271   1.135 -0.3344 -0.7000 -0.1593
 7088TIP3    H242756   2.220   2.302   0.990 -0.9142  0.1242 -0.0945
 7089TIP3   OH242757   1.541   3.776   6.135 -0.0991 -0.2088 -0.0392
 7089TIP3    H142758   1.530   3.698   6.189 -2.7877 -1.2667 -1.9868
 7089TIP3    H242759   1.547   3.743   6.045  0.1536  1.7388 -0.7686
 7090TIP3   OH242760   1.304   1.940  11.489 -0.0735 -0.7214  0.4264
 7090TIP3    H142761   1.251   1.870  11.452 -1.5479 -0.0948  1.3194
 7090TIP3    H242762   1.260   1.964  11.570 -0.0643  1.7566 -0.2381
 7091TIP3   OH242763   2.540   3.766  17.046 -0.2096  0.4755 -0.0614
 7091TIP3    H142764   2.487   3.830  17.094  0.5276  1.6973 -0.8779
 7091TIP3    H242765   2.591   3.818  16.984 -0.8048 -1.0503 -1.8737
 7092TIP3   OH242766   1.780   0.805  16.322  0.2463 -0.6964  0.0079
 7092TIP3    H142767   1.783   0.872  16.390 -0.5588  1.2244 -1.7918
 7092TIP3    H242768   1.689   0.802  16.294  1.1633  1.2955 -3.5598
 7093TIP3   OH242769   3.259   0.053  15.152 -0.3675 -0.1546 -0.3968
 7093TIP3    H142770   3.306   0.041  15.235 -0.7750  1.8863  0.1562
 7093TIP3    H242771   3.315   0.111  15.101  0.4828 -2.3677 -2.0987
 7094TIP3   OH242772   6.137   5.408  16.334  0.2981 -0.1282 -0.0305
 7094TIP3    H142773   6.126   5.368  16.420  0.8243  0.1957  0.1873
 7094TIP3    H242774   6.219   5.372  16.301 -0.3349 -0.9218 -0.7679
 7095TIP3   OH242775   6.047   2.838   1.973 -0.6334  0.7083  0.2705
 7095TIP3    H142776   6.062   2.781   2.049 -0.3283 -0.8650 -0.9410
 7095TIP3    H242777   6.090   2.792   1.900 -0.8364  2.2488 -0.8305
 7096TIP3   OH242778   4.793   2.766  13.601 -0.2547  0.3256 -0.3039
 7096TIP3    H142779   4.753   2.816  13.672 -2.2152 -1.0924 -0.3884
 7096TIP3    H242780   4.732   2.694  13.584  0.8197 -0.1059 -2.5448
 7097TIP3   OH242781   2.488   0.685  17.149  0.2289  0.0173  0.1700
 7097TIP3    H142782   2.472   0.682  17.054  1.0630 -0.8868  0.0449
 7097TIP3    H242783   2.412   0.729  17.185 -0.2424  0.0915 -0.8977
 7098TIP3   OH242784   1.828   4.469   3.451  0.4549  0.2811  0.3364
 7098TIP3    H142785   1.891   4.401   3.426  1.4442  0.8497  1.2163
 7098TIP3    H242786   1.883   4.545   3.471 -0.6037  1.1701 -0.1137
 7099TIP3   OH242787   1.418   0.638   1.379  0.0310  0.0321 -0.4678
 7099TIP3    H142788   1.341   0.694   1.382  0.3019  0.3719  0.2750
 7099TIP3    H242789   1.384   0.549   1.373 -0.4414  0.0985  0.9995
 7100TIP3   OH242790   6.815   5.033   2.888 -0.3902  0.1571 -0.0087
 7100TIP3    H142791   6.898   5.048   2.934 -0.0868 -0.2117 -0.4227
 7100TIP3    H242792   6.839   5.038   2.795 -0.8676  0.2213 -0.1271
 7101TIP3   OH242793   0.025   0.865  15.641 -0.2913  0.3373  0.4295
 7101TIP3    H142794  -0.067   0.873  15.615 -1.0048 -0.7809  2.4416
 7101TIP3    H242795   0.021   0.846  15.735  2.0491  1.7279  0.8542
 7102TIP3   OH242796   3.376   3.863   4.345 -0.2076 -0.4907 -0.3366
 7102TIP3    H142797   3.470   3.864   4.363 -0.2728 -2.0374  0.1828
 7102TIP3    H242798   3.359   3.774   4.313 -1.5194 -0.2618 -0.2963
 7103TIP3   OH242799   2.996   5.274   0.982 -0.1565  0.0165 -0.3742
 7103TIP3    H142800   2.969   5.266   0.890  1.3095 -0.5434 -0.7761
 7103TIP3    H242801   2.936   5.216   1.029 -2.2839  1.9191 -0.6676
 7104TIP3   OH242802   1.164   3.638   0.490 -0.3910  0.7932 -0.1727
 7104TIP3    H142803   1.142   3.554   0.531  2.7453  0.3532  0.7188
 7104TIP3    H242804   1.174   3.617   0.397  1.7884 -0.1671  0.2404
 7105TIP3   OH242805   1.782   0.255   2.557  0.5205 -0.2884  0.0172
 7105TIP3    H142806   1.819   0.258   2.645  0.0038 -0.9871  0.2583
 7105TIP3    H242807   1.701   0.307   2.563 -0.9381 -2.5773  0.6403
 7106TIP3   OH242808   4.435   2.033  11.626  0.4796 -0.3481  0.0770
 7106TIP3    H142809   4.424   2.128  11.626 -1.4467 -0.5326 -1.7635
 7106TIP3    H242810   4.366   2.000  11.684  1.0239 -0.6420  0.5641
 7107TIP3   OH242811   1.887   5.722   6.087  0.2579 -0.5859 -0.2085
 7107TIP3    H142812   1.803   5.677   6.095 -0.1231  0.1942  0.1208
 7107TIP3    H242813   1.949   5.663   6.129 -0.6386  0.3236  2.4570
 7108TIP3   OH242814   3.565   4.312  17.020  0.2631  0.0006 -0.2689
 7108TIP3    H142815   3.473   4.296  17.044  0.2206  1.4357  0.6316
 7108TIP3    H242816   3.609   4.229  17.037 -0.6285 -0.3100  0.5953
 7109TIP3   OH242817   0.045   4.186   6.609 -1.1645 -0.8735  0.1970
 7109TIP3    H142818  -0.025   4.217   6.667 -2.5637 -2.8587 -0.3766
 7109TIP3    H242819   0.089   4.118   6.660  0.1046  0.0800  0.3921
 7110TIP3   OH242820   6.042   0.314  15.741 -0.2048  0.3954 -0.2504
 7110TIP3    H142821   6.031   0.409  15.742 -0.9749  0.3164 -1.0142
 7110TIP3    H242822   6.104   0.297  15.812 -1.1682  1.3351  0.8414
 7111TIP3   OH242823   3.825   0.703   2.151 -1.0902 -0.1170  0.5084
 7111TIP3    H142824   3.879   0.743   2.220 -2.8101  0.8408  1.3113
 7111TIP3    H242825   3.888   0.682   2.081  0.5193 -0.1415  1.9192
 7112TIP3   OH242826   1.298   4.978  11.188  0.5139  0.5939 -0.5381
 7112TIP3    H142827   1.240   5.016  11.122  0.7137  2.0561  0.1164
 7112TIP3    H242828   1.385   4.980  11.148  0.3038 -0.5893 -1.0883
 7113TIP3   OH242829   1.630   0.512  12.533  0.1240 -0.6796 -0.3821
 7113TIP3    H142830   1.684   0.588  12.511  0.4988 -0.5561  0.9396
 7113TIP3    H242831   1.551   0.522  12.481 -0.3795  1.2848  0.7274
 7114TIP3   OH242832   5.694   4.614  15.602 -0.1197 -0.3150 -0.3254
 7114TIP3    H142833   5.707   4.703  15.570 -0.7947 -0.9060 -2.3643
 7114TIP3    H242834   5.599   4.605  15.613  0.0742 -0.2289  1.6193
 7115TIP3   OH242835   1.443   2.261   0.920  0.4180  0.2278  0.2424
 7115TIP3    H142836   1.404   2.345   0.895  0.8134  0.2966 -0.1307
 7115TIP3    H242837   1.371   2.199   0.912  0.2954  0.4156 -0.1247
 7116TIP3   OH242838   1.792   0.463   6.682  0.4984 -0.2461  0.2452
 7116TIP3    H142839   1.819   0.548   6.646  1.5647 -0.3905  0.7110
 7116TIP3    H242840   1.765   0.482   6.771 -1.6527  0.0210 -0.4411
 7117TIP3   OH242841   1.687   3.994   3.359  0.1260  0.4800 -0.3839
 7117TIP3    H142842   1.756   3.958   3.415  1.2187  2.4494 -0.4166
 7117TIP3    H242843   1.649   3.918   3.315  1.1453 -0.7972  0.9010
 7118TIP3   OH242844   4.294   5.604   2.024 -0.2562  0.3498  0.5839
 7118TIP3    H142845   4.263   5.680   2.073 -0.0588  0.6675  0.2228
 7118TIP3    H242846   4.267   5.622   1.934 -2.8533 -1.3957  0.9602
 7119TIP3   OH242847   3.531   0.113   6.307  0.6196  0.2140  0.2977
 7119TIP3    H142848   3.559   0.185   6.364  0.2722  0.2649  0.4044
 7119TIP3    H242849   3.436   0.110   6.317  0.6494 -0.3615  0.4083
 7120TIP3   OH242850   0.684   3.291   6.476 -0.1926 -0.2471  0.6535
 7120TIP3    H142851   0.750   3.222   6.480 -0.4988 -0.6125 -0.4080
 7120TIP3    H242852   0.728   3.364   6.435 -0.3040 -0.3190  0.4072
 7121TIP3   OH242853   0.445   6.174   6.646 -0.1376  0.3586  0.7161
 7121TIP3    H142854   0.351   6.179   6.628 -0.3034 -2.8123  0.4069
 7121TIP3    H242855   0.485   6.232   6.580 -1.7120 -0.0619 -0.6517
 7122TIP3   OH242856   6.001   6.152   2.101 -0.2168  0.0244 -0.2133
 7122TIP3    H142857   6.030   6.111   2.019 -0.2319  0.2907 -0.3520
 7122TIP3    H242858   5.944   6.086   2.141  1.0225 -0.7287  0.3432
 7123TIP3   OH242859   1.572   1.139  11.383 -0.3558 -0.6121  0.3359
 7123TIP3    H142860   1.554   1.154  11.476 -0.4245  1.0430  0.0824
 7123TIP3    H242861   1.629   1.212  11.359 -1.0261 -0.5672 -1.1181
 7124TIP3   OH242862   6.776   1.840   1.180  0.5568 -0.9020  0.1435
 7124TIP3    H142863   6.797   1.747   1.185 -0.2260 -1.0076  1.7931
 7124TIP3    H242864   6.827   1.880   1.250  0.4131 -0.1908 -0.1547
 7125TIP3   OH242865   2.125   4.313   5.751  0.6370 -0.5317 -0.0739
 7125TIP3    H142866   2.152   4.221   5.754 -1.2558 -1.1015  0.0156
 7125TIP3    H242867   2.048   4.314   5.694 -0.3627  0.7193  1.2635
 7126TIP3   OH242868   3.658   1.022  13.884 -0.1057  0.3433 -0.3588
 7126TIP3    H142869   3.579   1.032  13.831  0.6467 -0.3739 -1.6435
 7126TIP3    H242870   3.626   1.002  13.972 -1.3519  0.3484 -0.8047
 7127TIP3   OH242871   4.764   4.148   0.737  0.6539 -0.3493  0.0659
 7127TIP3    H142872   4.819   4.226   0.734 -0.6841  0.5711 -0.9359
 7127TIP3    H242873   4.692   4.166   0.677 -0.4705 -1.7449  0.9409
 7128TIP3   OH242874   6.404   3.240   1.365  0.3485 -0.5978 -0.1245
 7128TIP3    H142875   6.453   3.317   1.392  0.5487 -1.0634  0.8892
 7128TIP3    H242876   6.433   3.222   1.276  1.1607 -0.1857  0.0507
 7129TIP3   OH242877   2.804   1.478   0.979  0.4488 -0.0629 -0.3069
 7129TIP3    H142878   2.757   1.492   1.061 -0.0700 -0.5829 -0.5155
 7129TIP3    H242879   2.891   1.514   0.995  0.7466 -1.2818  0.8891
 7130TIP3   OH242880   3.543   1.076   5.362  0.3276 -0.0730  0.0420
 7130TIP3    H142881   3.457   1.034   5.364  0.1275  0.2945 -0.6203
 7130TIP3    H242882   3.589   1.032   5.290  0.7606 -0.3926  0.5078
 7131TIP3   OH242883   5.910   1.289  11.778  0.6057 -0.1890  0.0800
 7131TIP3    H142884   5.831   1.251  11.817 -0.0772  0.6572 -0.4917
 7131TIP3    H242885   5.929   1.366  11.831  0.4443  0.2062 -0.4346
 7132TIP3   OH242886   6.001   3.797  12.402 -0.1455  0.1412 -0.0939
 7132TIP3    H142887   6.048   3.860  12.457  1.0665  1.1839 -2.3001
 7132TIP3    H242888   5.920   3.842  12.379 -0.6441 -0.2882  0.7933
 7133TIP3   OH242889   0.634   4.414  11.815  0.0374 -0.0208  0.0095
 7133TIP3    H142890   0.542   4.422  11.842  0.3397 -0.3625  1.1360
 7133TIP3    H242891   0.631   4.362  11.735 -0.6949 -0.5856  0.4004
 7134TIP3   OH242892   0.252   4.525   5.711 -0.5336 -0.1411  0.0473
 7134TIP3    H142893   0.287   4.593   5.654 -1.2655  0.0933 -0.1332
 7134TIP3    H242894   0.318   4.516   5.781  0.0485  0.0272 -0.4767
 7135TIP3   OH242895   6.491   0.123   0.443 -0.3017  0.7501  0.1052
 7135TIP3    H142896   6.482   0.217   0.434 -2.0808  0.4998 -0.9043
 7135TIP3    H242897   6.402   0.088   0.432  0.5700 -1.1604 -1.2038
 7136TIP3   OH242898   3.133   1.756   5.997  0.5955  0.6894 -0.5229
 7136TIP3    H142899   3.128   1.792   6.085  0.4696  1.4498 -0.8360
 7136TIP3    H242900   3.095   1.669   6.005 -0.4164  1.1603 -0.0356
 7137TIP3   OH242901   0.462   6.223  16.709  0.0734 -0.0858 -0.3624
 7137TIP3    H142902   0.394   6.289  16.702 -0.1366 -0.3360 -0.6805
 7137TIP3    H242903   0.507   6.226  16.625 -0.8659 -1.3566 -0.9190
 7138TIP3   OH242904   2.516   1.084   0.133 -0.1434 -0.5056 -0.4169
 7138TIP3    H142905   2.462   1.006   0.151 -0.1085 -1.3110 -3.6297
 7138TIP3    H242906   2.476   1.124   0.057  2.1707  0.4323 -1.1740
 7139TIP3   OH242907   2.696   1.749   2.132 -0.4506 -0.0743 -0.0028
 7139TIP3    H142908   2.673   1.762   2.040 -1.4013 -1.2345  0.0642
 7139TIP3    H242909   2.678   1.657   2.149  1.2176 -0.2500  0.9351
 7140TIP3   OH242910   4.654   1.530  16.699 -0.5731 -0.2939  0.3155
 7140TIP3    H142911   4.611   1.558  16.780 -1.9053 -0.2115 -0.4215
 7140TIP3    H242912   4.697   1.609  16.667 -1.5691  0.1179 -0.0169
 7141TIP3   OH242913   1.715   6.344   4.964  0.1030  0.3300 -0.3068
 7141TIP3    H142914   1.768   6.316   5.039 -0.9230  1.3327  0.7933
 7141TIP3    H242915   1.628   6.309   4.982  0.3164 -1.1952 -2.0494
 7142TIP3   OH242916   5.411   6.665   5.896  0.2533 -0.4493  0.3360
 7142TIP3    H142917   5.396   6.747   5.943  1.1000 -0.2783  0.3130
 7142TIP3    H242918   5.480   6.621   5.945  0.9180 -0.4176 -0.5536
 7143TIP3   OH242919   6.381   0.294  12.224  0.2344  0.8857 -0.3406
 7143TIP3    H142920   6.330   0.223  12.263 -0.6345  2.4206  1.4023
 7143TIP3    H242921   6.471   0.261  12.222 -0.1578 -0.2712  0.4652
 7144TIP3   OH242922   4.238   0.770  14.552  0.2991 -0.3920  0.4598
 7144TIP3    H142923   4.239   0.703  14.483 -0.0214 -0.1754  0.2479
 7144TIP3    H242924   4.232   0.853  14.505 -0.7587 -0.2813  0.7740
 7145TIP3   OH242925   4.037   5.912  12.726  0.3484 -0.1768 -0.6302
 7145TIP3    H142926   3.958   5.868  12.758 -0.4897  1.0302 -1.0446
 7145TIP3    H242927   4.106   5.884  12.787 -0.2322 -1.8177 -0.7067
 7146TIP3   OH242928   0.799   2.211   1.039  0.0266  0.4719  0.5226
 7146TIP3    H142929   0.709   2.243   1.045  0.3899  1.7485 -0.5907
 7146TIP3    H242930   0.791   2.126   0.996 -0.5998  0.8493 -0.1246
 7147TIP3   OH242931   1.887   5.426  14.233 -0.3809 -0.1056 -0.5465
 7147TIP3    H142932   1.858   5.459  14.148 -1.3975 -0.0634 -0.1865
 7147TIP3    H242933   1.815   5.371  14.264 -0.2113  0.2403  0.4914
 7148TIP3   OH242934   4.937   3.119  14.442  0.3161  0.3298  0.5924
 7148TIP3    H142935   5.032   3.129  14.446  0.3757  0.5960 -1.2108
 7148TIP3    H242936   4.921   3.029  14.472  0.8644  1.1994  3.7292
 7149TIP3   OH242937   0.384   3.835  12.889 -0.2211 -0.1897  0.0368
 7149TIP3    H142938   0.410   3.881  12.810  1.7523 -2.0326 -0.4479
 7149TIP3    H242939   0.322   3.768  12.859 -2.0198  1.2088  0.5453
 7150TIP3   OH242940   4.489   4.783  16.711 -0.5043  0.4175  0.5233
 7150TIP3    H142941   4.561   4.731  16.674  1.6997  2.5379  1.6801
 7150TIP3    H242942   4.529   4.868  16.729 -3.3995  1.7047  1.0122
 7151TIP3   OH242943   2.467   4.739   4.641 -0.4658 -1.0058  0.4304
 7151TIP3    H142944   2.476   4.654   4.599  0.4725 -0.5621 -0.2798
 7151TIP3    H242945   2.372   4.752   4.650 -0.6244 -1.8495 -0.0190
 7152TIP3   OH242946   5.637   4.803   4.296  0.4114  0.1456  0.1371
 7152TIP3    H142947   5.618   4.894   4.321 -0.2175 -0.2505  1.1152
 7152TIP3    H242948   5.640   4.805   4.200 -2.5070  0.6713 -0.0034
 7153TIP3   OH242949   4.475   3.353  12.924 -0.1671 -0.5759 -0.3198
 7153TIP3    H142950   4.393   3.371  12.877 -1.6208 -0.6413  2.1451
 7153TIP3    H242951   4.466   3.263  12.956 -0.3298  0.3412  2.3224
 7154TIP3   OH242952   4.874   4.518   1.879 -0.4094 -0.2187  0.1069
 7154TIP3    H142953   4.822   4.485   1.805 -2.1462  0.5001  0.9827
 7154TIP3    H242954   4.880   4.444   1.939 -2.7700  0.4426  1.2402
 7155TIP3   OH242955   0.637   1.898  11.228 -0.2422  0.0678  0.6823
 7155TIP3    H142956   0.564   1.921  11.170 -0.0495  1.1652  0.8661
 7155TIP3    H242957   0.692   1.839  11.176 -1.0565 -0.4708  0.4148
 7156TIP3   OH242958   0.458   5.009   5.168  0.0501  0.6263  0.3747
 7156TIP3    H142959   0.462   4.922   5.129  1.9978  1.6712 -1.8553
 7156TIP3    H242960   0.368   5.038   5.151  0.0975  0.0017 -1.0175
 7157TIP3   OH242961   6.322   5.548   1.358 -0.2124  0.3320  0.1192
 7157TIP3    H142962   6.328   5.585   1.270 -2.5052 -0.0283 -0.2149
 7157TIP3    H242963   6.273   5.613   1.408  0.8298  0.4026  1.0867
 7158TIP3   OH242964   0.121   6.204   1.044 -0.6403 -0.3696 -0.3234
 7158TIP3    H142965   0.029   6.229   1.048 -0.1073  2.0023 -1.6300
 7158TIP3    H242966   0.130   6.158   0.960 -0.5458 -0.1379 -0.4422
 7159TIP3   OH242967   4.107   2.070  16.098 -0.4065 -0.3373  0.1065
 7159TIP3    H142968   4.118   2.047  16.190  1.6042 -1.3244 -0.3408
 7159TIP3    H242969   4.014   2.085  16.088 -0.8883 -1.8760  1.9421
 7160TIP3   OH242970   0.083   5.109  14.945 -0.0807 -0.2333  0.2004
 7160TIP3    H142971   0.104   5.170  15.016 -2.6281 -0.4891  1.2225
 7160TIP3    H242972   0.096   5.022  14.985 -1.5637 -0.3769  0.3935
 7161TIP3   OH242973   4.129   4.011   4.904 -0.2196  0.2464 -0.4956
 7161TIP3    H142974   4.107   3.942   4.967  2.6775 -1.2377 -1.0067
 7161TIP3    H242975   4.045   4.049   4.879 -1.8737 -2.9565 -0.0152
 7162TIP3   OH242976   6.005   0.590   5.495 -0.0738 -0.5416  0.2334
 7162TIP3    H142977   5.939   0.611   5.561 -0.1293 -1.1200  0.3701
 7162TIP3    H242978   6.009   0.667   5.438  1.0099  0.5685  1.7513
 7163TIP3   OH242979   2.521   5.329  15.887 -0.1015 -0.8166 -0.3296
 7163TIP3    H142980   2.571   5.326  15.806 -1.3678 -1.5992 -1.0962
 7163TIP3    H242981   2.538   5.245  15.929  2.9685  0.7467  1.7293
 7164TIP3   OH242982   1.564   0.383  16.396  0.2015 -0.0662 -0.5137
 7164TIP3    H142983   1.555   0.459  16.339  2.1265 -0.1268 -0.9377
 7164TIP3    H242984   1.503   0.318  16.360 -1.1077  1.0954 -0.4230
 7165TIP3   OH242985   6.803   4.957   0.148 -0.2412 -0.3610 -0.3263
 7165TIP3    H142986   6.869   4.957   0.218  0.5617 -0.2317 -1.0689
 7165TIP3    H242987   6.719   4.965   0.194  0.1463 -2.1273  0.7237
 7166TIP3   OH242988   0.583   0.558   3.726 -0.1898 -0.2084 -1.0282
 7166TIP3    H142989   0.520   0.622   3.759  1.1167  0.4360  0.2553
 7166TIP3    H242990   0.586   0.574   3.632  1.8293  3.2442 -0.4648
 7167TIP3   OH242991   0.641   5.549   1.520  0.2476  0.2855 -0.1322
 7167TIP3    H142992   0.597   5.623   1.560  0.2653  1.0836 -1.5916
 7167TIP3    H242993   0.732   5.578   1.510  1.0542 -1.1419  2.3417
 7168TIP3   OH242994   1.699   5.784   4.357  0.4347 -0.2372 -0.2159
 7168TIP3    H142995   1.724   5.768   4.266 -0.9740 -0.8283 -0.5054
 7168TIP3    H242996   1.704   5.698   4.399 -0.1144 -0.1843 -0.0372
 7169TIP3   OH242997   6.604   5.061   3.421  0.4500  0.0904 -0.2126
 7169TIP3    H142998   6.553   4.994   3.375  0.0137  0.2097  0.0860
 7169TIP3    H242999   6.600   5.138   3.364  0.8714 -0.1045 -0.5112
 7170TIP3   OH243000   3.386   3.824  11.865 -0.6031  0.0339 -0.1932
 7170TIP3    H143001   3.366   3.912  11.835  0.2615  0.2032 -0.2758
 7170TIP3    H243002   3.481   3.820  11.869 -0.6050 -1.1027 -0.8392
 7171TIP3   OH243003   2.761   5.668   3.484  0.7945  0.2372 -0.0413
 7171TIP3    H143004   2.776   5.586   3.530 -1.8764  0.6391  1.6398
 7171TIP3    H243005   2.747   5.733   3.553 -0.3140  1.4591 -1.3762
 7172TIP3   OH243006   0.007   3.276   6.078  0.2708 -0.3153 -0.6052
 7172TIP3    H143007   0.033   3.273   6.170  2.1602 -1.1808 -1.1378
 7172TIP3    H243008  -0.047   3.354   6.071  0.7298  0.1799  1.0832
 7173TIP3   OH243009   0.804   3.342   4.909 -0.1872 -0.0560  0.3187
 7173TIP3    H143010   0.875   3.382   4.859 -0.4230 -1.1276 -0.9122
 7173TIP3    H243011   0.819   3.248   4.900 -0.0388 -0.2651  2.5783
 7174TIP3   OH243012   6.628   1.402  13.731  0.1674 -0.1233 -0.1334
 7174TIP3    H143013   6.721   1.397  13.754 -0.2475 -1.7106  1.3129
 7174TIP3    H243014   6.585   1.429  13.812 -0.6967 -0.0763 -0.6064
 7175TIP3   OH243015   5.133   6.070   5.554  0.6369  0.0690  0.3429
 7175TIP3    H143016   5.123   5.988   5.602 -1.9712 -0.7114 -1.4046
 7175TIP3    H243017   5.107   6.049   5.464 -0.1439  2.7904 -0.1306
 7176TIP3   OH243018   5.707   3.088   0.603 -0.0457 -0.2606 -0.0764
 7176TIP3    H143019   5.783   3.090   0.545  0.3197 -0.3376  0.3881
 7176TIP3    H243020   5.645   3.028   0.561 -0.4249  0.8841 -1.1571
 7177TIP3   OH243021   0.308   1.231  14.424 -0.7553  0.3342  0.3171
 7177TIP3    H143022   0.378   1.190  14.374  0.1166 -1.2340  2.7284
 7177TIP3    H243023   0.252   1.157  14.451 -2.8073  1.4540 -0.7418
 7178TIP3   OH243024   5.086   2.164   2.020 -0.3328 -0.1976 -0.0088
 7178TIP3    H143025   5.119   2.235   1.965  0.7244 -0.3778  0.3823
 7178TIP3    H243026   5.149   2.093   2.008 -0.7371 -0.6503  0.5241
 7179TIP3   OH243027   5.364   0.358  13.753  0.3432 -0.3877  0.3679
 7179TIP3    H143028   5.341   0.271  13.788 -3.8832  1.4636  2.6320
 7179TIP3    H243029   5.363   0.415  13.829 -0.4911  2.2735 -1.5703
 7180TIP3   OH243030   3.418   3.679  10.569  0.0408  0.2279 -0.6916
 7180TIP3    H143031   3.346   3.622  10.596 -1.9442  2.1229 -1.8576
 7180TIP3    H243032   3.447   3.644  10.485 -1.8373  1.4958 -1.8861
 7181TIP3   OH243033   4.885   1.299  13.522  0.1857 -0.4474  0.2556
 7181TIP3    H143034   4.817   1.238  13.493 -1.2637  0.4118  1.7281
 7181TIP3    H243035   4.855   1.384  13.490 -0.1652  0.1393  2.1057
 7182TIP3   OH243036   0.192   4.411   5.441  0.5064  0.4382 -0.2111
 7182TIP3    H143037   0.104   4.436   5.470 -0.1586 -1.2760 -0.6808
 7182TIP3    H243038   0.251   4.454   5.503 -0.6951  0.7522  0.7399
 7183TIP3   OH243039   2.402   0.852   5.395 -0.9200  0.0326 -0.0368
 7183TIP3    H143040   2.476   0.912   5.404 -0.6907 -0.2875  0.2416
 7183TIP3    H243041   2.411   0.792   5.469 -1.6643  0.2098  0.2028
 7184TIP3   OH243042   2.333   6.410   5.465 -0.1047 -0.0820 -0.0663
 7184TIP3    H143043   2.389   6.488   5.464 -1.1175  0.6422 -0.5597
 7184TIP3    H243044   2.314   6.396   5.558  0.9802 -0.4080  0.1225
 7185TIP3   OH243045   6.660   2.926   5.397  0.7861 -0.3945  0.0088
 7185TIP3    H143046   6.575   2.970   5.386  0.6341  0.0890  2.6602
 7185TIP3    H243047   6.692   2.913   5.308 -1.8921 -0.2230 -1.0419
 7186TIP3   OH243048   3.592   3.895   5.116 -0.7180 -0.1641  0.2713
 7186TIP3    H143049   3.608   3.844   5.197  0.0909  1.0316  0.8808
 7186TIP3    H243050   3.680   3.917   5.085 -1.0157 -0.9353 -1.1659
 7187TIP3   OH243051   4.272   4.047  17.054  0.0757  0.5994  0.1945
 7187TIP3    H143052   4.318   3.964  17.073 -0.6273  0.1692  0.0256
 7187TIP3    H243053   4.310   4.109  17.116 -0.4540 -0.2138  1.3621
 7188TIP3   OH243054   0.735   0.624   0.792  0.4747  0.0036  0.5340
 7188TIP3    H143055   0.802   0.661   0.734 -0.6302 -0.9239 -1.3508
 7188TIP3    H243056   0.658   0.679   0.777 -0.1761 -0.9871  0.1950
 7189TIP3   OH243057   0.179   2.539   0.943  0.0996  0.3280  0.0062
 7189TIP3    H143058   0.153   2.630   0.956  0.3022  0.5655 -1.2310
 7189TIP3    H243059   0.097   2.491   0.939 -0.0065  0.4380  0.7008
 7190TIP3   OH243060   0.749   3.437  15.363 -0.6436 -0.1317 -0.1538
 7190TIP3    H143061   0.790   3.514  15.323  0.4038 -1.2398 -1.2449
 7190TIP3    H243062   0.788   3.431  15.450 -0.2697  0.2226 -0.2970
 7191TIP3   OH243063   0.450   1.066  16.241  0.7946  0.0797 -0.3817
 7191TIP3    H143064   0.390   1.007  16.195 -0.3608  2.4365 -2.0057
 7191TIP3    H243065   0.475   1.019  16.320 -2.2409 -1.4699 -0.2959
 7192TIP3   OH243066   3.361   5.294   1.280 -0.2832  0.4946  0.4105
 7192TIP3    H143067   3.310   5.217   1.254  0.3384  0.1423  0.2332
 7192TIP3    H243068   3.333   5.362   1.220  1.1298 -0.3089 -1.1809
 7193TIP3   OH243069   0.236   5.240   5.796 -0.4928  0.3056 -0.2217
 7193TIP3    H143070   0.254   5.245   5.889 -1.9721 -3.3222  0.3172
 7193TIP3    H243071   0.142   5.251   5.788 -0.4394  0.1444 -1.2432
 7194TIP3   OH243072   3.348   6.677  13.530 -0.2771  0.4238 -0.3324
 7194TIP3    H143073   3.363   6.654  13.622  0.0751 -2.1584 -1.0006
 7194TIP3    H243074   3.392   6.761  13.519 -0.4705  0.8619  1.8913
 7195TIP3   OH243075   1.527   6.167  15.167  0.0233  0.1689 -0.0699
 7195TIP3    H143076   1.593   6.166  15.236  0.7373 -0.1627 -0.7613
 7195TIP3    H243077   1.472   6.243  15.188  1.3523  1.1657 -0.1911
 7196TIP3   OH243078   2.818   2.698   1.684 -0.6727  0.1292 -0.1646
 7196TIP3    H143079   2.801   2.617   1.635 -3.9847 -0.3195  1.5467
 7196TIP3    H243080   2.802   2.767   1.621 -1.0816 -0.5130 -0.7787
 7197TIP3   OH243081   5.159   0.281   4.090  0.2190 -0.2710 -0.4618
 7197TIP3    H143082   5.240   0.263   4.043 -1.0824 -1.3697 -2.3455
 7197TIP3    H243083   5.173   0.368   4.129  2.3682 -0.5479 -0.5616
 7198TIP3   OH243084   6.682   1.945   4.680  0.2975  0.3879 -0.0088
 7198TIP3    H143085   6.641   1.928   4.595  1.1456  1.1719 -0.5805
 7198TIP3    H243086   6.709   1.859   4.711 -2.5864 -0.2852  0.8119
 7199TIP3   OH243087   2.046   3.523   5.320 -0.5243 -0.2933 -0.3362
 7199TIP3    H143088   2.140   3.522   5.338 -0.8691 -0.0435  1.6128
 7199TIP3    H243089   2.039   3.546   5.227  1.3457 -0.8283 -0.6183
 7200TIP3   OH243090   4.961   2.744   1.540  0.2897 -0.0204 -0.5384
 7200TIP3    H143091   4.951   2.838   1.528  0.5530 -0.1177 -1.5956
 7200TIP3    H243092   4.903   2.722   1.613  0.2661  0.9630 -0.2593
 7201TIP3   OH243093   0.491   6.326  13.519  0.1289  0.5005 -0.3995
 7201TIP3    H143094   0.568   6.272  13.500  0.5388  0.7654  0.4695
 7201TIP3    H243095   0.512   6.412  13.483  0.0396  0.4421 -0.5896
 7202TIP3   OH243096   1.293   6.518   0.283  0.2469 -0.2617 -0.0442
 7202TIP3    H143097   1.209   6.492   0.320 -0.2172  0.9940 -0.2290
 7202TIP3    H243098   1.272   6.562   0.201  1.0497  0.5995  0.2058
 7203TIP3   OH243099   5.720   6.660   4.024 -0.8364 -0.1253 -0.3008
 7203TIP3    H143100   5.705   6.573   3.987  0.9823 -0.2672 -0.7566
 7203TIP3    H243101   5.735   6.716   3.947  0.7172  0.0275  0.0888
 7204TIP3   OH243102   2.923   1.933  11.475 -0.0523 -0.0659 -0.5667
 7204TIP3    H143103   3.010   1.904  11.501 -1.0475 -0.9867  1.8519
 7204TIP3    H243104   2.932   1.953  11.381  2.4242 -1.3420 -0.6522
 7205TIP3   OH243105   5.766   4.018  14.568  0.1156 -0.0552 -0.6324
 7205TIP3    H143106   5.738   3.927  14.581 -0.8010  0.4030  0.7558
 7205TIP3    H243107   5.856   4.020  14.600  0.2128 -0.5114 -0.8609
 7206TIP3   OH243108   2.792   3.931   0.616  0.5736  0.6157  0.5716
 7206TIP3    H143109   2.744   3.914   0.535  1.7646  0.6498 -0.1532
 7206TIP3    H243110   2.724   3.948   0.681 -0.3678  1.3968 -0.5975
 7207TIP3   OH243111   3.227   5.135   3.129 -0.4201  0.4980 -0.5866
 7207TIP3    H143112   3.231   5.044   3.098  0.3268  0.6636 -0.9827
 7207TIP3    H243113   3.137   5.162   3.110  0.1192  0.7181 -2.9975
 7208TIP3   OH243114   5.355   4.997   0.662  0.2224  0.1938 -0.5358
 7208TIP3    H143115   5.414   4.936   0.619  1.4550  0.2024  1.1043
 7208TIP3    H243116   5.365   4.978   0.755  0.4081  2.7014 -0.0227
 7209TIP3   OH243117   1.477   0.788   1.784 -0.3173 -0.6247  0.1391
 7209TIP3    H143118   1.532   0.801   1.861 -0.0261  1.4484 -0.3662
 7209TIP3    H243119   1.522   0.837   1.714 -1.0099 -1.7663 -1.1343
 7210TIP3   OH243120   6.060   6.146   0.269 -0.2523 -0.0271  0.1649
 7210TIP3    H143121   6.037   6.162   0.361  0.6296 -0.1781  0.4247
 7210TIP3    H243122   5.976   6.135   0.224 -0.7053  0.5001  0.8698
 7211TIP3   OH243123   1.479   6.751   4.894  0.0650 -0.7881 -0.1620
 7211TIP3    H143124   1.417   6.680   4.908  0.3093 -0.6983  1.4741
 7211TIP3    H243125   1.431   6.831   4.916  0.5627 -0.6700  0.5226
 7212TIP3   OH243126   4.538   2.656   1.464  0.1461  0.1800  0.2303
 7212TIP3    H143127   4.551   2.696   1.378 -0.0786  0.8680  0.5151
 7212TIP3    H243128   4.455   2.691   1.495 -0.0875 -0.5569  0.4568
 7213TIP3   OH243129   3.853   3.003  16.097  0.1631  0.1100 -0.3768
 7213TIP3    H143130   3.944   3.011  16.125  0.0438  3.3007 -0.6963
 7213TIP3    H243131   3.859   2.981  16.004  0.5624 -1.8135  0.0770
 7214TIP3   OH243132   5.979   3.046  14.244  0.4713 -0.0575  0.5671
 7214TIP3    H143133   5.944   2.972  14.292 -0.1061 -0.1486  0.0124
 7214TIP3    H243134   6.051   3.079  14.299  0.9378 -1.2059  0.6642
 7215TIP3   OH243135   3.138   4.715   3.303 -0.8102  0.0630 -0.1116
 7215TIP3    H143136   3.125   4.662   3.382  0.2045  0.5193  0.3799
 7215TIP3    H243137   3.233   4.725   3.297 -0.9541  1.1413 -0.6576
 7216TIP3   OH243138   1.473   3.569  10.833  0.8180  0.0703 -0.1389
 7216TIP3    H143139   1.565   3.541  10.831  0.2575 -1.8543  0.0551
 7216TIP3    H243140   1.423   3.488  10.827 -0.8873  1.1240 -0.5907
 7217TIP3   OH243141   5.349   4.795  17.247 -0.6420  0.9979 -0.0281
 7217TIP3    H143142   5.383   4.868  17.298 -1.5540  1.0708  0.4913
 7217TIP3    H243143   5.317   4.733  17.312 -2.7466  1.5371 -0.5196
 7218TIP3   OH243144   1.674   2.744   6.638  0.3913 -0.9063  0.0601
 7218TIP3    H143145   1.674   2.659   6.594  0.6919 -0.4540 -0.8404
 7218TIP3    H243146   1.763   2.776   6.628  0.4863 -0.8462  1.1118
 7219TIP3   OH243147   2.324   6.466   0.133  0.1804  0.5465 -0.1219
 7219TIP3    H143148   2.350   6.527   0.202 -0.1782 -0.5426  0.9970
 7219TIP3    H243149   2.395   6.401   0.130 -0.3835 -0.0844  0.0614
 7220TIP3   OH243150   3.964   6.159   5.140 -0.4287  0.2886 -0.0897
 7220TIP3    H143151   3.932   6.110   5.215 -0.6937 -3.1208 -2.3265
 7220TIP3    H243152   4.056   6.133   5.131 -0.5227  0.2969 -1.1956
 7221TIP3   OH243153   4.735   4.568   0.358  0.3329 -0.1005  0.2139
 7221TIP3    H143154   4.680   4.636   0.320  0.1133 -0.6725 -0.5157
 7221TIP3    H243155   4.756   4.511   0.284 -0.1075 -1.2419  0.9522
 7222TIP3   OH243156   5.496   2.371  15.706 -0.2710  0.0251 -0.0789
 7222TIP3    H143157   5.453   2.286  15.710 -0.5882  0.0198 -2.9672
 7222TIP3    H243158   5.583   2.352  15.669  0.1215  0.7954  0.4343
 7223TIP3   OH243159   4.764   2.712  16.799 -0.7994  0.2851  0.4025
 7223TIP3    H143160   4.794   2.633  16.754 -1.0756  0.6898 -0.5087
 7223TIP3    H243161   4.670   2.715  16.783 -1.3458 -0.8884  3.1157
 7224TIP3   OH243162   3.093   6.315  12.893  0.3523 -0.9176 -0.0331
 7224TIP3    H143163   3.112   6.362  12.974 -0.3679 -1.0956  0.2449
 7224TIP3    H243164   3.006   6.277  12.907 -0.0034 -0.5132 -1.0889
 7225TIP3   OH243165   3.907   1.170   0.468  0.5196  0.0628 -0.2225
 7225TIP3    H143166   3.990   1.176   0.421  1.3026  2.2621  1.3447
 7225TIP3    H243167   3.916   1.093   0.524  1.0535 -0.3849 -0.9318
 7226TIP3   OH243168   6.423   6.190  15.750  0.1208  0.2681 -0.5360
 7226TIP3    H143169   6.341   6.187  15.700 -0.7005 -0.3072  0.8168
 7226TIP3    H243170   6.480   6.247  15.698 -1.4511  1.4293 -1.0389
 7227TIP3   OH243171   0.171   4.330   3.442 -0.2351 -0.0515  0.1341
 7227TIP3    H143172   0.078   4.338   3.420 -0.3477  0.3076  0.7439
 7227TIP3    H243173   0.207   4.417   3.429 -0.0911 -0.0697  0.4068
 7228TIP3   OH243174   2.208   2.280   4.081 -0.0228 -0.0040 -0.2232
 7228TIP3    H143175   2.260   2.207   4.048 -0.0370 -0.1937  0.1672
 7228TIP3    H243176   2.233   2.287   4.174  1.8074  2.0719 -0.8314
 7229TIP3   OH243177   1.636   3.882  14.978 -0.0105  0.4643  0.0336
 7229TIP3    H143178   1.729   3.875  14.998 -0.1512 -1.9606  0.0552
 7229TIP3    H243179   1.630   3.870  14.883 -0.3730 -0.4682  0.1667
 7230TIP3   OH243180   5.640   6.340  12.005 -0.2426 -0.3941  0.1339
 7230TIP3    H143181   5.712   6.309  12.058  0.3046  0.3292 -0.1706
 7230TIP3    H243182   5.626   6.430  12.034 -1.5143 -0.7624  0.7110
 7231TIP3   OH243183   2.111   6.454   1.665 -0.9111 -0.2826  0.1510
 7231TIP3    H143184   2.032   6.403   1.683 -0.2500 -0.9161  1.3191
 7231TIP3    H243185   2.146   6.475   1.752  0.2169 -0.0428 -0.3564
 7232TIP3   OH243186   4.787   6.199  13.357  0.2833  0.1629  0.0830
 7232TIP3    H143187   4.766   6.133  13.423  0.0199 -0.1375 -0.2954
 7232TIP3    H243188   4.704   6.244  13.342  0.2651  0.0089 -0.2826
 7233TIP3   OH243189   0.057   0.881   0.398 -0.0409 -0.6069 -0.0193
 7233TIP3    H143190  -0.003   0.937   0.447 -0.6345 -0.0910 -1.3155
 7233TIP3    H243191   0.139   0.886   0.447 -0.1678  1.1691  0.0533
 7234TIP3   OH243192   5.631   2.455  12.974  0.0938  0.2368 -0.1023
 7234TIP3    H143193   5.600   2.545  12.970  0.1373  0.2509 -0.1337
 7234TIP3    H243194   5.718   2.462  13.013  0.9729  0.4368 -2.0175
 7235TIP3   OH243195   4.316   3.862  12.335  0.3004  0.0464  0.1756
 7235TIP3    H143196   4.291   3.817  12.254 -0.0179  1.0032 -0.2671
 7235TIP3    H243197   4.390   3.812  12.369 -0.8980 -1.6073  0.4064
 7236TIP3   OH243198   2.785   2.585   4.610  0.6535  0.1986  0.1111
 7236TIP3    H143199   2.852   2.602   4.676  0.1945  0.5179  0.5047
 7236TIP3    H243200   2.803   2.647   4.540  1.0122  0.0097  0.0364
 7237TIP3   OH243201   1.315   4.814  14.159  0.3323 -0.3076  0.5507
 7237TIP3    H143202   1.300   4.844  14.248 -0.5241 -0.2694  0.4018
 7237TIP3    H243203   1.379   4.875  14.123 -2.5037  2.3311 -0.2455
 7238TIP3   OH243204   5.908   4.444  16.931 -0.4840 -0.6611  0.5846
 7238TIP3    H143205   5.902   4.536  16.904  0.1061 -0.6002  0.6571
 7238TIP3    H243206   5.838   4.400  16.883  0.4338 -0.5155 -0.9010
 7239TIP3   OH243207   5.507   1.320   0.258  0.1928  0.1015  0.0022
 7239TIP3    H143208   5.481   1.410   0.279 -2.7181 -0.9391  1.1147
 7239TIP3    H243209   5.531   1.282   0.343  0.4821 -0.4742 -0.3354
 7240TIP3   OH243210   4.599   0.559  14.126 -0.6395 -0.0482  0.9151
 7240TIP3    H143211   4.633   0.504  14.196 -0.1405 -0.3875  0.4115
 7240TIP3    H243212   4.630   0.647  14.146  1.7407 -0.5785 -0.2846
 7241TIP3   OH243213   3.444   0.598   6.076  0.2411  0.0765 -0.2181
 7241TIP3    H143214   3.465   0.691   6.081 -0.2890  0.1995 -0.2770
 7241TIP3    H243215   3.529   0.555   6.074  0.5049  0.4295  1.9295
 7242TIP3   OH243216   6.394   6.255  13.836 -0.0458 -0.4418  0.1833
 7242TIP3    H143217   6.393   6.264  13.932  1.2105 -0.7276  0.2338
 7242TIP3    H243218   6.464   6.313  13.807 -1.2313  0.5766 -0.6837
 7243TIP3   OH243219   1.611   0.373  16.893  0.2365  0.1550 -0.1771
 7243TIP3    H143220   1.577   0.460  16.872 -2.2017 -1.2366 -2.2347
 7243TIP3    H243221   1.681   0.358  16.829 -0.9812 -0.3716 -1.3887
 7244TIP3   OH243222   6.542   2.934  17.028 -0.2131  0.4685 -0.1730
 7244TIP3    H143223   6.636   2.915  17.028 -1.0151 -3.9093 -0.5501
 7244TIP3    H243224   6.517   2.932  16.936 -1.3442 -2.3249  0.1514
 7245TIP3   OH243225   1.329   5.752  13.681  0.1997 -0.0271 -0.1306
 7245TIP3    H143226   1.424   5.745  13.675  0.1740 -2.9655  1.7532
 7245TIP3    H243227   1.298   5.734  13.592  1.3430 -1.4211 -0.2736
 7246TIP3   OH243228   1.203   6.596  15.080 -0.4581 -0.2225  0.5068
 7246TIP3    H143229   1.160   6.539  15.144 -0.5428 -0.0550  0.5985
 7246TIP3    H243230   1.292   6.560  15.072 -0.7885 -0.9172 -0.1036
 7247TIP3   OH243231   3.227   6.283   5.472 -0.1527 -0.4618 -0.0173
 7247TIP3    H143232   3.314   6.302   5.437 -0.0018  1.2494  1.2659
 7247TIP3    H243233   3.241   6.262   5.564 -0.8783 -2.1595 -0.2812
 7248TIP3   OH243234   6.760   4.914  12.732 -0.5437  0.2566 -0.2470
 7248TIP3    H143235   6.823   4.955  12.792  0.6513 -1.7400 -0.0604
 7248TIP3    H243236   6.803   4.918  12.646 -0.2087 -0.9789 -0.1453
 7249TIP3   OH243237   0.895   5.236  16.393  0.1862 -0.0240 -0.2155
 7249TIP3    H143238   0.867   5.236  16.302 -0.5558  0.8237  0.0111
 7249TIP3    H243239   0.835   5.296  16.437  0.9899  0.1253  0.6945
 7250TIP3   OH243240   4.577   3.928   5.719 -0.7409 -0.0634  0.1699
 7250TIP3    H143241   4.659   3.975   5.733 -0.3844 -0.9272  1.0307
 7250TIP3    H243242   4.596   3.866   5.649 -0.1392 -1.4860  1.5694
 7251TIP3   OH243243   5.130   4.303  15.790 -0.4041  0.1683  0.2450
 7251TIP3    H143244   5.179   4.351  15.857  0.9817 -1.2279  0.2498
 7251TIP3    H243245   5.039   4.333  15.802  0.3100  2.3313  0.6263
 7252TIP3   OH243246   3.698   6.711  15.898 -0.2942 -0.2229 -0.2580
 7252TIP3    H143247   3.686   6.800  15.932 -0.5218 -0.4432  0.2387
 7252TIP3    H243248   3.616   6.693  15.852  0.5064  0.5628 -2.0554
 7253TIP3   OH243249   5.676   4.203  10.571 -0.1067  0.6883  0.3972
 7253TIP3    H143250   5.682   4.260  10.648 -2.7289 -1.2601  2.1139
 7253TIP3    H243251   5.740   4.134  10.587  3.3547  3.2009 -1.8652
 7254TIP3   OH243252   5.087   0.312  15.901  0.3265 -0.5160 -0.2858
 7254TIP3    H143253   5.139   0.316  15.982  0.6116 -1.1040 -0.4439
 7254TIP3    H243254   5.069   0.404  15.881  2.1237 -0.2370 -0.7494
 7255TIP3   OH243255   1.525   4.669  13.859 -0.7869  0.4795  0.4946
 7255TIP3    H143256   1.564   4.715  13.785 -2.3973 -0.1345 -0.7521
 7255TIP3    H243257   1.497   4.739  13.918  2.4790  0.9392  1.6249
 7256TIP3   OH243258   0.961   0.118  16.850  0.3893  0.0379 -0.4398
 7256TIP3    H143259   0.892   0.171  16.891 -0.8728 -0.8965 -1.3517
 7256TIP3    H243260   1.039   0.173  16.857 -0.4321  1.1146  0.6012
 7257TIP3   OH243261   2.433   4.179   1.156  0.4103 -0.3028  0.0094
 7257TIP3    H143262   2.373   4.208   1.225 -0.2219  0.6471 -0.9210
 7257TIP3    H243263   2.484   4.109   1.196  0.3512  0.5420  1.5744
 7258TIP3   OH243264   6.627   6.122   5.246  0.5096 -0.7598  0.0912
 7258TIP3    H143265   6.632   6.058   5.317  3.3590 -1.8249 -1.0318
 7258TIP3    H243266   6.704   6.177   5.258  0.9166 -0.8370 -2.0747
 7259TIP3   OH243267   1.300   1.182   0.462  0.6924 -0.1021 -0.0160
 7259TIP3    H143268   1.365   1.242   0.424 -0.2122  0.8157 -0.1265
 7259TIP3    H243269   1.344   1.146   0.539  1.6849 -0.2123 -0.6146
 7260TIP3   OH243270   4.184   5.841  16.701 -0.3005  0.5405 -0.5574
 7260TIP3    H143271   4.255   5.874  16.646  1.2454 -0.5019  0.8006
 7260TIP3    H243272   4.175   5.906  16.770  1.6461 -0.9870  1.1897
 7261TIP3   OH243273   3.846   6.466   3.967  0.3409 -0.2330 -0.3132
 7261TIP3    H143274   3.762   6.421   3.967 -0.2405  0.8413 -0.9225
 7261TIP3    H243275   3.881   6.452   4.055 -0.8787  0.0784  0.2219
 7262TIP3   OH243276   4.377   2.336   5.198  0.2453  0.0424 -0.3980
 7262TIP3    H143277   4.440   2.327   5.269  0.3965 -2.1648 -0.7748
 7262TIP3    H243278   4.292   2.343   5.243  0.4061 -0.6538  0.0188
 7263TIP3   OH243279   0.723   1.800  13.344 -0.5722  0.1918  0.2692
 7263TIP3    H143280   0.671   1.740  13.291 -0.7373  0.7317 -0.1849
 7263TIP3    H243281   0.659   1.865  13.375  0.0080  1.4893 -1.1898
 7264TIP3   OH243282   1.014   6.670  17.231 -0.5213 -0.9372 -0.6837
 7264TIP3    H143283   0.994   6.742  17.170 -0.0438 -0.6631 -0.5204
 7264TIP3    H243284   0.933   6.658  17.281  0.2246  1.3251  1.1651
 7265TIP3   OH243285   5.436   5.249   4.582 -0.0113 -0.2721  0.6206
 7265TIP3    H143286   5.523   5.279   4.609 -0.3409  0.6148  0.7173
 7265TIP3    H243287   5.380   5.267   4.657 -0.2492 -1.0176  0.6302
 7266TIP3   OH243288   6.216   3.850  16.285 -0.2324 -0.3300  0.0118
 7266TIP3    H143289   6.241   3.885  16.199 -0.1590  2.2369  1.0567
 7266TIP3    H243290   6.287   3.877  16.344 -0.4554 -1.7756  0.9886
 7267TIP3   OH243291   2.469   3.044   6.610 -0.0920  0.0244  0.0720
 7267TIP3    H143292   2.536   3.103   6.575  1.5739 -1.0978  1.2998
 7267TIP3    H243293   2.404   3.037   6.540  0.9886  1.2739 -1.0694
 7268TIP3   OH243294   3.698   0.885   0.921  0.0225 -0.1645  0.3617
 7268TIP3    H143295   3.738   0.800   0.900 -1.4348 -0.9664  0.7605
 7268TIP3    H243296   3.728   0.943   0.852  0.6606 -1.1275 -0.1868
 7269TIP3   OH243297   6.596   2.382  13.526  0.2416 -0.2273 -0.2093
 7269TIP3    H143298   6.512   2.341  13.505  1.6700 -2.9308 -0.9135
 7269TIP3    H243299   6.602   2.457  13.466 -1.7649  0.1824  0.0567
 7270TIP3   OH243300   1.415   4.773   0.553 -0.0261  0.0162 -0.1333
 7270TIP3    H143301   1.364   4.847   0.586  2.0528  0.8275  1.3393
 7270TIP3    H243302   1.447   4.803   0.468 -0.8540  0.0097 -0.4573
 7271TIP3   OH243303   4.439   2.990  11.643  0.0602 -0.8419  0.2287
 7271TIP3    H143304   4.416   3.042  11.720 -0.8980  0.4473 -0.9219
 7271TIP3    H243305   4.383   2.913  11.649 -0.3586 -0.5150  0.5617
 7272TIP3   OH243306   0.572   0.230  14.798  0.1170 -0.5985 -0.5189
 7272TIP3    H143307   0.631   0.205  14.869  1.6560 -1.7796 -2.1813
 7272TIP3    H243308   0.595   0.321  14.779 -0.3517 -0.2556  0.5200
 7273TIP3   OH243309   2.771   4.990   4.963  0.3919 -0.2940 -1.0722
 7273TIP3    H143310   2.736   5.078   4.965 -1.1928 -0.9295 -0.4719
 7273TIP3    H243311   2.709   4.940   4.909 -0.0283 -1.5764  0.5479
 7274TIP3   OH243312   6.153   5.701  12.836  0.7631 -0.0692  0.0317
 7274TIP3    H143313   6.174   5.775  12.892  1.4853  0.4525 -0.9180
 7274TIP3    H243314   6.141   5.627  12.896  0.3602  0.7424  0.9443
 7275TIP3   OH243315   0.154   2.628   4.586  0.2359 -0.0445  0.0647
 7275TIP3    H143316   0.184   2.604   4.674 -1.0812 -0.0577  0.5244
 7275TIP3    H243317   0.170   2.550   4.533 -0.6686 -0.7042  0.7315
 7276TIP3   OH243318   4.249   5.338  15.941  0.3938 -0.0929 -0.4905
 7276TIP3    H143319   4.302   5.307  16.014  0.6973  0.4275 -0.4902
 7276TIP3    H243320   4.187   5.267  15.925 -0.1184  0.0627  0.7147
 7277TIP3   OH243321   4.895   6.057  11.435 -0.3751  0.0342 -0.1874
 7277TIP3    H143322   4.884   5.963  11.453  1.2201 -0.0777  0.2940
 7277TIP3    H243323   4.919   6.095  11.519 -2.5454  1.1636 -0.0407
 7278TIP3   OH243324   3.107   5.423  15.138  0.0557  0.3925 -0.2271
 7278TIP3    H143325   3.181   5.474  15.105  0.6265  0.2170  0.7346
 7278TIP3    H243326   3.123   5.334  15.105  0.0637  0.4399 -0.3525
 7279TIP3   OH243327   3.228   5.025  13.176 -0.1965 -0.3251 -0.3006
 7279TIP3    H143328   3.218   4.956  13.110  0.4102 -0.5546 -0.1553
 7279TIP3    H243329   3.285   4.986  13.243  0.0741  0.2805 -0.1755
 7280TIP3   OH243330   5.855   2.343   3.718 -0.6206 -0.2525  0.0750
 7280TIP3    H143331   5.791   2.292   3.667 -0.7569 -0.5751  0.5655
 7280TIP3    H243332   5.892   2.404   3.655 -1.1924 -0.2721 -0.2868
 7281TIP3   OH243333   1.981   2.010  11.995  0.7141 -0.0954 -0.4633
 7281TIP3    H143334   1.945   1.938  12.048 -1.3718 -0.1175 -1.8550
 7281TIP3    H243335   1.943   2.089  12.032  1.3805  0.1280 -0.2458
 7282TIP3   OH243336   2.821   4.062  17.160  0.0658 -0.0218 -0.4591
 7282TIP3    H143337   2.858   4.044  17.246 -0.4158 -1.0411 -0.4601
 7282TIP3    H243338   2.861   4.145  17.134 -0.1105  0.5125  0.9289
 7283TIP3   OH243339   0.720   4.490  17.091  0.1233 -0.3116  0.1273
 7283TIP3    H143340   0.678   4.430  17.153  0.3616  0.7060  1.2819
 7283TIP3    H243341   0.648   4.528  17.041 -0.0778 -1.0275 -0.1397
 7284TIP3   OH243342   2.917   1.171  16.759  0.1572  0.3363  0.3797
 7284TIP3    H143343   2.836   1.210  16.725 -0.9909 -1.7295  0.7228
 7284TIP3    H243344   2.907   1.174  16.854  1.1223  1.3705  0.4580
 7285TIP3   OH243345   1.518   2.521  16.781 -0.4963 -0.1929  0.0734
 7285TIP3    H143346   1.454   2.567  16.835  0.0570 -1.3582  1.7585
 7285TIP3    H243347   1.589   2.585  16.769 -0.0499 -0.3396  1.8081
 7286TIP3   OH243348   1.366   1.751   3.456 -0.1035 -0.0519  0.5023
 7286TIP3    H143349   1.285   1.782   3.495  0.8043  0.7366  1.8122
 7286TIP3    H243350   1.381   1.666   3.497  0.4508  0.4350  1.3374
 7287TIP3   OH243351   2.320   2.761  12.609 -0.0604 -0.0417  0.0764
 7287TIP3    H143352   2.364   2.815  12.543 -2.1625  0.5987 -0.8447
 7287TIP3    H243353   2.271   2.823  12.662 -1.1236 -0.8595  0.0830
 7288TIP3   OH243354   0.262   1.042   2.117 -0.1988 -0.7495 -0.4419
 7288TIP3    H143355   0.245   1.085   2.201 -0.6610 -2.5636  0.4232
 7288TIP3    H243356   0.227   1.103   2.052  0.5132  0.8519  0.6525
 7289TIP3   OH243357   1.709   5.638   1.055 -0.0682 -0.2365  0.4679
 7289TIP3    H143358   1.627   5.682   1.076  1.2793  1.6296  2.0706
 7289TIP3    H243359   1.736   5.597   1.137  0.3447 -1.2926 -0.1806
 7290TIP3   OH243360   4.850   1.179  13.168 -0.0490 -0.0618  0.0176
 7290TIP3    H143361   4.849   1.254  13.108  0.6215 -0.7392 -0.8460
 7290TIP3    H243362   4.757   1.161  13.185 -0.1949  1.9542  1.5026
 7291TIP3   OH243363   0.279   6.167  11.285 -1.0042 -0.4947 -0.1676
 7291TIP3    H143364   0.296   6.135  11.374 -0.3972  1.2345  0.3642
 7291TIP3    H243365   0.286   6.263  11.292 -1.8977 -0.2846 -1.8819
 7292TIP3   OH243366   4.884   5.725   1.923  0.4707  0.0182 -0.6857
 7292TIP3    H143367   4.873   5.715   1.829 -0.7764 -0.2851 -0.5236
 7292TIP3    H243368   4.914   5.816   1.934  1.3658 -0.1832 -1.4117
 7293TIP3   OH243369   1.930   5.171  13.292  0.5354 -0.2300 -0.1189
 7293TIP3    H143370   2.000   5.229  13.322 -0.2616  0.6815 -0.0223
 7293TIP3    H243371   1.912   5.114  13.367  1.5603 -0.8523 -0.3326
 7294TIP3   OH243372   5.980   3.646  13.919 -0.0882 -0.3094  0.2764
 7294TIP3    H143373   5.969   3.688  14.004 -0.2890 -0.7494  0.4641
 7294TIP3    H243374   5.946   3.558  13.930  0.0360 -0.4223 -0.2152
 7295TIP3   OH243375   3.649   1.303  14.041  0.0485 -0.4685  0.3279
 7295TIP3    H143376   3.578   1.246  14.013  0.1483 -0.2187 -0.4403
 7295TIP3    H243377   3.617   1.392  14.023  0.2739 -0.3232  0.6331
 7296TIP3   OH243378   4.225   1.927  14.639 -0.1422 -0.7573 -0.0207
 7296TIP3    H143379   4.311   1.905  14.602 -0.2828 -0.9565 -0.2322
 7296TIP3    H243380   4.239   1.926  14.733  0.3097  0.1339 -0.0763
 7297TIP3   OH243381   4.568   2.241  14.987  0.2528  0.4898 -0.5130
 7297TIP3    H143382   4.554   2.192  15.068 -1.5900 -0.4103 -1.3636
 7297TIP3    H243383   4.561   2.176  14.918  1.0819  1.3873 -1.4571
 7298TIP3   OH243384   3.244   3.525   5.564  0.2732 -0.3783 -0.6402
 7298TIP3    H143385   3.311   3.551   5.627  0.0497 -1.1724 -0.0553
 7298TIP3    H243386   3.226   3.604   5.513 -0.8842  0.8227  1.5128
 7299TIP3   OH243387   6.493   1.140   1.551  0.2485  0.1038 -0.2187
 7299TIP3    H143388   6.555   1.103   1.613  0.2706 -4.0775 -2.5883
 7299TIP3    H243389   6.429   1.071   1.537 -3.0920  3.0792 -0.4545
 7300TIP3   OH243390   3.416   3.112   3.728 -0.3147 -0.1920  0.4098
 7300TIP3    H143391   3.386   3.037   3.677 -0.0226  0.8624 -1.3706
 7300TIP3    H243392   3.360   3.184   3.698 -0.5790  0.3053  2.0781
 7301TIP3   OH243393   5.599   1.296  11.709 -0.5652  0.0272  0.6805
 7301TIP3    H143394   5.609   1.362  11.777 -0.0726  0.1724  0.4729
 7301TIP3    H243395   5.650   1.331  11.635  0.8703 -1.2262  1.0402
 7302TIP3   OH243396   0.823   5.334   2.057 -0.2625 -0.7100  0.8782
 7302TIP3    H143397   0.851   5.398   1.991 -0.5622 -0.8633  0.5994
 7302TIP3    H243398   0.761   5.278   2.010 -0.4998 -0.7988  1.3010
 7303TIP3   OH243399   2.800   6.781  11.423 -0.1046  0.2729 -0.2938
 7303TIP3    H143400   2.880   6.834  11.414 -0.3258  0.3823 -1.9026
 7303TIP3    H243401   2.827   6.693  11.395 -0.5398  0.3195 -0.8802
 7304TIP3   OH243402   5.816   3.361   3.143 -0.1241  0.7191  0.0101
 7304TIP3    H143403   5.801   3.379   3.050 -0.6754 -0.3976 -0.1264
 7304TIP3    H243404   5.751   3.295   3.166  0.1422  0.8373  1.1468
 7305TIP3   OH243405   4.355   6.781   1.463  0.4629  0.0365  0.1454
 7305TIP3    H143406   4.281   6.754   1.517  0.7538 -0.9833  0.0355
 7305TIP3    H243407   4.414   6.825   1.525  0.0426  0.3215  0.3473
 7306TIP3   OH243408   1.963   5.539   1.466 -0.0165  0.2527  0.0453
 7306TIP3    H143409   1.875   5.569   1.442 -0.0781  0.6161  0.6965
 7306TIP3    H243410   2.012   5.541   1.385 -0.2331  1.3929 -0.0681
 7307TIP3   OH243411   1.256   0.247  11.388  0.1125 -0.3554  0.0749
 7307TIP3    H143412   1.188   0.221  11.450 -0.5688  2.0591  0.3804
 7307TIP3    H243413   1.209   0.282  11.313  0.9899 -0.4054 -0.5075
 7308TIP3   OH243414   6.565   2.790  10.860  0.2312  0.6646 -0.0065
 7308TIP3    H143415   6.647   2.808  10.814  0.4520  2.2753  0.9411
 7308TIP3    H243416   6.546   2.698  10.842  0.8536  0.9733 -2.3992
 7309TIP3   OH243417   2.885   0.621   4.386 -0.5795 -0.1358 -0.2482
 7309TIP3    H143418   2.872   0.659   4.299 -1.4403  2.1150  0.8325
 7309TIP3    H243419   2.832   0.541   4.385 -0.7844  0.0055 -1.6995
 7310TIP3   OH243420   2.464   6.587   4.814  0.4963 -0.0430 -0.9311
 7310TIP3    H143421   2.402   6.647   4.855  0.6096 -0.5172 -0.0422
 7310TIP3    H243422   2.462   6.609   4.721  0.6801  1.4607 -0.5849
 7311TIP3   OH243423   6.401   5.964   4.838 -0.1433 -0.0321  0.4511
 7311TIP3    H143424   6.416   5.884   4.788  0.6293 -0.3454  1.1661
 7311TIP3    H243425   6.453   6.031   4.794  2.1517 -0.7582  1.9941
 7312TIP3   OH243426   0.121   5.248   2.512  0.5823  0.4803 -0.0325
 7312TIP3    H143427   0.137   5.325   2.567 -0.5374  1.8549 -1.5552
 7312TIP3    H243428   0.162   5.271   2.428 -1.4994  0.2818 -1.1308
 7313TIP3   OH243429   2.392   1.160   4.434 -0.6364 -0.2000 -0.3025
 7313TIP3    H143430   2.381   1.225   4.365 -0.2084  0.3139  0.1175
 7313TIP3    H243431   2.352   1.199   4.511  1.7347  0.5825  0.5707
 7314TIP3   OH243432   5.761   5.861  10.127 -0.9234 -0.0334  0.2538
 7314TIP3    H143433   5.676   5.819  10.142 -0.8229  0.1848  1.5283
 7314TIP3    H243434   5.765   5.930  10.194  0.8891 -1.0082  1.1827
 7315TIP3   OH243435   1.246   5.672  13.433 -0.0899  0.3562 -0.9010
 7315TIP3    H143436   1.246   5.586  13.474 -2.1988 -0.1352 -1.8807
 7315TIP3    H243437   1.337   5.685  13.404  0.1039 -1.8431 -1.3781
 7316TIP3   OH243438   0.477   2.671  13.246  0.3554 -0.2327  0.2390
 7316TIP3    H143439   0.539   2.724  13.196 -0.5443 -1.8595 -2.7643
 7316TIP3    H243440   0.400   2.728  13.256  0.6127  0.1830 -0.0950
 7317TIP3   OH243441   4.622   2.029   0.884 -0.0232  0.1360 -0.0562
 7317TIP3    H143442   4.715   2.052   0.883  0.6023 -2.2226  0.3808
 7317TIP3    H243443   4.592   2.045   0.794  0.5289  1.9070  0.0678
 7318TIP3   OH243444   0.137   3.034  12.646 -0.3845 -0.0518 -0.1197
 7318TIP3    H143445   0.196   3.074  12.710  0.1868  0.7425 -1.1423
 7318TIP3    H243446   0.167   3.067  12.561 -0.1854 -2.2614 -0.9505
 7319TIP3   OH243447   2.503   5.318   2.975  0.1315 -0.0282  0.2986
 7319TIP3    H143448   2.575   5.256   2.979 -0.6486 -1.0660 -1.1184
 7319TIP3    H243449   2.543   5.402   2.952  0.7064 -0.9827 -2.3675
 7320TIP3   OH243450   1.858   4.099  11.168  0.1619 -0.7031 -0.1388
 7320TIP3    H143451   1.851   4.169  11.233 -1.6398 -0.1065 -0.9442
 7320TIP3    H243452   1.770   4.091  11.132  1.1933 -0.7992 -2.7334
 7321TIP3   OH243453   3.000   4.698   1.113 -0.5041  0.1252  0.6105
 7321TIP3    H143454   2.912   4.697   1.150 -0.5191 -0.2982  0.5702
 7321TIP3    H243455   3.011   4.610   1.075 -0.5152  0.5670 -0.4342
 7322TIP3   OH243456   5.343   5.940   3.675 -0.6376  0.2068  0.0805
 7322TIP3    H143457   5.279   5.871   3.658 -1.4258 -0.0023  3.5271
 7322TIP3    H243458   5.297   6.021   3.653 -0.0451 -0.2114 -3.0100
 7323TIP3   OH243459   4.487   3.662  14.363 -0.0693 -0.0217  0.4597
 7323TIP3    H143460   4.423   3.603  14.402  0.1787 -0.6097 -0.0140
 7323TIP3    H243461   4.518   3.716  14.436 -0.5617 -0.2362  0.8257
 7324TIP3   OH243462   2.248   3.987   0.420 -0.2004 -0.0061 -0.3475
 7324TIP3    H143463   2.191   3.911   0.428  0.4405 -0.6920 -2.0356
 7324TIP3    H243464   2.219   4.031   0.341  1.7766 -0.5334 -1.3973
 7325TIP3   OH243465   3.831   2.193   2.923  0.3075  0.5991 -0.2471
 7325TIP3    H143466   3.862   2.222   2.838 -0.7681 -0.2464 -0.9468
 7325TIP3    H243467   3.896   2.226   2.985  1.6472  0.3431 -1.4860
 7326TIP3   OH243468   6.122   4.784  13.250  0.2361 -0.2965 -0.1480
 7326TIP3    H143469   6.106   4.699  13.209 -0.9167 -0.2300  0.1449
 7326TIP3    H243470   6.110   4.768  13.344 -1.7170  0.5554 -0.2253
 7327TIP3   OH243471   5.927   4.219   0.816 -0.0202 -0.0403  0.8332
 7327TIP3    H143472   5.988   4.240   0.886 -0.3481  0.9381  0.8330
 7327TIP3    H243473   5.934   4.124   0.806  0.0113 -0.1985  2.2069
 7328TIP3   OH243474   5.070   2.364   0.590  0.0240  0.2859  0.1457
 7328TIP3    H143475   5.015   2.402   0.659 -0.2399 -0.6357  0.4497
 7328TIP3    H243476   5.160   2.381   0.619 -0.0941  1.5326 -0.2042
 7329TIP3   OH243477   2.787   2.520  13.922  0.0108 -0.4186  0.1934
 7329TIP3    H143478   2.754   2.594  13.872  0.1440 -1.4415 -1.4617
 7329TIP3    H243479   2.844   2.558  13.989 -0.3324  0.9816 -0.3077
 7330TIP3   OH243480   1.300   2.382   1.673 -0.8619  0.2398 -0.4926
 7330TIP3    H143481   1.259   2.456   1.718 -0.7398 -1.2801  2.1927
 7330TIP3    H243482   1.252   2.375   1.591 -3.4793  0.8889  0.9344
 7331TIP3   OH243483   4.392   6.756   6.049  0.1266  0.0495  0.6520
 7331TIP3    H143484   4.325   6.702   6.090  0.7626 -0.1850  1.4038
 7331TIP3    H243485   4.348   6.799   5.976 -0.9641  0.3237  1.4777
 7332TIP3   OH243486   2.508   6.212   0.806 -0.0273 -0.1300  0.1216
 7332TIP3    H143487   2.601   6.204   0.825 -0.2531 -1.7037  0.6386
 7332TIP3    H243488   2.494   6.158   0.728 -0.2549  1.2901 -0.8587
 7333TIP3   OH243489   1.094   3.781  14.063  0.2775 -0.2306 -0.1517
 7333TIP3    H143490   1.094   3.872  14.033 -1.3635 -0.0275  0.3913
 7333TIP3    H243491   1.061   3.731  13.988  1.7687 -0.4641 -0.6596
 7334TIP3   OH243492   2.702   5.209   4.605  0.0307  0.1259  0.5316
 7334TIP3    H143493   2.749   5.249   4.532  0.1796 -0.1958  0.4506
 7334TIP3    H243494   2.771   5.168   4.658 -0.2304 -1.0285 -0.0068
 7335TIP3   OH243495   0.336   6.363  14.053 -0.1573 -0.8372  0.0923
 7335TIP3    H143496   0.360   6.325  13.969  1.1505 -2.2988  1.0832
 7335TIP3    H243497   0.268   6.427  14.033  2.3232  1.1265 -2.4618
 7336TIP3   OH243498   2.343   0.450   1.287  0.0728  0.1523  0.2720
 7336TIP3    H143499   2.418   0.476   1.234  0.2228 -2.2894 -0.7624
 7336TIP3    H243500   2.373   0.458   1.377  1.0573  0.7098 -0.0976
 7337TIP3   OH243501   5.546   5.171  12.184 -0.1734 -0.2811 -0.2969
 7337TIP3    H143502   5.615   5.184  12.118  0.2952 -0.5989  0.1349
 7337TIP3    H243503   5.592   5.165  12.267 -0.7901  0.4277  0.1058
 7338TIP3   OH243504   0.004   2.752  10.794 -0.1846 -0.1034  0.1760
 7338TIP3    H143505  -0.018   2.791  10.710 -0.2937 -0.6278 -0.0345
 7338TIP3    H243506   0.098   2.767  10.804 -0.0579 -0.5903 -0.3172
 7339TIP3   OH243507   3.574   6.626   4.844 -0.2154  0.4097 -0.4958
 7339TIP3    H143508   3.571   6.591   4.933 -0.1764 -2.2547 -1.5088
 7339TIP3    H243509   3.667   6.640   4.826  0.0006 -1.6437 -1.0702
 7340TIP3   OH243510   2.565   2.390  13.399  0.5439  0.1958 -0.2361
 7340TIP3    H143511   2.612   2.412  13.479  1.4741  1.3423 -1.0739
 7340TIP3    H243512   2.604   2.308  13.370 -1.8580 -1.8342  2.0672
 7341TIP3   OH243513   5.567   6.636   6.346  0.3462  0.5573  0.1258
 7341TIP3    H143514   5.651   6.677   6.327 -0.4616  2.6441  0.8716
 7341TIP3    H243515   5.563   6.560   6.288  3.3722 -0.4407  1.1247
 7342TIP3   OH243516   1.995   1.454  16.471 -0.2498 -0.1930 -0.3340
 7342TIP3    H143517   2.074   1.491  16.432  1.1388 -1.6916  0.9903
 7342TIP3    H243518   1.955   1.526  16.518  1.3642  0.1279  0.5751
 7343TIP3   OH243519   4.922   2.870  12.692  0.1434  0.1749 -0.1672
 7343TIP3    H143520   4.889   2.843  12.606 -1.3440 -0.9015  0.7141
 7343TIP3    H243521   4.909   2.964  12.693 -1.7083 -0.0597 -0.3674
 7344TIP3   OH243522   1.963   6.498  11.267 -0.3901 -0.3619 -0.3333
 7344TIP3    H143523   2.028   6.476  11.334 -1.0999  2.0223  1.2300
 7344TIP3    H243524   2.011   6.551  11.203 -0.8827  2.0385  1.2109
 7345TIP3   OH243525   4.871   0.279   0.828  0.3801 -0.0878 -0.7653
 7345TIP3    H143526   4.794   0.279   0.771  0.3909 -0.2478 -0.7799
 7345TIP3    H243527   4.925   0.207   0.794 -1.0119 -2.2121  1.3863
 7346TIP3   OH243528   0.020   2.359   2.463  0.3463  0.0974 -0.4295
 7346TIP3    H143529  -0.076   2.361   2.455  0.3725  0.5207 -0.6341
 7346TIP3    H243530   0.051   2.320   2.381  0.3831  0.5671 -0.6420
 7347TIP3   OH243531   5.447   0.217  12.472  0.1127  0.2301  0.1052
 7347TIP3    H143532   5.541   0.231  12.463  0.3330 -1.5480 -0.7642
 7347TIP3    H243533   5.407   0.277  12.409  0.8158 -0.6904 -1.2486
 7348TIP3   OH243534   2.541   0.005  11.370  0.0685 -0.9512  0.8284
 7348TIP3    H143535   2.624  -0.003  11.418 -0.0749 -0.5168  1.1427
 7348TIP3    H243536   2.529   0.099  11.358  0.7471 -1.1005 -1.1918
 7349TIP3   OH243537   2.842   2.659   2.650  0.5956  0.4145  0.3428
 7349TIP3    H143538   2.766   2.707   2.683  0.9507  0.8350  0.5586
 7349TIP3    H243539   2.917   2.700   2.694  0.8667 -0.6443  0.8752
 7350TIP3   OH243540   1.476   1.200  12.986  0.1247  0.2149 -0.4420
 7350TIP3    H143541   1.398   1.220  13.038 -0.7872 -0.2363 -1.6141
 7350TIP3    H243542   1.549   1.225  13.043 -0.8799  1.8840  0.1747
 7351TIP3   OH243543   3.567   0.953   2.973  0.2043  0.2649 -1.3246
 7351TIP3    H143544   3.531   1.029   2.927 -0.8719  1.1523  0.9316
 7351TIP3    H243545   3.584   0.984   3.062  3.5275 -1.0457 -1.4342
 7352TIP3   OH243546   4.219   1.924  10.890  0.0767 -0.0554 -0.3907
 7352TIP3    H143547   4.145   1.922  10.951  0.9372  0.4444  0.7032
 7352TIP3    H243548   4.224   2.016  10.862  0.4159 -0.0368 -0.2773
 7353TIP3   OH243549   0.806   6.378  11.478 -0.3791 -0.4404  0.0478
 7353TIP3    H143550   0.886   6.377  11.531  0.4042 -1.4057 -1.1081
 7353TIP3    H243551   0.793   6.471  11.457  0.7961 -0.3333 -0.2550
 7354TIP3   OH243552   3.691   5.520  17.042 -0.1153 -0.6877 -0.0817
 7354TIP3    H143553   3.603   5.530  17.007  0.2294  0.5013 -0.6363
 7354TIP3    H243554   3.748   5.549  16.970  0.6544  0.3535  0.9447
 7355TIP3   OH243555   1.900   6.722  16.633  0.0093  0.2324  0.2976
 7355TIP3    H143556   1.867   6.717  16.543 -0.8021  1.7671  0.4960
 7355TIP3    H243557   1.831   6.767  16.682  0.7945  0.1474  1.5129
 7356TIP3   OH243558   1.455   3.308  16.930 -0.2293 -0.2303 -0.1355
 7356TIP3    H143559   1.505   3.361  16.992  0.3768 -0.8304 -0.1047
 7356TIP3    H243560   1.434   3.228  16.978 -1.9524  0.3630  0.1255
 7357TIP3   OH243561   0.547   4.879   2.607  0.6100  0.6161 -0.0545
 7357TIP3    H143562   0.489   4.922   2.669 -0.5893  0.4084 -1.0017
 7357TIP3    H243563   0.553   4.789   2.638  0.5863  0.6874  0.1585
 7358TIP3   OH243564   5.569   1.133  12.211 -0.0644 -0.2435 -0.0551
 7358TIP3    H143565   5.594   1.218  12.247 -0.1740  0.5271 -1.7105
 7358TIP3    H243566   5.597   1.137  12.119 -0.8803 -1.6464 -0.3812
 7359TIP3   OH243567   6.229   0.067  14.630  0.3449  0.1988  0.0624
 7359TIP3    H143568   6.224   0.069  14.534 -4.5298 -0.5367  0.1799
 7359TIP3    H243569   6.181   0.144  14.659  2.0222  0.5730  1.9605
 7360TIP3   OH243570   3.011   2.344   4.199 -0.1650  0.4067 -0.1884
 7360TIP3    H143571   3.078   2.307   4.141  3.6437  2.9098  2.3535
 7360TIP3    H243572   2.988   2.428   4.158 -2.0030 -0.5914 -1.2160
 7361TIP3   OH243573   0.346   1.939  11.892 -0.3016  0.4519  0.3709
 7361TIP3    H143574   0.441   1.953  11.898 -0.1618  0.2890 -1.2006
 7361TIP3    H243575   0.313   1.959  11.979  1.4023 -1.2663  1.4517
 7362TIP3   OH243576   5.501   4.391  10.397 -0.1165 -0.0410  0.1060
 7362TIP3    H143577   5.473   4.301  10.417  0.1205  0.0250  0.7140
 7362TIP3    H243578   5.597   4.387  10.399 -0.1124  0.3841  0.8142
 7363TIP3   OH243579   1.919   3.431  10.544  0.0849  0.1606 -0.0624
 7363TIP3    H143580   1.907   3.420  10.639 -0.9593  1.9474  0.0385
 7363TIP3    H243581   1.836   3.405  10.506 -0.2981  1.6371 -0.2823
 7364TIP3   OH243582   0.069   2.859   5.551 -0.5726 -0.2901  0.1768
 7364TIP3    H143583   0.036   2.834   5.637 -1.0101 -2.3864 -0.5715
 7364TIP3    H243584  -0.009   2.864   5.496 -0.0778 -1.1029 -0.6026
 7365TIP3   OH243585   4.888   6.673   5.794 -0.1684 -0.1654 -0.6647
 7365TIP3    H143586   4.898   6.578   5.798  0.3031 -0.0235  3.5809
 7365TIP3    H243587   4.801   6.687   5.756 -1.1150 -2.3766  0.6055
 7366TIP3   OH243588   5.182   0.258  11.332  0.4810  0.3992  0.2902
 7366TIP3    H143589   5.247   0.283  11.266  1.7372 -1.1968  0.8821
 7366TIP3    H243590   5.233   0.212  11.399 -1.3282 -1.3880  0.4910
 7367TIP3   OH243591   3.882   3.393  14.617  0.3416  0.0251  0.1597
 7367TIP3    H143592   3.870   3.298  14.615 -2.6904  0.2968  1.4702
 7367TIP3    H243593   3.924   3.410  14.701  0.1890 -0.1026  0.2622
 7368TIP3   OH243594   6.746   4.347  14.725 -0.2669  0.2522  0.3250
 7368TIP3    H143595   6.809   4.419  14.721 -0.4691  0.5389  1.8970
 7368TIP3    H243596   6.685   4.372  14.794 -2.7159  0.4414 -1.8414
 7369TIP3   OH243597   1.842   3.535  15.832 -0.3150 -0.0076 -0.2459
 7369TIP3    H143598   1.866   3.603  15.895 -1.0315 -0.7279  0.8313
 7369TIP3    H243599   1.854   3.453  15.880  2.3293 -0.7728 -2.0955
 7370TIP3   OH243600   6.785   2.993  13.011 -0.5387 -0.3040 -0.1046
 7370TIP3    H143601   6.787   2.989  13.107 -2.3099 -0.4243 -0.0439
 7370TIP3    H243602   6.834   3.071  12.989  0.2255 -0.4947  0.8901
 7371TIP3   OH243603   4.351   2.114  16.439 -0.1968 -0.2086 -0.2976
 7371TIP3    H143604   4.321   2.183  16.498  0.4570  0.4120 -0.6920
 7371TIP3    H243605   4.271   2.076  16.403 -0.5907 -0.3698  0.7290
 7372TIP3   OH243606   2.290   0.836  11.536 -0.1493  0.5004 -0.6486
 7372TIP3    H143607   2.216   0.803  11.484 -0.4036  1.4971 -0.9355
 7372TIP3    H243608   2.367   0.818  11.482 -0.3924  1.3604 -1.3017
 7373TIP3   OH243609   3.234   2.103  13.111  0.4020  0.0125  0.2191
 7373TIP3    H143610   3.240   2.198  13.105  0.1377 -0.0248 -0.8026
 7373TIP3    H243611   3.313   2.077  13.158  0.0996  0.7899  1.1584
 7374TIP3   OH243612   0.926   1.607  15.271  0.4474  0.6615 -0.0710
 7374TIP3    H143613   0.971   1.585  15.189 -0.0006 -1.2932  0.1889
 7374TIP3    H243614   0.967   1.689  15.299  2.3902  0.0117 -0.9251
 7375TIP3   OH243615   1.517   5.163  14.784  0.2295 -0.1419  0.3159
 7375TIP3    H143616   1.489   5.074  14.765  1.0588 -0.4836  0.6785
 7375TIP3    H243617   1.451   5.197  14.844  0.2158 -0.7009  0.6179
 7376TIP3   OH243618   6.494   5.232  11.192 -0.1177 -0.4660  0.2073
 7376TIP3    H143619   6.588   5.213  11.202  0.5915  2.6662 -0.1001
 7376TIP3    H243620   6.472   5.197  11.105  0.9582 -0.5572 -0.0357
 7377TIP3   OH243621   0.432   1.799   5.340  0.1382 -0.2203 -0.4333
 7377TIP3    H143622   0.430   1.810   5.435  0.2122  1.0515 -0.5730
 7377TIP3    H243623   0.347   1.761   5.319 -1.2645  2.6124 -0.2044
 7378TIP3   OH243624   0.314   6.020  12.362 -0.0568 -0.0785 -0.2728
 7378TIP3    H143625   0.312   6.105  12.318 -0.7838 -1.7768 -3.7210
 7378TIP3    H243626   0.239   6.022  12.421 -1.6957  0.7112 -2.3220
 7379TIP3   OH243627   0.814   0.715  13.023 -0.2346  0.4851  0.2213
 7379TIP3    H143628   0.856   0.636  12.988 -0.8903 -0.3121  1.2070
 7379TIP3    H243629   0.782   0.761  12.945  0.1108 -0.2450 -0.3583
 7380TIP3   OH243630   5.705   0.332  12.457 -0.1451 -0.4203  0.5619
 7380TIP3    H143631   5.717   0.425  12.476  1.0424 -0.5317  0.4483
 7380TIP3    H243632   5.792   0.294  12.472 -0.2645 -1.2592 -0.7780
 7381TIP3   OH243633   6.135   6.382   1.815  0.5318  0.3940  0.3743
 7381TIP3    H143634   6.210   6.395   1.873  0.5995 -0.7265  0.5663
 7381TIP3    H243635   6.076   6.455   1.834  0.6528  0.1583  1.7030
 7382TIP3   OH243636   3.911   0.058   3.462 -0.0395 -0.4232 -0.1917
 7382TIP3    H143637   3.948   0.139   3.426  0.3694 -0.6810 -0.3558
 7382TIP3    H243638   3.936   0.058   3.554 -1.6246  0.5501  0.2626
 7383TIP3   OH243639   1.456   1.648   1.406 -0.6326  0.3002 -0.4323
 7383TIP3    H143640   1.446   1.606   1.320 -3.0575  1.3343 -0.6969
 7383TIP3    H243641   1.480   1.577   1.465 -0.4017 -0.6809 -1.6793
 7384TIP3   OH243642   6.135   5.551  10.406  0.4126  0.1485 -0.1863
 7384TIP3    H143643   6.148   5.508  10.322  0.1184  0.1121 -0.2151
 7384TIP3    H243644   6.092   5.634  10.384  0.5574  0.2477 -0.0946
 7385TIP3   OH243645   5.792   1.245   4.377 -0.0295  0.6178  0.4290
 7385TIP3    H143646   5.734   1.218   4.448  1.3715  0.6668  1.6136
 7385TIP3    H243647   5.827   1.163   4.342 -0.7509  0.5917 -0.2415
 7386TIP3   OH243648   1.274   0.604  17.254  0.7336  0.0626 -0.0423
 7386TIP3    H143649   1.204   0.546  17.225  0.3566 -0.0485  1.0499
 7386TIP3    H243650   1.253   0.689  17.218 -0.6069  0.2958  1.2376
 7387TIP3   OH243651   1.853   3.473   7.062 -0.2897 -0.7068 -0.3020
 7387TIP3    H143652   1.935   3.488   7.015 -0.3336  0.1445 -0.1090
 7387TIP3    H243653   1.786   3.470   6.994 -0.5621  1.9909 -0.2154
 7388TIP3   OH243654   4.962   4.921  12.530 -1.0542 -0.0056 -0.3530
 7388TIP3    H143655   5.024   4.951  12.463 -1.5132 -1.5649 -1.4823
 7388TIP3    H243656   4.918   4.846  12.491 -1.1828 -1.0736  1.7778
 7389TIP3   OH243657   1.160   4.359  12.479 -0.4823  0.3571  0.2465
 7389TIP3    H143658   1.254   4.354  12.461 -0.7427 -0.0266 -1.0162
 7389TIP3    H243659   1.141   4.280  12.529  0.0194  0.8610  1.2637
 7390TIP3   OH243660   5.478   2.341   5.333 -0.2762  0.4652 -0.7163
 7390TIP3    H143661   5.462   2.389   5.252 -0.9182  2.8523  0.7735
 7390TIP3    H243662   5.390   2.323   5.368  0.0065 -0.1905 -0.3342
 7391TIP3   OH243663   4.371   1.432   1.558  0.1526 -0.3226 -0.2944
 7391TIP3    H143664   4.308   1.453   1.627  1.2630  0.7027  0.4267
 7391TIP3    H243665   4.360   1.501   1.493 -0.3982 -0.8936 -0.8146
 7392TIP3   OH243666   3.935   1.860   1.634 -0.2096  0.8679 -0.3507
 7392TIP3    H143667   3.915   1.771   1.605  1.2225  0.4068  0.0082
 7392TIP3    H243668   3.904   1.865   1.724  1.7278 -0.0271  0.3998
 7393TIP3   OH243669   3.238   5.247   6.511 -0.0743 -0.2425  0.5837
 7393TIP3    H143670   3.240   5.322   6.571  0.0568 -0.9960  1.5424
 7393TIP3    H243671   3.297   5.183   6.552  0.3447 -0.6051 -0.5750
 7394TIP3   OH243672   6.298   6.556  14.381 -0.2395  0.2100 -0.4537
 7394TIP3    H143673   6.377   6.589  14.424 -0.2067  0.3252 -0.6041
 7394TIP3    H243674   6.317   6.464  14.363 -0.6297 -0.1127  0.6862
 7395TIP3   OH243675   4.400   2.033  17.025 -0.4449  0.1261 -0.0084
 7395TIP3    H143676   4.405   2.022  16.931  0.5346 -0.2958  0.0909
 7395TIP3    H243677   4.489   2.053  17.052 -1.3578  4.2298  0.3441
 7396TIP3   OH243678   0.858   4.667  15.403 -0.4820  1.0227  0.6715
 7396TIP3    H143679   0.934   4.685  15.348 -1.1350 -2.1573 -1.4558
 7396TIP3    H243680   0.890   4.608  15.471 -1.0239 -0.3476 -0.2470
 7397TIP3   OH243681   0.788   6.570   5.801  0.0977 -0.2048 -0.9618
 7397TIP3    H143682   0.778   6.636   5.870  1.5360 -0.3140 -0.6416
 7397TIP3    H243683   0.870   6.593   5.758  1.1263 -2.4086 -0.1912
 7398TIP3   OH243684   6.689   6.292  13.564  0.5385 -0.5264 -0.6976
 7398TIP3    H143685   6.601   6.326  13.575 -0.9459 -3.9186 -1.5082
 7398TIP3    H243686   6.720   6.273  13.653  0.6579  1.0386 -0.3869
 7399TIP3   OH243687   1.559   3.822   3.576 -0.5124  0.2069 -0.1457
 7399TIP3    H143688   1.503   3.863   3.642 -1.4660  0.4538 -1.0778
 7399TIP3    H243689   1.498   3.797   3.506  0.5111  0.2390 -1.0599
 7400TIP3   OH243690   2.264   6.739   5.331  0.1070  0.1040  0.1884
 7400TIP3    H143691   2.202   6.680   5.372  0.9116 -1.3785 -0.7039
 7400TIP3    H243692   2.346   6.724   5.378  0.4489  0.1031 -0.4052
 7401TIP3   OH243693   0.814   1.823  14.125 -0.2157 -0.1539  0.3519
 7401TIP3    H143694   0.888   1.854  14.177  0.2891  0.5132 -0.7431
 7401TIP3    H243695   0.803   1.889  14.056 -1.8119 -0.2526  0.4803
 7402TIP3   OH243696   2.168   0.268  17.038 -0.1075 -0.2015  0.2758
 7402TIP3    H143697   2.163   0.364  17.042 -1.2752 -0.3009  1.4761
 7402TIP3    H243698   2.099   0.243  16.977  0.0526 -0.2966  0.1316
 7403TIP3   OH243699   2.899   2.259  13.531 -0.0929  0.0170 -0.4693
 7403TIP3    H143700   2.963   2.311  13.482  0.3948 -0.7924 -0.6999
 7403TIP3    H243701   2.893   2.302  13.616  1.1956 -0.2450 -0.2410
 7404TIP3   OH243702   1.494   0.642  16.860 -0.1436 -0.0884  0.3506
 7404TIP3    H143703   1.544   0.702  16.916  0.7511 -0.0101 -0.5065
 7404TIP3    H243704   1.402   0.660  16.880  0.1536 -0.8091  2.5783
 7405TIP3   OH243705   5.526   6.622   2.025  0.2670  0.2734  0.1787
 7405TIP3    H143706   5.568   6.707   2.011  2.2575 -0.6700  0.2041
 7405TIP3    H243707   5.547   6.599   2.116  0.6533 -0.7058 -0.1415
 7406TIP3   OH243708   4.316   3.331   5.101 -0.1822 -0.9928  0.0200
 7406TIP3    H143709   4.304   3.373   5.016 -1.4843 -0.6223  0.3752
 7406TIP3    H243710   4.349   3.244   5.080 -0.1001 -0.7527 -0.8553
 7407TIP3   OH243711   5.344   2.266  17.108 -0.6835 -0.2356  0.5090
 7407TIP3    H143712   5.382   2.218  17.034 -1.8143 -1.3999  0.6631
 7407TIP3    H243713   5.345   2.358  17.080  0.1997 -0.4983 -0.3633
 7408TIP3   OH243714   1.337   3.079  16.558 -0.0177  0.5846  0.5278
 7408TIP3    H143715   1.355   2.985  16.563 -0.1015  0.3903 -2.0224
 7408TIP3    H243716   1.422   3.120  16.575  0.7883 -0.0712 -1.7299
 7409TIP3   OH243717   4.542   2.259  14.255  0.5306  0.8349 -0.2949
 7409TIP3    H143718   4.497   2.333  14.214  1.1797  0.9935 -0.7372
 7409TIP3    H243719   4.504   2.182  14.212  0.6835  0.9683 -0.6750
 7410TIP3   OH243720   4.843   3.455  16.218  0.1051 -0.3211 -0.3858
 7410TIP3    H143721   4.935   3.481  16.214 -0.1663  0.9987  1.2146
 7410TIP3    H243722   4.794   3.533  16.190 -0.5294 -1.1372 -1.6074
 7411TIP3   OH243723   2.330   3.405   1.402  0.6203  0.0969  0.0949
 7411TIP3    H143724   2.378   3.346   1.461 -0.1668  0.8556  1.5003
 7411TIP3    H243725   2.398   3.460   1.363  1.1883 -0.6904 -0.0502
 7412TIP3   OH243726   2.421   1.174   5.587  0.3803 -0.2428  0.3858
 7412TIP3    H143727   2.457   1.093   5.622  0.2387  0.3536  1.9358
 7412TIP3    H243728   2.361   1.205   5.654  0.5427  1.2213 -0.1246
 7413TIP3   OH243729   4.995   5.741  10.694  0.7627  0.5249 -0.0084
 7413TIP3    H143730   5.012   5.691  10.614 -1.0538  1.0696 -0.7612
 7413TIP3    H243731   4.954   5.822  10.664 -4.0605 -1.1236  1.6662
 7414TIP3   OH243732   4.882   5.890  12.326 -0.3571 -0.2649  0.0508
 7414TIP3    H143733   4.812   5.858  12.383 -0.5177 -0.9456 -0.5195
 7414TIP3    H243734   4.962   5.856  12.365 -0.3754  0.1681  0.4705
 7415TIP3   OH243735   4.944   3.545   1.341  0.2399 -0.1186  0.4947
 7415TIP3    H143736   4.873   3.499   1.294  1.0993  0.8653 -1.8516
 7415TIP3    H243737   4.905   3.570   1.425 -2.2534  0.4857 -0.7843
 7416TIP3   OH243738   6.585   0.842  15.641  1.3065 -0.2530 -0.3826
 7416TIP3    H143739   6.614   0.816  15.728 -0.5955 -1.8993 -0.2141
 7416TIP3    H243740   6.540   0.765  15.607 -0.9999  1.5130 -1.4614
 7417TIP3   OH243741   6.323   3.093  11.351 -0.1931 -0.3513  0.3344
 7417TIP3    H143742   6.267   3.024  11.317 -2.3587  1.3962  0.3014
 7417TIP3    H243743   6.339   3.151  11.276  1.4591 -0.6669  0.4064
 7418TIP3   OH243744   5.746   2.804  14.929 -0.0308  0.0962  0.2813
 7418TIP3    H143745   5.684   2.750  14.881 -0.9429  0.9264  0.5215
 7418TIP3    H243746   5.692   2.871  14.972  1.0914  1.2358 -0.0564
 7419TIP3   OH243747   6.225   2.751   1.400 -0.1337 -0.4161 -0.1216
 7419TIP3    H143748   6.141   2.724   1.362 -0.8090  1.5863 -0.1273
 7419TIP3    H243749   6.274   2.785   1.325 -0.0648  0.1844  0.1933
 7420TIP3   OH243750   1.202   2.529  12.981 -0.2471  0.1737 -0.7234
 7420TIP3    H143751   1.184   2.514  13.073 -1.2876 -1.2024 -1.1232
 7420TIP3    H243752   1.246   2.614  12.978 -0.6127  0.4384  0.9796
 7421TIP3   OH243753   2.773   5.880  11.024 -0.2045 -0.0523  0.2663
 7421TIP3    H143754   2.695   5.858  11.074 -0.6471  0.8393 -0.0316
 7421TIP3    H243755   2.752   5.854  10.934 -0.4943  0.9941  0.0258
 7422TIP3   OH243756   3.826   4.816   2.239  0.3118 -0.1416  0.7830
 7422TIP3    H143757   3.797   4.725   2.226 -0.8398  0.5869 -2.2038
 7422TIP3    H243758   3.749   4.860   2.276 -0.6973  0.5652 -2.0084
 7423TIP3   OH243759   5.659   3.999  17.289  0.2629 -0.0569 -0.2498
 7423TIP3    H143760   5.719   4.014  17.216 -1.5881  0.1832 -1.7557
 7423TIP3    H243761   5.594   3.938  17.255 -0.8166  0.3085  1.1100
 7424TIP3   OH243762   0.969   6.257  15.955 -0.3107  0.4104 -0.3443
 7424TIP3    H143763   0.899   6.232  16.015 -0.0434  2.7547  1.0180
 7424TIP3    H243764   1.049   6.256  16.008  0.1173  1.2740 -0.9476
 7425TIP3   OH243765   0.259   6.432  11.353  0.1021  0.4764  0.1892
 7425TIP3    H143766   0.224   6.458  11.439  0.6613 -0.1609  0.6142
 7425TIP3    H243767   0.335   6.489  11.340 -0.5534  1.2515 -0.3364
 7426TIP3   OH243768   0.136   4.134   1.786 -0.1081  0.0282  0.6069
 7426TIP3    H143769   0.211   4.176   1.828 -0.9885  0.6620  1.5529
 7426TIP3    H243770   0.165   4.119   1.696  0.9900  0.7019  0.8353
 7427TIP3   OH243771   3.795   5.523  15.903  0.5788  0.1115 -0.4726
 7427TIP3    H143772   3.852   5.569  15.840  0.2514  0.8999 -0.2002
 7427TIP3    H243773   3.772   5.590  15.967 -1.4219  0.0517 -1.0880
 7428TIP3   OH243774   3.054   2.510   1.770 -0.4462 -0.8642 -0.2538
 7428TIP3    H143775   3.134   2.539   1.814 -0.0615 -0.8513 -0.9546
 7428TIP3    H243776   3.001   2.589   1.764  0.7199 -0.1955 -2.4193
 7429TIP3   OH243777   0.953   2.186  16.126 -0.4902  0.3527 -0.4791
 7429TIP3    H143778   1.015   2.116  16.108  0.7721  0.9667  1.3229
 7429TIP3    H243779   0.868   2.151  16.098  0.4835 -0.9231 -1.8990
 7430TIP3   OH243780   5.794   5.044  15.659  0.0167 -0.2408  0.0716
 7430TIP3    H143781   5.796   5.046  15.563  0.7307  0.4981  0.1011
 7430TIP3    H243782   5.705   5.071  15.682 -0.0037  0.0702 -0.3731
 7431TIP3   OH243783   6.287   2.652  16.497 -0.8936  0.3431 -0.8274
 7431TIP3    H143784   6.329   2.643  16.583 -1.8514 -0.3342 -0.4179
 7431TIP3    H243785   6.355   2.688  16.441  0.3257 -1.0425 -0.2580
 7432TIP3   OH243786   3.298   5.406  17.167 -0.0446 -0.3805 -0.3145
 7432TIP3    H143787   3.343   5.419  17.083  0.6359 -2.5987 -0.3086
 7432TIP3    H243788   3.366   5.422  17.232 -0.5225  1.1286 -0.1515
 7433TIP3   OH243789   5.907   5.778   4.289 -0.1673  0.6090  0.2617
 7433TIP3    H143790   5.869   5.796   4.203 -2.2953  2.5264  1.5582
 7433TIP3    H243791   5.983   5.836   4.293 -0.1272  0.5985 -0.2563
 7434TIP3   OH243792   2.880   5.961  13.183  0.4856  0.2164 -0.1210
 7434TIP3    H143793   2.967   5.957  13.221  0.0344  1.1516  1.0591
 7434TIP3    H243794   2.865   5.874  13.146  1.5341 -0.2368  0.5027
 7435TIP3   OH243795   2.870   5.543  14.806 -0.0212  0.2800 -0.6451
 7435TIP3    H143796   2.841   5.479  14.871  0.4647  2.2528  1.5757
 7435TIP3    H243797   2.965   5.529  14.800 -0.1636 -0.3452 -1.4162
 7436TIP3   OH243798   6.245   3.767  16.549 -0.0217  0.6772  0.1913
 7436TIP3    H143799   6.258   3.850  16.595 -1.1561  0.4109  1.0410
 7436TIP3    H243800   6.174   3.785  16.487  0.0887  0.4843  0.0083
 7437TIP3   OH243801   0.731   0.529   2.831 -0.1880  0.1471  0.0070
 7437TIP3    H143802   0.708   0.441   2.861  1.8153 -0.1840  0.6241
 7437TIP3    H243803   0.671   0.586   2.878 -0.2585 -0.7572  1.0402
 7438TIP3   OH243804   5.593   4.261  17.088  0.0655  0.1744  0.2063
 7438TIP3    H143805   5.638   4.178  17.071 -0.5674 -0.4135  1.3498
 7438TIP3    H243806   5.653   4.310  17.143  0.5700  0.6120 -0.7166
 7439TIP3   OH243807   0.275   0.027   5.868 -0.2081  0.4233  0.0585
 7439TIP3    H143808   0.325   0.097   5.910  0.3873  0.1590 -0.1975
 7439TIP3    H243809   0.262   0.057   5.779 -1.0232  0.7547  0.2881
 7440TIP3   OH243810   5.501   5.984   4.470 -0.5314  0.2182 -0.0647
 7440TIP3    H143811   5.526   6.026   4.552 -2.5044 -0.3919  0.8859
 7440TIP3    H243812   5.457   6.053   4.421 -0.0153  0.3849 -0.2923
 7441TIP3   OH243813   1.660   2.169  16.609 -0.5587 -0.4748  0.0996
 7441TIP3    H143814   1.640   2.105  16.541 -1.0497  0.2896 -0.4784
 7441TIP3    H243815   1.608   2.141  16.685 -0.9080 -0.6591 -0.2076
 7442TIP3   OH243816   1.135   4.864  10.329  0.6753  0.0309  0.1550
 7442TIP3    H143817   1.075   4.818  10.270  0.0653  0.0310  0.7659
 7442TIP3    H243818   1.105   4.839  10.417  1.2518  0.4436  0.4712
 7443TIP3   OH243819   1.542   0.453  13.893  0.5340 -0.2178  0.1903
 7443TIP3    H143820   1.552   0.546  13.913 -1.2929  0.2753 -1.0704
 7443TIP3    H243821   1.583   0.442  13.807  0.5036 -0.5354  0.2151
 7444TIP3   OH243822   3.961   0.159   5.148  0.2048  0.5206  0.1041
 7444TIP3    H143823   3.909   0.120   5.077  1.7888 -1.1331 -0.2062
 7444TIP3    H243824   3.898   0.175   5.218 -1.0084  0.1182 -0.8704
 7445TIP3   OH243825   2.700   3.816   4.586 -0.0725  0.0469 -0.0859
 7445TIP3    H143826   2.627   3.808   4.524 -1.0954  0.0787  1.0965
 7445TIP3    H243827   2.730   3.907   4.576 -1.5449  0.6675  0.8728
 7446TIP3   OH243828   3.169   5.647   4.914  0.2388  0.4113  0.0373
 7446TIP3    H143829   3.098   5.711   4.924  1.5996  1.8011  1.0217
 7446TIP3    H243830   3.204   5.663   4.827 -0.6954 -0.3223 -0.4757
 7447TIP3   OH243831   6.572   5.722   1.394  0.1413  0.3630 -0.6497
 7447TIP3    H143832   6.511   5.728   1.320 -0.7906 -0.6432  0.0003
 7447TIP3    H243833   6.638   5.659   1.366 -0.5726 -0.5154 -0.4095
 7448TIP3   OH243834   6.256   4.393   0.912  0.0676  0.3325  0.2319
 7448TIP3    H143835   6.263   4.301   0.886 -0.6065 -0.0777  1.4922
 7448TIP3    H243836   6.289   4.396   1.002  0.5071  1.4104  0.0513
 7449TIP3   OH243837   1.940   4.553  11.528 -0.1927 -0.3341 -0.1763
 7449TIP3    H143838   1.920   4.644  11.506  0.0093 -0.3688 -0.5131
 7449TIP3    H243839   1.986   4.559  11.612  1.6473  0.0631 -1.1736
 7450TIP3   OH243840   5.164   3.887  14.808  0.3778 -0.4264 -0.0923
 7450TIP3    H143841   5.171   3.798  14.773  2.6880 -0.2883 -0.0731
 7450TIP3    H243842   5.114   3.935  14.743  0.0127 -1.4914 -0.6064
 7451TIP3   OH243843   4.471   0.418   1.226 -0.1785 -0.1147 -0.6660
 7451TIP3    H143844   4.548   0.475   1.233 -0.0780 -0.2874 -0.3415
 7451TIP3    H243845   4.397   0.475   1.247 -0.0715 -0.1199 -0.2717
 7452TIP3   OH243846   3.527   3.212   4.878  0.4984  0.3908 -0.6820
 7452TIP3    H143847   3.554   3.304   4.879 -1.7260  1.0598  1.4979
 7452TIP3    H243848   3.473   3.203   4.800 -2.9747  2.1277  1.3870
 7453TIP3   OH243849   2.615   5.583   2.950 -0.1681 -0.3751  0.1981
 7453TIP3    H143850   2.690   5.618   2.904 -1.0590 -0.2057 -1.1518
 7453TIP3    H243851   2.589   5.652   3.011  1.5427 -0.9397  1.6295
 7454TIP3   OH243852   2.038   1.412  15.424 -0.4367 -0.0048  0.0113
 7454TIP3    H143853   2.075   1.475  15.485 -1.8621  0.1496  0.7538
 7454TIP3    H243854   2.113   1.365  15.389  0.4587  0.3711  1.3788
 7455TIP3   OH243855   2.625   5.648  16.943  0.0235  0.2722 -0.0988
 7455TIP3    H143856   2.561   5.617  17.008 -0.4019  0.5511 -0.3835
 7455TIP3    H243857   2.632   5.742  16.960 -1.7376  0.7628 -1.8733
 7456TIP3   OH243858   3.221   1.232   1.090 -0.8546  0.2694  0.1724
 7456TIP3    H143859   3.304   1.195   1.060 -0.1553  1.4484  0.6318
 7456TIP3    H243860   3.175   1.256   1.009  0.6085  2.5261 -0.0142
 7457TIP3   OH243861   0.764   4.745  15.794 -0.3270 -0.4416 -0.2456
 7457TIP3    H143862   0.693   4.682  15.809 -0.2231 -0.4050  0.4183
 7457TIP3    H243863   0.740   4.821  15.847  0.0133 -0.2745 -0.3280
 7458TIP3   OH243864   1.490   6.222  13.262  0.5100  0.3755 -0.9900
 7458TIP3    H143865   1.531   6.295  13.308 -0.1505  0.1471 -0.0196
 7458TIP3    H243866   1.558   6.155  13.258  0.1555 -0.1251  0.8939
 7459TIP3   OH243867   0.243   3.696  15.164 -0.1786 -0.4675  0.1840
 7459TIP3    H143868   0.300   3.773  15.164 -1.7861  0.7819 -1.2430
 7459TIP3    H243869   0.286   3.634  15.105 -0.4303  0.5707 -1.1045
 7460TIP3   OH243870   1.651   2.538   4.499  0.1388  0.3026 -0.9339
 7460TIP3    H143871   1.670   2.602   4.432 -2.6670  1.9229 -0.2654
 7460TIP3    H243872   1.669   2.583   4.582 -0.4012 -0.2438 -0.5064
 7461TIP3   OH243873   3.643   2.362  16.747 -0.1355  0.0192 -0.0277
 7461TIP3    H143874   3.604   2.325  16.668 -0.0644  0.3619 -0.2234
 7461TIP3    H243875   3.610   2.307  16.818  2.6109 -2.4789 -0.6153
 7462TIP3   OH243876   3.535   0.495   5.137  0.0525 -0.1660  0.2481
 7462TIP3    H143877   3.600   0.428   5.156  0.4475  0.3078  0.5949
 7462TIP3    H243878   3.453   0.461   5.173  0.4311 -0.0688  1.2184
 7463TIP3   OH243879   1.725   2.589   1.679  0.1375 -0.5249 -0.9597
 7463TIP3    H143880   1.762   2.615   1.764  0.6066  0.9459 -1.5954
 7463TIP3    H243881   1.784   2.628   1.615 -1.9529  1.0243 -1.9917
 7464TIP3   OH243882   6.079   6.035   0.658 -0.1238 -0.2624  0.3374
 7464TIP3    H143883   6.134   5.992   0.725 -1.0699 -0.5699  0.9205
 7464TIP3    H243884   6.137   6.044   0.582  1.3127  1.0543  1.5445
 7465TIP3   OH243885   5.139   1.666   3.306 -0.3199 -0.1882  0.8494
 7465TIP3    H143886   5.048   1.679   3.280 -0.1313 -1.1321 -0.3288
 7465TIP3    H243887   5.181   1.627   3.229  1.0053 -0.0555  1.4872
 7466TIP3   OH243888   4.183   2.560   1.990 -0.0292 -0.0484 -0.3065
 7466TIP3    H143889   4.267   2.602   1.972  0.9005 -1.3204  0.9068
 7466TIP3    H243890   4.148   2.608   2.065  0.9393 -1.2832  0.9545
 7467TIP3   OH243891   4.881   5.150   4.845  0.4750  0.1422  0.0696
 7467TIP3    H143892   4.870   5.245   4.853  0.6807  0.2043 -0.3523
 7467TIP3    H243893   4.913   5.138   4.756 -0.8323 -0.4232 -0.3371
 7468TIP3   OH243894   5.804   6.093   0.198 -0.5017  0.7713 -0.3553
 7468TIP3    H143895   5.826   6.008   0.236 -1.0609  0.8560  0.1748
 7468TIP3    H243896   5.721   6.078   0.153 -0.7093  1.0864 -0.0801
 7469TIP3   OH243897   2.944   0.851   3.917  0.2583 -0.3170 -0.2235
 7469TIP3    H143898   2.911   0.854   3.828  0.7844 -0.6482 -0.4289
 7469TIP3    H243899   3.032   0.888   3.911 -0.6385  2.0768  0.5842
 7470TIP3   OH243900   5.626   1.625   2.549 -0.3043 -0.4425 -0.2248
 7470TIP3    H143901   5.632   1.717   2.578  0.6050 -0.0469 -1.6066
 7470TIP3    H243902   5.650   1.574   2.627  0.4307  0.5438  0.2124
 7471TIP3   OH243903   2.954   4.194  12.019  0.6611  0.4572 -0.2674
 7471TIP3    H143904   3.037   4.240  12.006  0.8742  0.4007  0.8529
 7471TIP3    H243905   2.945   4.186  12.114  0.3461 -1.2919 -0.4293
 7472TIP3   OH243906   1.054   5.245  14.835  0.2036 -0.2966 -0.2639
 7472TIP3    H143907   1.036   5.294  14.755  1.3206  0.0888 -0.2875
 7472TIP3    H243908   0.983   5.182  14.840  1.0088 -1.4493 -2.4704
 7473TIP3   OH243909   0.285   0.217  14.748 -0.1984  0.2019 -0.2194
 7473TIP3    H143910   0.278   0.309  14.772  0.8670  0.5886 -1.3452
 7473TIP3    H243911   0.376   0.193  14.766 -0.3533 -0.5047 -0.3416
 7474TIP3   OH243912   1.318   4.335   6.484 -0.0705  0.1272 -0.3008
 7474TIP3    H143913   1.256   4.407   6.488 -1.2117 -0.7445 -1.5446
 7474TIP3    H243914   1.304   4.286   6.565 -0.4062  0.4238 -0.1803
 7475TIP3   OH243915   2.243   3.557  15.229 -0.5700 -0.0537  0.4443
 7475TIP3    H143916   2.202   3.492  15.172  0.7939 -1.8128  1.4590
 7475TIP3    H243917   2.175   3.625  15.239 -1.7049 -0.8865 -1.2784
 7476TIP3   OH243918   4.652   6.494  13.844 -0.6793  0.2467  0.7750
 7476TIP3    H143919   4.652   6.471  13.751 -1.3049 -2.0593  1.3133
 7476TIP3    H243920   4.728   6.447  13.880 -0.4676  1.0874  1.4495
 7477TIP3   OH243921   2.676   3.565  12.728  0.0978  0.0314 -0.2513
 7477TIP3    H143922   2.607   3.584  12.792 -1.0640 -0.1287 -1.4619
 7477TIP3    H243923   2.696   3.650  12.688 -0.3356 -0.1484 -0.8494
 7478TIP3   OH243924   3.713   6.030   3.553 -0.4334 -0.6480  0.0146
 7478TIP3    H143925   3.761   5.971   3.611  0.3265 -1.4852 -1.4167
 7478TIP3    H243926   3.688   5.975   3.479  0.8393  0.9309 -1.6515
 7479TIP3   OH243927   3.755   2.436   4.765  1.0275  0.3118  0.4073
 7479TIP3    H143928   3.718   2.349   4.773  3.1892 -0.5836  1.1907
 7479TIP3    H243929   3.716   2.486   4.837  1.4358 -0.6445  1.3012
 7480TIP3   OH243930   2.236   4.697   5.346 -0.0727  0.2701  0.1729
 7480TIP3    H143931   2.180   4.751   5.291 -0.5564 -1.3323 -0.9322
 7480TIP3    H243932   2.325   4.715   5.315 -0.1798  0.8794  0.2166
 7481TIP3   OH243933   2.324   4.533   6.821  0.4784  0.2814 -0.3632
 7481TIP3    H143934   2.338   4.439   6.830  1.3832  0.3446 -1.0746
 7481TIP3    H243935   2.280   4.544   6.736  1.2948  0.5862 -0.7503
 7482TIP3   OH243936   3.599   1.005  15.727 -0.3983 -0.4055 -0.2250
 7482TIP3    H143937   3.567   1.084  15.771  2.4977  0.1072  1.0233
 7482TIP3    H243938   3.545   0.998  15.648 -1.6186  2.0331  0.3651
 7483TIP3   OH243939   0.466   1.628   0.681 -0.6293 -0.2993  0.3420
 7483TIP3    H143940   0.561   1.633   0.690 -0.7051 -0.4642  1.3006
 7483TIP3    H243941   0.439   1.566   0.749 -1.4313 -0.1946  0.1231
 7484TIP3   OH243942   1.081   2.008  13.845  0.8231 -1.2738  0.3959
 7484TIP3    H143943   1.085   2.061  13.766  1.3690 -0.7154  0.7958
 7484TIP3    H243944   1.007   1.949  13.830  0.7652 -1.0040 -0.4206
 7485TIP3   OH243945   4.299   4.816  16.051  0.3372  0.2588 -0.1333
 7485TIP3    H143946   4.350   4.772  15.983 -2.1926  0.7520 -2.4045
 7485TIP3    H243947   4.251   4.746  16.094  1.1168  0.0817  0.4720
 7486TIP3   OH243948   6.593   6.640  13.452 -0.3764  0.1930  0.2775
 7486TIP3    H143949   6.683   6.635  13.420  0.3306  1.3341  2.0475
 7486TIP3    H243950   6.567   6.731  13.435 -0.9839  0.0379  0.3600
 7487TIP3   OH243951   1.105   2.801  11.931  0.5850 -0.1034  0.1896
 7487TIP3    H143952   1.136   2.870  11.872  0.3691 -1.0132 -0.9926
 7487TIP3    H243953   1.179   2.783  11.988  1.0797  0.1830 -0.3527
 7488TIP3   OH243954   3.496   6.708  16.723  0.1860 -0.4249 -0.5026
 7488TIP3    H143955   3.499   6.794  16.680  0.8794 -0.6643 -0.9558
 7488TIP3    H243956   3.468   6.726  16.812 -0.8323  0.1411 -0.9318
 7489TIP3   OH243957   4.155   1.592  12.764  0.1983  0.1045  0.1262
 7489TIP3    H143958   4.167   1.548  12.848  0.4221  0.1772  0.1334
 7489TIP3    H243959   4.063   1.580  12.743 -0.0695  0.8770  0.8271
 7490TIP3   OH243960   2.266   4.338   2.458  0.3687  0.2139 -0.8339
 7490TIP3    H143961   2.199   4.284   2.416  0.1603 -2.1336  2.3450
 7490TIP3    H243962   2.219   4.417   2.486 -1.3892 -1.7428  2.0506
 7491TIP3   OH243963   5.343   3.859  15.321  0.0166  0.1708 -0.1544
 7491TIP3    H143964   5.310   3.819  15.401  0.4997  1.8235  0.8956
 7491TIP3    H243965   5.317   3.798  15.251 -0.5621 -1.1936  1.2216
 7492TIP3   OH243966   4.003   3.114  15.068  0.3015 -0.3035  0.5906
 7492TIP3    H143967   4.059   3.150  15.136 -1.1240  0.4140  1.4213
 7492TIP3    H243968   3.986   3.024  15.097 -0.1511 -0.0591  1.0956
 7493TIP3   OH243969   5.215   4.961   4.610 -0.2462 -0.3719 -0.6168
 7493TIP3    H143970   5.283   4.947   4.676 -1.8516 -0.5594  1.0528
 7493TIP3    H243971   5.239   5.043   4.568  1.8417 -1.2300 -1.1157
 7494TIP3   OH243972   1.271   0.628  14.863  0.2112  0.2109  0.0762
 7494TIP3    H143973   1.340   0.566  14.888  0.2986  0.1520 -0.3120
 7494TIP3    H243974   1.290   0.651  14.772  1.1209  2.0870  0.7296
 7495TIP3   OH243975   6.257   0.002  13.543 -0.4784 -0.3330  0.7594
 7495TIP3    H143976   6.240   0.042  13.628 -1.5912 -0.4544  0.6079
 7495TIP3    H243977   6.330   0.052  13.506 -1.0613  0.7674  1.0885
 7496TIP3   OH243978   0.664   3.875   2.373  0.2129  0.2634 -0.2198
 7496TIP3    H143979   0.716   3.810   2.326 -0.8358 -0.6109 -0.1986
 7496TIP3    H243980   0.722   3.951   2.382  1.4490 -0.6665 -0.2468
 7497TIP3   OH243981   1.247   2.093   4.907 -0.0580 -0.5796 -0.0105
 7497TIP3    H143982   1.196   2.044   4.841  0.1919 -1.5839  0.5315
 7497TIP3    H243983   1.322   2.037   4.926  0.0794 -0.1136  0.8430
 7498TIP3   OH243984   4.547   3.529   4.710  0.6383  0.4640 -0.1784
 7498TIP3    H143985   4.626   3.477   4.718  0.0760 -0.3715 -0.0408
 7498TIP3    H243986   4.525   3.524   4.617 -0.7832 -1.5819  0.2454
 7499TIP3   OH243987   3.602   5.736   2.910  0.1812  0.9363 -0.1987
 7499TIP3    H143988   3.692   5.707   2.898 -0.3928 -1.0405  0.1797
 7499TIP3    H243989   3.591   5.806   2.845  1.3245 -0.2778 -1.7550
 7500TIP3   OH243990   2.788   4.944  16.663  0.1002 -0.1218 -0.4337
 7500TIP3    H143991   2.827   4.984  16.741  0.4059  0.8237 -1.0669
 7500TIP3    H243992   2.704   4.910  16.693 -1.0422  2.6695 -0.2867
 7501TIP3   OH243993   6.382   5.721   5.679 -0.0609  0.3192  0.4251
 7501TIP3    H143994   6.312   5.719   5.615 -1.3027 -0.4772  1.7818
 7501TIP3    H243995   6.365   5.798   5.732  1.1439  1.1567 -0.3689
 7502TIP3   OH243996   4.844   5.681  13.257  0.1856  0.0574 -0.0644
 7502TIP3    H143997   4.928   5.680  13.210  0.2331  1.4518 -0.0301
 7502TIP3    H243998   4.855   5.748  13.324 -1.6978  1.8594 -1.4801
 7503TIP3   OH243999   3.005   1.783  15.983 -0.7892 -0.1815 -0.0773
 7503TIP3    H144000   2.917   1.766  15.952 -1.4320 -0.3968  1.7990
 7503TIP3    H244001   3.053   1.703  15.962 -1.6546 -1.0074  1.0402
 7504TIP3   OH244002   0.360   4.596  14.015 -0.4893 -0.2643 -0.5573
 7504TIP3    H144003   0.267   4.572  14.025  0.0312 -1.7267  1.0652
 7504TIP3    H244004   0.406   4.512  14.017  1.0494  0.6008  0.9056
 7505TIP3   OH244005   0.665   3.205   1.628 -0.2956  0.3514  0.2059
 7505TIP3    H144006   0.754   3.176   1.649 -0.5942  1.3638  3.0682
 7505TIP3    H244007   0.673   3.247   1.543  1.8713 -0.0523  0.1866
 7506TIP3   OH244008   2.674   3.124  12.619 -0.3067 -0.3910  0.5850
 7506TIP3    H144009   2.764   3.157  12.614 -0.2909 -0.6169 -0.6272
 7506TIP3    H244010   2.632   3.180  12.684  0.3467  0.5706  0.1928
 7507TIP3   OH244011   1.128   1.392  15.533 -0.2638  0.1750  0.0087
 7507TIP3    H144012   1.135   1.375  15.440 -0.7742 -1.3583  0.2413
 7507TIP3    H244013   1.055   1.454  15.541 -0.5787 -0.1300 -0.5525
 7508TIP3   OH244014   2.040   1.930   1.221 -0.5464  0.4681 -0.0148
 7508TIP3    H144015   1.991   1.962   1.146  0.7778 -0.7386 -1.4278
 7508TIP3    H244016   2.121   1.980   1.221 -0.9917  1.2220  1.2717
 7509TIP3   OH244017   1.297   2.761   6.809 -0.2651  0.4858  0.0015
 7509TIP3    H144018   1.380   2.725   6.841  0.2979  0.1686 -1.7917
 7509TIP3    H244019   1.319   2.847   6.774 -0.4897 -0.0807 -1.5353
 7510TIP3   OH244020   6.277   3.071   4.597 -0.3002  0.1573  0.0025
 7510TIP3    H144021   6.225   2.991   4.593  0.9353 -0.6361 -0.3699
 7510TIP3    H244022   6.365   3.042   4.618 -0.2243  1.5952  1.7576
 7511TIP3   OH244023   2.062   5.791   0.360 -0.0593  0.2939  0.1041
 7511TIP3    H144024   1.985   5.848   0.359 -0.4966 -0.3026 -1.7372
 7511TIP3    H244025   2.027   5.703   0.345  0.9422 -0.0240 -0.3947
 7512TIP3   OH244026   0.669   4.811  16.471  0.2838  0.0839  0.5236
 7512TIP3    H144027   0.706   4.855  16.395  0.4765  0.2319  0.7035
 7512TIP3    H244028   0.574   4.813  16.456  0.4198 -1.5950 -0.6694
 7513TIP3   OH244029   3.492   0.630   4.874 -0.1637  0.1121  0.1837
 7513TIP3    H144030   3.470   0.552   4.926  0.7416  0.8115  1.6633
 7513TIP3    H244031   3.587   0.627   4.866 -0.2635  0.2655 -1.0578
 7514TIP3   OH244032   3.083   1.701  13.040 -0.0144 -0.1922 -0.0605
 7514TIP3    H144033   3.065   1.624  12.986  1.8855 -0.7331  0.0223
 7514TIP3    H244034   3.172   1.727  13.014 -1.2656  2.9859 -1.3093
 7515TIP3   OH244035   2.485   5.852  11.534 -0.2549  0.2535  0.0719
 7515TIP3    H144036   2.400   5.808  11.542  0.2367 -0.7669 -0.1502
 7515TIP3    H244037   2.514   5.832  11.446  0.5162  0.0469  0.3682
 7516TIP3   OH244038   1.819   6.666  13.887 -0.3047 -0.6130  0.0627
 7516TIP3    H144039   1.857   6.623  13.964  0.0227 -1.8083 -0.7679
 7516TIP3    H244040   1.729   6.634  13.884 -0.0944 -1.1521 -0.4880
 7517TIP3   OH244041   2.128   1.279   1.587 -0.4513 -0.4986 -0.3082
 7517TIP3    H144042   2.196   1.338   1.620 -1.5423  1.0139 -0.7212
 7517TIP3    H244043   2.176   1.205   1.551  0.9086 -0.3611  1.1444
 7518TIP3   OH244044   2.146   3.620  15.819  0.5544 -0.3366  0.1033
 7518TIP3    H144045   2.177   3.531  15.803 -1.8079 -1.3285  0.8498
 7518TIP3    H244046   2.118   3.619  15.910  1.2928  1.4412  0.3716
 7519TIP3   OH244047   2.997   5.271   3.171  0.7544  0.4257  0.7015
 7519TIP3    H144048   2.932   5.245   3.236  0.3607  0.7420  0.4375
 7519TIP3    H244049   2.973   5.361   3.149  1.8944  0.9088  1.3638
 7520TIP3   OH244050   0.564   3.301   1.377  0.5623 -0.1631 -0.4713
 7520TIP3    H144051   0.558   3.305   1.282 -0.0330  0.4792 -0.4078
 7520TIP3    H244052   0.480   3.265   1.406 -0.3783  2.2407 -0.0341
 7521TIP3   OH244053   2.511   4.814   2.575  0.1303  0.3743  0.2565
 7521TIP3    H144054   2.427   4.859   2.576  1.1238  2.2753  0.5985
 7521TIP3    H244055   2.573   4.877   2.614  1.8704 -0.6322 -0.8040
 7522TIP3   OH244056   3.158   1.315  14.409 -0.3234  0.7749  0.1387
 7522TIP3    H144057   3.103   1.351  14.339 -1.0359  0.0249  0.3009
 7522TIP3    H244058   3.148   1.220  14.401 -0.8749  0.6880  1.6164
 7523TIP3   OH244059   0.494   0.282  11.948 -0.3649 -0.6127  0.1414
 7523TIP3    H144060   0.487   0.375  11.971 -0.2213 -0.5649 -0.0031
 7523TIP3    H244061   0.427   0.239  12.001 -0.9800 -0.3210 -0.3885
 7524TIP3   OH244062   2.606   6.071  14.784  0.3557  0.0345  0.3394
 7524TIP3    H144063   2.536   6.134  14.803 -1.1924 -1.3474 -0.5373
 7524TIP3    H244064   2.680   6.099  14.837 -1.0417  1.2507  1.6807
 7525TIP3   OH244065   2.738   6.726  14.151  0.5140 -0.2379  0.0397
 7525TIP3    H144066   2.678   6.711  14.224 -0.0385  1.2341 -0.0990
 7525TIP3    H244067   2.747   6.640  14.110 -0.6080 -0.7020  0.7494
 7526TIP3   OH244068   2.746   5.511  11.304  0.2686 -0.1006 -0.2547
 7526TIP3    H144069   2.653   5.494  11.321  0.4535  0.7731  1.8571
 7526TIP3    H244070   2.759   5.484  11.213 -1.9587 -0.6048 -0.4676
 7527TIP3   OH244071   5.405   0.382   3.633  0.3359 -0.5559  0.1768
 7527TIP3    H144072   5.334   0.391   3.697 -0.1100  0.9176 -0.4992
 7527TIP3    H244073   5.372   0.427   3.555  1.5423 -0.8905 -0.5362
 7528TIP3   OH244074   2.603   2.933   5.165 -0.7717 -0.4309 -0.6731
 7528TIP3    H144075   2.685   2.976   5.188 -0.9620 -0.8709  0.8591
 7528TIP3    H244076   2.620   2.894   5.079  0.8933 -1.1770 -0.0331
 7529TIP3   OH244077   4.116   6.083   3.606  0.0521  0.1216  0.0529
 7529TIP3    H144078   4.047   6.067   3.670 -0.3439  0.4059 -0.2962
 7529TIP3    H244079   4.197   6.077   3.655 -0.1650 -1.3795  0.2500
 7530TIP3   OH244080   4.483   3.496  11.850  0.7180  0.1545 -0.2763
 7530TIP3    H144081   4.412   3.538  11.801  0.1738 -0.8448 -0.3691
 7530TIP3    H244082   4.487   3.543  11.933  0.4711  0.7262 -0.5866
 7531TIP3   OH244083   1.695   2.621   3.074 -0.1049  0.0638 -0.4367
 7531TIP3    H144084   1.733   2.610   3.161  1.4306 -0.3988 -1.1470
 7531TIP3    H244085   1.608   2.582   3.080 -0.5009  1.1498  1.2299
 7532TIP3   OH244086   0.877   3.653  15.261  0.4694 -0.5071  0.0278
 7532TIP3    H144087   0.969   3.641  15.285  0.2917 -0.2513  0.8572
 7532TIP3    H244088   0.863   3.748  15.264  0.4936 -0.4544 -1.3005
 7533TIP3   OH244089   2.354   3.297  16.336 -0.5622  0.1376  0.2191
 7533TIP3    H144090   2.410   3.323  16.263 -1.3941 -0.5809 -0.6900
 7533TIP3    H244091   2.354   3.202  16.333  0.4104  0.0706  1.9481
 7534TIP3   OH244092   0.544   6.588   2.938 -0.0298  0.2581  0.2430
 7534TIP3    H144093   0.506   6.595   2.850  0.5451 -0.4259 -0.0670
 7534TIP3    H244094   0.558   6.678   2.965 -0.1618  0.4766 -0.3926
 7535TIP3   OH244095   6.335   4.754  12.979  0.6213 -0.1754  0.0087
 7535TIP3    H144096   6.310   4.841  13.010  0.5309 -1.1165  2.6608
 7535TIP3    H244097   6.381   4.770  12.897  1.3553  2.4282  0.8996
 7536TIP3   OH244098   6.171   0.934  13.989  0.2880  0.3038 -0.0990
 7536TIP3    H144099   6.118   0.871  14.038  1.9611 -0.0464  1.3228
 7536TIP3    H244100   6.256   0.891  13.978  1.6677  2.4868  1.4344
 7537TIP3   OH244101   2.134   1.621   2.746 -0.1479  0.5339 -0.8812
 7537TIP3    H144102   2.190   1.658   2.814 -0.8225  0.5816 -0.3531
 7537TIP3    H244103   2.136   1.527   2.761  0.0838  0.5047 -1.0898
 7538TIP3   OH244104   2.730   2.921   3.225 -0.4755 -0.6025 -0.0444
 7538TIP3    H144105   2.748   2.907   3.318 -3.0048  0.9070  0.7187
 7538TIP3    H244106   2.664   2.854   3.204  1.6151 -2.3223 -1.3288
 7539TIP3   OH244107   1.795   6.624   0.899 -0.6415 -0.4276 -0.5923
 7539TIP3    H144108   1.735   6.692   0.869  0.9900  0.9140 -0.9287
 7539TIP3    H244109   1.804   6.564   0.824 -0.6797 -0.0007 -0.9383
 7540TIP3   OH244110   3.675   4.606   5.986 -0.2469  0.2852 -0.3741
 7540TIP3    H144111   3.684   4.681   6.044 -1.0223  0.4970 -0.5252
 7540TIP3    H244112   3.676   4.530   6.045 -2.0688  0.5524  0.0177
 7541TIP3   OH244113   1.242   3.545  15.216 -0.2266  0.3374  0.4719
 7541TIP3    H144114   1.201   3.611  15.271  0.8338  0.8543  0.6473
 7541TIP3    H244115   1.316   3.590  15.175 -0.2350 -0.3963 -0.3746
 7542TIP3   OH244116   5.979   6.644  15.017  0.6083  0.2031 -0.2646
 7542TIP3    H144117   6.002   6.555  15.043  0.2194  0.3077  0.4659
 7542TIP3    H244118   5.893   6.659  15.057  1.2482  1.3582  0.7321
 7543TIP3   OH244119   3.052   1.457  11.643 -0.0999 -0.0713 -0.6756
 7543TIP3    H144120   2.972   1.503  11.618  0.1162 -0.1091 -1.4379
 7543TIP3    H244121   3.028   1.409  11.723 -0.6221  0.5093 -0.4850
 7544TIP3   OH244122   1.872   3.433  15.394 -0.3808 -0.4098  0.2417
 7544TIP3    H144123   1.887   3.493  15.467  1.5097  1.4043 -1.5513
 7544TIP3    H244124   1.927   3.357  15.413  1.4370  0.7878 -0.0829
 7545TIP3   OH244125   1.499   1.338   1.772 -0.0422 -0.2530  0.0201
 7545TIP3    H144126   1.410   1.317   1.799  1.2319 -3.7562  1.8508
 7545TIP3    H244127   1.535   1.389   1.845 -0.1334  0.1292 -0.1958
 7546TIP3   OH244128   5.057   4.009  16.584 -0.1879  0.2532  0.1085
 7546TIP3    H144129   5.009   3.929  16.561  1.5606 -0.8159  0.1468
 7546TIP3    H244130   5.083   3.996  16.675 -0.3061  1.0905  0.2661
 7547TIP3   OH244131   3.208   0.991  16.896 -0.1072  0.2985  0.1178
 7547TIP3    H144132   3.272   0.924  16.919 -1.0705  0.1190  2.3825
 7547TIP3    H244133   3.123   0.946  16.899 -0.6651  1.3572  0.6551
 7548TIP3   OH244134   4.454   3.296  16.934 -0.2737 -0.0495  0.0726
 7548TIP3    H144135   4.546   3.274  16.945 -0.4292 -0.9120 -0.2918
 7548TIP3    H244136   4.417   3.287  17.022 -0.1731 -0.4791  0.0709
 7549TIP3   OH244137   0.554   2.147   2.574  0.0581 -0.1780 -0.2347
 7549TIP3    H144138   0.497   2.112   2.505 -2.1427  0.0231  1.4145
 7549TIP3    H244139   0.611   2.074   2.598 -0.4496 -0.8157 -0.9491
 7550TIP3   OH244140   3.779   3.744  15.525 -0.2384  0.2250 -0.4911
 7550TIP3    H144141   3.788   3.835  15.496  0.4853  0.4661  0.4739
 7550TIP3    H244142   3.716   3.747  15.596  2.6072  0.5664  2.1437
 7551TIP3   OH244143   0.679   3.684  14.654  0.0134 -0.2333 -0.1937
 7551TIP3    H144144   0.756   3.655  14.604  1.5973  1.3070  1.2910
 7551TIP3    H244145   0.654   3.607  14.706  0.5095 -0.7524 -0.7116
 7552TIP3   OH244146   3.965   0.633  11.113  0.4452  0.2351  0.4856
 7552TIP3    H144147   3.906   0.578  11.061  1.2521  0.7168 -0.9697
 7552TIP3    H244148   4.012   0.570  11.169 -0.4688 -0.2804  0.6919
 7553TIP3   OH244149   5.687   5.911   3.249 -0.0111  0.3615 -0.0405
 7553TIP3    H144150   5.628   5.891   3.322 -0.2616  2.2632  0.3220
 7553TIP3    H244151   5.766   5.946   3.291  0.5082 -0.1264 -0.6084
 7554TIP3   OH244152   4.485   3.727  11.660  0.3405 -0.3655 -0.1478
 7554TIP3    H144153   4.427   3.753  11.732  0.8657 -1.4600  0.6855
 7554TIP3    H244154   4.570   3.714  11.701  0.5815 -1.2586 -0.9072
 7555TIP3   OH244155   1.361   2.151  15.213 -0.3041  0.5482 -0.6920
 7555TIP3    H144156   1.443   2.200  15.213 -0.3979  0.9468  3.6438
 7555TIP3    H244157   1.388   2.059  15.211  0.2582  0.6846  0.3141
 7556TIP3   OH244158   4.214   6.455  15.231  0.3737 -0.1458  0.5350
 7556TIP3    H144159   4.183   6.370  15.200  0.4877  0.5484 -1.5389
 7556TIP3    H244160   4.307   6.441  15.249  0.5960 -0.2538 -0.6391
 7557TIP3   OH244161   0.227   0.653   1.660  0.0424  0.0290  0.0677
 7557TIP3    H144162   0.153   0.593   1.645 -0.1461 -0.0969  1.4376
 7557TIP3    H244163   0.300   0.612   1.614 -0.6014 -0.1500 -0.8089
 7558TIP3   OH244164   2.772   4.228  13.976  0.5695 -0.1017  0.4937
 7558TIP3    H144165   2.743   4.146  14.016 -1.0447  0.0135 -0.4021
 7558TIP3    H244166   2.733   4.227  13.889  0.4052  1.6834  0.5231
 7559TIP3   OH244167   0.099   3.085   0.589  0.8800  0.8278  0.3984
 7559TIP3    H144168   0.177   3.056   0.542  1.1976  1.1739  0.7058
 7559TIP3    H244169   0.027   3.072   0.527  1.0171 -0.5520  0.4981
 7560TIP3   OH244170   1.411   2.430   5.799  0.1428  0.3254  0.2965
 7560TIP3    H144171   1.419   2.454   5.706  0.8981  0.0555  0.2912
 7560TIP3    H244172   1.392   2.513   5.843  0.0736  0.5027 -0.0576
 7561TIP3   OH244173   6.004   4.520  11.416  0.2552  0.3700 -0.2135
 7561TIP3    H144174   5.913   4.531  11.388  0.6896  1.4850 -1.1702
 7561TIP3    H244175   6.007   4.429  11.447 -1.1626  0.2900 -0.2375
 7562TIP3   OH244176   2.637   4.679   2.911  0.2642 -0.2086  0.5704
 7562TIP3    H144177   2.568   4.708   2.851 -1.0517  0.9849  2.6373
 7562TIP3    H244178   2.718   4.704   2.866 -0.7330  2.2553  0.0232
 7563TIP3   OH244179   2.046   1.839  15.818  0.1707 -0.3220 -0.0076
 7563TIP3    H144180   2.049   1.847  15.913 -1.7458 -0.8712  0.1192
 7563TIP3    H244181   1.994   1.760  15.802 -1.0954  0.7707 -1.5019
 7564TIP3   OH244182   2.798   3.492  11.069 -0.6434  0.0200  0.5563
 7564TIP3    H144183   2.707   3.469  11.089 -0.7799 -0.1482 -0.2385
 7564TIP3    H244184   2.833   3.525  11.152 -1.3603 -0.1323  0.9275
 7565TIP3   OH244185   2.473   5.290  11.151  0.6335  0.1184 -0.4616
 7565TIP3    H144186   2.448   5.377  11.119  1.1037  0.1770 -0.6840
 7565TIP3    H244187   2.432   5.229  11.089  0.3099  0.1813 -0.3103
 7566TIP3   OH244188   2.043   1.098  16.708  0.0253 -0.5409 -0.2481
 7566TIP3    H144189   1.955   1.120  16.679  0.0011 -1.2593 -0.7314
 7566TIP3    H244190   2.095   1.097  16.627  0.2328 -1.2868 -0.1064
 7567TIP3   OH244191   2.310   1.913  15.041  0.5158 -0.4910  0.3581
 7567TIP3    H144192   2.343   1.845  14.984  0.4971  0.6767 -1.0726
 7567TIP3    H244193   2.388   1.957  15.075  0.5353 -1.4518  1.5697
 7568TIP3   OH244194   3.604   5.216   5.830 -0.2228 -0.2596  0.4474
 7568TIP3    H144195   3.575   5.221   5.739  1.4538  0.1407 -0.0687
 7568TIP3    H244196   3.605   5.307   5.860  1.4781 -0.1607  0.1396
 7569TIP3   OH244197   6.336   1.662  12.239  0.3581 -0.2557 -0.0008
 7569TIP3    H144198   6.358   1.583  12.287  1.1951  0.0947  0.2027
 7569TIP3    H244199   6.302   1.630  12.155  0.5349 -0.8317  0.1450
 7570TIP3   OH244200   1.535   6.759  16.058  0.0610 -0.2218  0.1111
 7570TIP3    H144201   1.556   6.727  15.970 -1.0973  0.1175 -0.3062
 7570TIP3    H244202   1.496   6.846  16.043  0.2183  0.0096  0.9914
 7571TIP3   OH244203   3.506   5.058   5.014 -0.1527  0.0525  0.5250
 7571TIP3    H144204   3.461   4.983   4.974  0.0200  0.0847  0.2719
 7571TIP3    H244205   3.581   5.075   4.957  0.0872  0.1061  0.8516
 7572TIP3   OH244206   4.224   0.631  14.285  0.0915  0.5252 -0.6019
 7572TIP3    H144207   4.235   0.591  14.198 -1.4049 -3.3312  0.8725
 7572TIP3    H244208   4.131   0.653  14.289  0.1644  0.7222 -0.0284
 7573TIP3   OH244209   2.995   2.478  17.109  0.1985  0.0862 -0.3754
 7573TIP3    H144210   3.021   2.568  17.132 -1.7895  1.2941 -2.6510
 7573TIP3    H244211   3.077   2.428  17.112  1.3198  1.9254  1.0705
 7574TIP3   OH244212   4.429   0.795   2.534 -0.0703  0.3519 -0.3928
 7574TIP3    H144213   4.424   0.712   2.582  0.3893  0.7384  0.3257
 7574TIP3    H244214   4.352   0.844   2.563  0.0083  0.4396 -0.3354
 7575TIP3   OH244215   5.155   1.412  15.818  0.0101  0.2204  0.0098
 7575TIP3    H144216   5.109   1.407  15.901  0.2598  0.3525  0.1563
 7575TIP3    H244217   5.231   1.468  15.836 -0.4473  1.0299 -0.5437
 7576TIP3   OH244218   6.581   2.298  16.019 -0.7963 -0.1159  0.0256
 7576TIP3    H144219   6.561   2.222  15.964 -1.2376  1.2860 -1.8223
 7576TIP3    H244220   6.584   2.264  16.108 -0.7586 -2.3330 -0.7978
 7577TIP3   OH244221   5.305   2.881   1.023 -0.1576 -0.2446  0.2333
 7577TIP3    H144222   5.210   2.873   1.027 -0.4049  1.9356 -0.3989
 7577TIP3    H244223   5.331   2.914   1.109  0.1630 -1.7477  0.7368
 7578TIP3   OH244224   2.536   4.248  16.331  0.2752  0.6219  0.1256
 7578TIP3    H144225   2.564   4.198  16.408  0.9396  0.8257  0.0243
 7578TIP3    H244226   2.568   4.337  16.348  0.3926  0.6774 -0.3716
 7579TIP3   OH244227   1.095   0.504  16.763  0.5437 -0.0430  0.3155
 7579TIP3    H144228   1.166   0.506  16.699  0.5063 -2.2609  0.1713
 7579TIP3    H244229   1.045   0.425  16.741 -2.0995  1.5864  0.2670
 7580TIP3   OH244230   6.550   1.787   6.436  0.4458  0.0729 -0.0718
 7580TIP3    H144231   6.629   1.780   6.383 -0.1575 -1.2884 -0.8270
 7580TIP3    H244232   6.545   1.703   6.483  0.7034  1.0667  1.7673
 7581TIP3   OH244233   1.820   0.068   0.126 -0.2292  0.1394 -0.2282
 7581TIP3    H144234   1.883   0.063   0.198 -0.3613 -2.0725 -0.2343
 7581TIP3    H244235   1.865   0.117   0.058  0.6860  0.4431  0.5890
 7582TIP3   OH244236   3.988   1.510   5.506  0.5123 -0.3779 -0.3090
 7582TIP3    H144237   4.028   1.510   5.593  0.4541  1.4554 -0.2655
 7582TIP3    H244238   3.896   1.529   5.522  0.8672  1.9394 -0.9080
 7583TIP3   OH244239   6.653   1.393   3.371 -0.2697  0.5083  0.0005
 7583TIP3    H144240   6.724   1.332   3.357 -1.3094 -1.3928  2.7380
 7583TIP3    H244241   6.689   1.460   3.430 -0.1159  0.7329 -0.3470
 7584TIP3   OH244242   5.649   0.034  16.636 -0.7589 -0.3422  0.3346
 7584TIP3    H144243   5.723   0.008  16.581 -1.9964 -0.9988 -1.0754
 7584TIP3    H244244   5.688   0.078  16.711  1.1227 -1.8026  0.2398
 7585TIP3   OH244245   1.689   4.400  16.305  0.1398 -0.2827 -0.5904
 7585TIP3    H144246   1.705   4.348  16.226 -0.6217  0.1995 -1.0681
 7585TIP3    H244247   1.621   4.352  16.352 -2.6225  1.7019 -2.4190
 7586TIP3   OH244248   5.363   2.120  16.141  0.2096  0.1674 -0.0328
 7586TIP3    H144249   5.281   2.092  16.182  0.0152 -0.1345 -0.6155
 7586TIP3    H244250   5.335   2.167  16.062  0.5748  0.7742  0.1933
 7587TIP3   OH244251   1.836   1.134  15.242 -0.0919 -0.1873  0.5405
 7587TIP3    H144252   1.765   1.194  15.262 -0.2419 -0.2555  0.2201
 7587TIP3    H244253   1.901   1.148  15.311  0.0440  0.6173  0.2516
 7588TIP3   OH244254   1.754   5.551  14.028  0.1970 -0.3189 -0.8141
 7588TIP3    H144255   1.662   5.523  14.020 -0.0330  0.1547  0.1620
 7588TIP3    H244256   1.763   5.622  13.965 -0.3278  0.1757 -0.3348
 7589TIP3   OH244257   6.750   1.799   2.130  0.0650  0.0312  0.1537
 7589TIP3    H144258   6.656   1.813   2.144  0.1227  0.7327 -0.1205
 7589TIP3    H244259   6.775   1.734   2.195 -0.3264  0.8895  1.1774
 7590TIP3   OH244260   4.362   2.902   3.389  0.4344  0.2874 -0.7586
 7590TIP3    H144261   4.435   2.845   3.366 -0.4415 -0.7702 -0.9490
 7590TIP3    H244262   4.365   2.910   3.484  1.0301  0.5518 -0.8033
 7591TIP3   OH244263   2.956   4.763  16.126 -0.0656  0.0465 -0.2795
 7591TIP3    H144264   2.908   4.752  16.208  0.1807 -0.9888 -0.2656
 7591TIP3    H244265   2.918   4.698  16.067  0.9309 -0.3860 -0.4487
 7592TIP3   OH244266   5.702   3.958   1.767 -0.0069  0.0394  0.0879
 7592TIP3    H144267   5.785   3.912   1.776 -0.0020  0.0145 -0.0824
 7592TIP3    H244268   5.706   4.028   1.832 -0.3659 -0.7286  0.9613
 7593TIP3   OH244269   3.798   5.012   1.953  0.0995  0.1243  0.4824
 7593TIP3    H144270   3.743   4.934   1.948  0.8356 -0.6803  3.7030
 7593TIP3    H244271   3.869   4.995   1.891  0.7435 -2.2437  1.7985
 7594TIP3   OH244272   5.732   5.808   2.234 -0.6583 -0.0341 -0.5237
 7594TIP3    H144273   5.758   5.801   2.142  1.3332 -1.0073  0.0626
 7594TIP3    H244274   5.644   5.845   2.232  0.7319  3.4064 -2.6792
 7595TIP3   OH244275   6.394   0.924   4.571 -0.3795  0.5091 -0.0171
 7595TIP3    H144276   6.483   0.960   4.562 -0.0169 -0.6769 -1.2142
 7595TIP3    H244277   6.407   0.841   4.618 -0.9766  0.8094  0.6940
 7596TIP3   OH244278   0.225   4.646   1.256  0.1232  0.1575  0.5910
 7596TIP3    H144279   0.165   4.707   1.213  0.0218 -0.4062 -0.0644
 7596TIP3    H244280   0.224   4.673   1.348 -1.3107  0.0089  0.6322
 7597TIP3   OH244281   3.376   6.546   2.311 -0.7533  0.3109 -0.1809
 7597TIP3    H144282   3.349   6.521   2.400 -1.8640  0.2629 -0.5186
 7597TIP3    H244283   3.388   6.462   2.266 -1.4162  0.3461 -0.4269
 7598TIP3   OH244284   4.274   4.087  14.423 -0.1473  0.0112  0.4846
 7598TIP3    H144285   4.350   4.077  14.366  0.6418  0.0704  1.5070
 7598TIP3    H244286   4.276   4.178  14.451 -0.8422  0.1223  0.1740
 7599TIP3   OH244287   3.301   4.731  14.723  0.5993 -0.5718  0.0097
 7599TIP3    H144288   3.339   4.647  14.696 -2.1417 -2.3379  1.3291
 7599TIP3    H244289   3.209   4.725  14.697 -0.1565  1.1039  2.0892
 7600TIP3   OH244290   2.703   4.242  11.920 -0.6338  0.1409  0.7849
 7600TIP3    H144291   2.794   4.249  11.952  0.2291 -0.5263 -1.4155
 7600TIP3    H244292   2.674   4.332  11.910 -0.3818  0.3590  1.9604
 7601TIP3   OH244293   4.034   4.415   1.452  0.3725 -0.0547 -0.2409
 7601TIP3    H144294   4.103   4.444   1.391  0.3832  0.1930 -0.1102
 7601TIP3    H244295   4.061   4.450   1.537 -0.0716  0.2947 -0.2444
 7602TIP3   OH244296   6.577   3.560   1.136  0.6393 -0.2625  0.1776
 7602TIP3    H144297   6.612   3.626   1.076  1.8841 -1.7309 -0.7535
 7602TIP3    H244298   6.500   3.524   1.091 -0.1562  0.6671  0.7718
 7603TIP3   OH244299   5.169   5.810  15.323 -0.0202  0.1595 -0.1590
 7603TIP3    H144300   5.154   5.739  15.385 -0.6744  0.5067  0.0916
 7603TIP3    H244301   5.259   5.839  15.341  0.1769 -0.4631 -0.1273
 7604TIP3   OH244302   6.018   3.945  15.908 -1.2464  0.0294 -0.3153
 7604TIP3    H144303   6.025   3.850  15.911  0.4617  0.1905  1.4286
 7604TIP3    H244304   6.103   3.975  15.877 -1.7029  1.0067 -0.6599
 7605TIP3   OH244305   0.061   3.585   4.830  0.3824 -0.2006 -0.2460
 7605TIP3    H144306   0.081   3.588   4.737 -1.6804 -0.3157 -0.7102
 7605TIP3    H244307   0.145   3.599   4.873  1.2451  0.4914 -2.1188
 7606TIP3   OH244308   5.273   4.123   4.083 -0.2515 -1.0047  0.0757
 7606TIP3    H144309   5.286   4.078   4.166  0.7486 -2.6165 -0.9206
 7606TIP3    H244310   5.190   4.169   4.093 -0.0801 -1.0785  2.0006
 7607TIP3   OH244311   3.196   5.620  16.958  0.4227 -0.3150 -0.2523
 7607TIP3    H144312   3.191   5.690  17.023 -1.4602  1.2705 -2.0362
 7607TIP3    H244313   3.105   5.591  16.947  0.7810 -0.9070 -1.8069
 7608TIP3   OH244314   4.641   6.104  11.964  0.0176 -0.0127 -0.8144
 7608TIP3    H144315   4.728   6.127  11.931 -0.0924 -0.8127 -1.6680
 7608TIP3    H244316   4.634   6.010  11.951 -0.3652 -0.2139  0.7299
 7609TIP3   OH244317   1.778   6.431   1.583 -0.2040 -0.1582 -0.5222
 7609TIP3    H144318   1.844   6.388   1.530 -0.1587 -0.6431 -0.0769
 7609TIP3    H244319   1.734   6.360   1.629 -0.7490  0.1958 -0.4893
 7610TIP3   OH244320   0.270   5.746   2.170 -0.2254 -0.3699  0.3499
 7610TIP3    H144321   0.356   5.734   2.211  0.7630 -0.2660 -1.6088
 7610TIP3    H244322   0.242   5.833   2.199 -0.2174 -0.8916  1.9520
 7611TIP3   OH244323   4.788   5.411  11.076  0.7731 -0.2871 -0.5774
 7611TIP3    H144324   4.746   5.479  11.023  0.0994 -0.6077 -0.4593
 7611TIP3    H244325   4.864   5.455  11.114 -0.1412  0.6685  0.2109
 7612TIP3   OH244326   5.824   3.700   2.739  0.4968 -0.3158  0.4619
 7612TIP3    H144327   5.780   3.744   2.813  1.3814  1.5083 -0.0619
 7612TIP3    H244328   5.758   3.640   2.705  0.3503 -1.8624  3.2680
 7613TIP3   OH244329   0.740   5.891   1.136  0.2382  0.0510  0.3854
 7613TIP3    H144330   0.781   5.905   1.051  0.7045  0.6443  0.7048
 7613TIP3    H244331   0.658   5.845   1.116  0.4550 -0.0119 -0.3598
 7614TIP3   OH244332   1.380   0.519  10.908 -0.0715 -0.2282  0.5700
 7614TIP3    H144333   1.334   0.530  10.825  1.6324  0.8147 -0.2718
 7614TIP3    H244334   1.361   0.599  10.957  1.8493  0.8248 -0.3209
 7615TIP3   OH244335   3.171   3.603   2.817  0.4400  0.3092  0.3995
 7615TIP3    H144336   3.136   3.517   2.794  0.6921  0.0747  0.8681
 7615TIP3    H244337   3.134   3.621   2.904  0.4375  0.6405  0.3275
 7616TIP3   OH244338   2.924   1.439  15.976  0.5902 -0.1314 -0.0398
 7616TIP3    H144339   2.893   1.365  15.924  2.7971  0.9653 -3.0561
 7616TIP3    H244340   2.974   1.399  16.047  1.5902 -1.5918 -1.5189
 7617TIP3   OH244341   1.343   5.588  14.879 -0.0511  0.2332  0.3007
 7617TIP3    H144342   1.297   5.630  14.952 -3.0424 -1.0264 -0.7634
 7617TIP3    H244343   1.353   5.497  14.907 -1.1722 -0.2414 -0.7890
 7618TIP3   OH244344   1.640   2.476  11.020 -0.0229  0.1844 -0.0893
 7618TIP3    H144345   1.688   2.400  11.055  0.5018  0.9549  0.9243
 7618TIP3    H244346   1.605   2.520  11.098  0.1998  1.3154 -0.6145
 7619TIP3   OH244347   3.222   6.181   1.850 -0.6335  0.0171 -1.0474
 7619TIP3    H144348   3.262   6.198   1.765 -0.3625  0.3826 -0.8481
 7619TIP3    H244349   3.130   6.205   1.839 -0.2758  1.5494 -0.7931
 7620TIP3   OH244350   3.739   5.234  12.395 -0.2201 -0.4651 -0.2962
 7620TIP3    H144351   3.794   5.159  12.372 -0.4213 -0.6980 -0.0216
 7620TIP3    H244352   3.670   5.197  12.450 -1.0500 -0.2868 -1.2132
 7621TIP3   OH244353   4.481   0.638   5.393 -0.3284  0.0544 -0.2167
 7621TIP3    H144354   4.429   0.605   5.466 -0.2826 -1.4156 -0.8366
 7621TIP3    H244355   4.418   0.656   5.324 -0.0888 -1.0225 -0.7127
 7622TIP3   OH244356   1.935   4.965   4.457 -0.1032  0.3685  0.1818
 7622TIP3    H144357   1.877   5.039   4.473 -0.2859  0.4815 -0.9883
 7622TIP3    H244358   1.890   4.913   4.390 -0.1168 -0.9536  1.1953
 7623TIP3   OH244359   2.550   2.359  16.881  0.0542  0.2072 -0.0651
 7623TIP3    H144360   2.497   2.302  16.937  1.8359 -2.7743 -1.3319
 7623TIP3    H244361   2.533   2.328  16.792  0.4961  2.1519 -0.8545
 7624TIP3   OH244362   3.157   2.356   5.055 -0.5381 -0.2888 -0.1810
 7624TIP3    H144363   3.091   2.391   4.995  1.3540  0.4245 -1.9455
 7624TIP3    H244364   3.164   2.421   5.124 -1.5158 -0.2612 -0.1052
 7625TIP3   OH244365   5.706   1.916  14.922  0.2202 -0.1302  0.6195
 7625TIP3    H144366   5.698   1.947  15.012 -1.2872  1.4770 -0.0430
 7625TIP3    H244367   5.729   1.994  14.872  1.2282 -1.0497 -0.3823
 7626TIP3   OH244368   1.680   1.147   4.290 -0.2974  0.8661  0.4153
 7626TIP3    H144369   1.758   1.199   4.309  0.3996 -0.0309  0.0513
 7626TIP3    H244370   1.696   1.063   4.334 -0.7169  0.4133 -0.2849
 7627TIP3   OH244371   1.249   5.254  15.179  0.2373 -0.3531  0.0959
 7627TIP3    H144372   1.276   5.198  15.252 -0.3878  1.4567  1.7780
 7627TIP3    H244373   1.157   5.274  15.197 -0.3251 -0.9888 -1.9443
 7628TIP3   OH244374   0.792   2.494   0.583  0.0993  0.3375  0.2630
 7628TIP3    H144375   0.826   2.444   0.656  0.9827 -0.4550 -0.6762
 7628TIP3    H244376   0.778   2.430   0.513  1.0221  1.3380 -0.8755
 7629TIP3   OH244377   2.871   1.394   1.687  0.1941  0.2194  0.6431
 7629TIP3    H144378   2.848   1.431   1.772  0.7568 -0.4666  1.0899
 7629TIP3    H244379   2.787   1.367   1.649 -0.1337  1.1670  0.6743
 7630TIP3   OH244380   6.205   2.455  12.761 -0.1279 -0.0601  0.1701
 7630TIP3    H144381   6.136   2.481  12.821  0.1092  2.2947 -0.5542
 7630TIP3    H244382   6.234   2.536  12.720  1.1563 -1.3629 -1.5918
 7631TIP3   OH244383   1.490   3.628   5.672 -0.5121 -0.1874  0.2877
 7631TIP3    H144384   1.492   3.535   5.650  1.2230 -0.1759  0.3225
 7631TIP3    H244385   1.538   3.635   5.754 -1.2580  0.6535  0.6645
 7632TIP3   OH244386   6.320   2.641  12.105  0.2783 -0.4853 -0.4026
 7632TIP3    H144387   6.317   2.553  12.068 -0.6273 -0.7909  0.3927
 7632TIP3    H244388   6.364   2.630  12.189  1.8437  0.1230 -1.1225
 7633TIP3   OH244389   4.282   2.529   5.022  0.0049 -0.4323  0.6128
 7633TIP3    H144390   4.310   2.468   5.089 -2.7271  0.1110  2.3229
 7633TIP3    H244391   4.195   2.499   4.996  0.4214  0.1934 -1.6886
 7634TIP3   OH244392   1.920   6.082  13.656  0.6197 -0.4145  0.4845
 7634TIP3    H144393   1.904   6.177  13.653  0.7766 -0.4168 -1.7711
 7634TIP3    H244394   2.015   6.074  13.651  0.7334 -0.6608  2.7517
 7635TIP3   OH244395   2.716   5.718   0.455 -0.1331  1.1211 -0.2426
 7635TIP3    H144396   2.753   5.683   0.374  1.1481 -0.3201  0.9381
 7635TIP3    H244397   2.699   5.641   0.510 -1.7830  2.0143  0.5471
 7636TIP3   OH244398   3.574   0.363  11.671 -0.2036 -0.5085 -0.0457
 7636TIP3    H144399   3.627   0.389  11.746 -2.5455  1.1700  1.0939
 7636TIP3    H244400   3.595   0.426  11.602  0.1903 -0.5921  0.0016
 7637TIP3   OH244401   3.176   5.960   1.544 -0.3658 -0.2431  0.7639
 7637TIP3    H144402   3.095   5.954   1.596 -0.7870 -1.8543 -0.0381
 7637TIP3    H244403   3.243   5.921   1.600 -0.9008 -2.3618 -0.0279
 7638TIP3   OH244404   3.353   5.846  12.338  0.0531  0.6557  0.3093
 7638TIP3    H144405   3.351   5.941  12.326  0.4739  0.5439 -0.7234
 7638TIP3    H244406   3.436   5.830  12.381  1.1741  0.5338 -1.8130
 7639TIP3   OH244407   0.263   0.863   0.617  0.4770  0.2899  0.4394
 7639TIP3    H144408   0.220   0.888   0.699 -0.0325  0.6232  0.0713
 7639TIP3    H244409   0.333   0.804   0.644 -0.7702 -0.9797  0.9577
 7640TIP3   OH244410   2.479   0.712  11.974 -0.1254  0.0544 -0.0520
 7640TIP3    H144411   2.510   0.640  11.919 -2.5833  0.2503 -1.7818
 7640TIP3    H244412   2.470   0.673  12.061  1.0761 -1.0280 -0.3934
 7641TIP3   OH244413   4.338   0.265   5.512 -0.2314 -0.0979  0.0014
 7641TIP3    H144414   4.259   0.298   5.469 -2.0821 -2.6711  1.3388
 7641TIP3    H244415   4.340   0.311   5.596 -1.8750 -2.0221  1.1399
 7642TIP3   OH244416   0.817   2.501  11.446 -0.0899  1.1035  0.0610
 7642TIP3    H144417   0.905   2.491  11.409 -0.4434  1.6070 -0.9589
 7642TIP3    H244418   0.775   2.567  11.390 -1.7449 -0.4724 -0.6184
 7643TIP3   OH244419   3.515   2.828  16.935  0.2453 -0.4205  0.1559
 7643TIP3    H144420   3.448   2.767  16.967  0.3343 -0.6253 -0.0544
 7643TIP3    H244421   3.474   2.914  16.944  0.1984 -0.4894  0.6520
 7644TIP3   OH244422   6.553   0.593  13.441  0.2594  0.4662 -0.0241
 7644TIP3    H144423   6.630   0.639  13.407  2.6221 -2.5666  1.1139
 7644TIP3    H244424   6.546   0.514  13.387 -1.2171 -0.0017  0.8233
 7645TIP3   OH244425   6.062   1.605   3.752 -0.0151 -0.4630 -0.0853
 7645TIP3    H144426   6.018   1.655   3.683  0.8154  1.3322  0.6627
 7645TIP3    H244427   5.994   1.591   3.818  0.0018  0.5591  0.1556
 7646TIP3   OH244428   0.253   3.911   4.418 -0.0550  0.6866  0.0343
 7646TIP3    H144429   0.270   3.845   4.485 -0.0349  1.4101  0.7475
 7646TIP3    H244430   0.316   3.892   4.349 -1.5200 -1.4227 -0.7650
 7647TIP3   OH244431   1.458   0.668  14.302 -0.7356 -0.4222  0.4322
 7647TIP3    H144432   1.427   0.662  14.212  1.6601  0.4568 -0.4956
 7647TIP3    H244433   1.396   0.727  14.344 -1.0315  0.3585 -1.0539
 7648TIP3   OH244434   3.438   1.865   3.437  0.6654  0.0490  0.1261
 7648TIP3    H144435   3.463   1.902   3.522  1.9507  1.1528 -0.6958
 7648TIP3    H244436   3.509   1.892   3.378 -0.0742 -0.9286 -1.2410
 7649TIP3   OH244437   3.488   0.656   5.719  0.3270  0.2535 -0.5505
 7649TIP3    H144438   3.521   0.587   5.777  1.5016 -0.3637 -1.9341
 7649TIP3    H244439   3.456   0.609   5.642 -2.3882  0.9606  0.0863
 7650TIP3   OH244440   5.790   3.465  17.067 -0.2644  0.0333  0.1122
 7650TIP3    H144441   5.709   3.491  17.022  0.5019  0.2645 -1.1808
 7650TIP3    H244442   5.848   3.437  16.996  0.9982  0.4487  0.9715
 7651TIP3   OH244443   3.402   2.697  11.663  0.0485 -0.1967 -0.6065
 7651TIP3    H144444   3.329   2.647  11.697 -1.3344  1.3127 -1.2919
 7651TIP3    H244445   3.367   2.784  11.647  1.9260  0.4955 -1.1878
 7652TIP3   OH244446   4.710   4.713  13.881 -0.0143  0.2691 -0.2283
 7652TIP3    H144447   4.761   4.768  13.940 -0.5765 -0.8189  1.2937
 7652TIP3    H244448   4.622   4.712  13.918 -0.1539 -1.1716 -0.5694
 7653TIP3   OH244449   2.549   1.328   1.297  0.1742  0.0193 -0.0976
 7653TIP3    H144450   2.507   1.265   1.355  1.7126 -1.5256 -0.5977
 7653TIP3    H244451   2.491   1.331   1.220  0.6706 -1.6823 -0.5621
 7654TIP3   OH244452   5.260   5.013   1.523 -0.2949  0.1373 -0.0580
 7654TIP3    H144453   5.203   5.087   1.504  0.2787  0.4896 -0.4497
 7654TIP3    H244454   5.243   4.991   1.614 -1.2664  0.0469 -0.2535
 7655TIP3   OH244455   6.760   5.438   2.592 -0.0623  0.3629  0.5051
 7655TIP3    H144456   6.739   5.352   2.628 -0.1418 -0.6184 -1.8347
 7655TIP3    H244457   6.838   5.466   2.642  1.4898 -2.1654 -0.3995
 7656TIP3   OH244458   0.454   0.686   0.718 -0.2847  0.4818  0.4185
 7656TIP3    H144459   0.445   0.657   0.627 -0.9388 -0.0369  0.6410
 7656TIP3    H244460   0.401   0.624   0.768 -0.3558  1.0802  1.0938
 7657TIP3   OH244461   3.628   5.073   1.678 -0.2294  0.0083  0.0709
 7657TIP3    H144462   3.625   4.978   1.683 -0.0955 -0.1573 -2.6834
 7657TIP3    H244463   3.541   5.101   1.706 -0.2595 -0.8881  0.9265
 7658TIP3   OH244464   6.726   3.641  13.053  0.7655  0.1880  0.1572
 7658TIP3    H144465   6.731   3.691  12.971 -0.2089  0.5189  0.2909
 7658TIP3    H244466   6.816   3.639  13.085  0.7482  2.3304  0.4288
 7659TIP3   OH244467   4.217   1.611   4.776 -0.0898  0.3107 -0.6450
 7659TIP3    H144468   4.134   1.649   4.805  0.0137  0.4250 -0.4946
 7659TIP3    H244469   4.282   1.650   4.835  0.0256 -0.0461 -0.5377
 7660TIP3   OH244470   4.188   4.959  16.891  0.5368  0.3703 -0.0712
 7660TIP3    H144471   4.117   5.012  16.928  0.3979  0.8743 -1.0528
 7660TIP3    H244472   4.264   5.018  16.892 -0.0327  1.2311 -2.8366
 7661TIP3   OH244473   4.371   5.199   3.992 -0.0520  0.2524 -0.1443
 7661TIP3    H144474   4.452   5.147   3.990  0.8942  1.7187 -1.8395
 7661TIP3    H244475   4.386   5.264   4.061 -0.4642 -0.4887  0.6583
 7662TIP3   OH244476   1.244   3.719   5.728  0.3136 -0.3904 -0.0841
 7662TIP3    H144477   1.333   3.715   5.695  0.2320  0.2708 -0.3832
 7662TIP3    H244478   1.249   3.678   5.815  1.7860  3.5785  1.8159
 7663TIP3   OH244479   2.714   4.659   4.443  0.4384 -0.6988  0.5420
 7663TIP3    H144480   2.744   4.569   4.430  0.3231 -0.6132 -0.3885
 7663TIP3    H244481   2.752   4.707   4.369  0.2742 -0.0401  0.8851
 7664TIP3   OH244482   3.593   1.772  11.438 -0.3469 -0.1128  0.7968
 7664TIP3    H144483   3.499   1.754  11.446 -0.4224  0.8904  2.3153
 7664TIP3    H244484   3.597   1.858  11.396 -0.1142 -0.1374  0.7695
 7665TIP3   OH244485   3.466   5.090  15.984  0.0686  0.4060 -0.1438
 7665TIP3    H144486   3.457   4.995  15.990 -2.5450  0.7870  3.0198
 7665TIP3    H244487   3.518   5.114  16.060 -0.2670  1.6318 -0.2968
 7666TIP3   OH244488   2.016   4.110  11.477 -0.4074  0.0128  0.3828
 7666TIP3    H144489   2.070   4.033  11.459 -0.4073  0.1012 -0.0037
 7666TIP3    H244490   2.037   4.133  11.568  0.6787  0.4287  0.0318
 7667TIP3   OH244491   4.963   6.157  13.969  0.1778 -0.6642  0.5830
 7667TIP3    H144492   4.878   6.131  13.932  0.1749  0.5733 -0.2945
 7667TIP3    H244493   4.946   6.168  14.062 -0.7266 -0.0346  0.3501
 7668TIP3   OH244494   5.695   2.284  13.661  0.6653 -0.2207 -0.1777
 7668TIP3    H144495   5.750   2.316  13.732  0.0038  1.5738 -0.4453
 7668TIP3    H244496   5.608   2.319  13.680 -0.0283 -1.6551 -0.6368
 7669TIP3   OH244497   2.019   4.502  14.357 -0.0596  0.5545  0.3052
 7669TIP3    H144498   2.092   4.517  14.297 -0.1975  1.2990  0.3205
 7669TIP3    H244499   2.028   4.410  14.384  1.5795  0.9808  1.2485
 7670TIP3   OH244500   4.349   6.469  16.176  0.5400  0.4950 -0.0887
 7670TIP3    H144501   4.293   6.392  16.180 -1.0807  1.6398 -0.3467
 7670TIP3    H244502   4.405   6.454  16.100  1.5881 -1.2923  0.9886
 7671TIP3   OH244503   3.715   2.745   2.266  0.4388 -0.2695  0.1369
 7671TIP3    H144504   3.711   2.649   2.263  0.4195 -0.2286 -1.3681
 7671TIP3    H244505   3.624   2.772   2.276  0.6509 -0.4560  3.1664
 7672TIP3   OH244506   5.778   5.980  10.771  0.2143  0.3167 -0.2327
 7672TIP3    H144507   5.712   6.029  10.722  0.5259 -0.5579 -1.5504
 7672TIP3    H244508   5.820   6.047  10.826 -1.0963  1.0506 -0.0985
 7673TIP3   OH244509   6.139   0.837  12.194 -0.2136 -0.3082  0.0964
 7673TIP3    H144510   6.152   0.880  12.279 -2.3070  1.0945 -0.2386
 7673TIP3    H244511   6.169   0.901  12.130 -0.9617 -0.3557 -0.3065
 7674TIP3   OH244512   6.670   3.932   0.592  0.2061  0.6282  0.2579
 7674TIP3    H144513   6.651   3.858   0.535  1.8080  0.5082 -0.1591
 7674TIP3    H244514   6.593   3.941   0.648 -0.2792 -0.9028 -0.1625
 7675TIP3   OH244515   2.987   0.612   3.187  0.4011 -0.6943 -0.4833
 7675TIP3    H144516   3.007   0.557   3.263  0.6447 -0.7199 -0.5653
 7675TIP3    H244517   2.892   0.605   3.176  0.3345 -0.5109 -0.0414
 7676TIP3   OH244518   5.339   1.330   3.488 -0.0117 -0.6074  0.0357
 7676TIP3    H144519   5.385   1.376   3.558 -0.8163  0.2641  0.0044
 7676TIP3    H244520   5.247   1.353   3.501 -0.4408 -2.3441  0.1063
 7677TIP3   OH244521   2.107   0.553  11.587  0.3096  0.5106 -0.2174
 7677TIP3    H144522   2.080   0.560  11.678 -2.0063 -2.2141 -0.6309
 7677TIP3    H244523   2.198   0.525  11.591 -0.2751 -1.2987  1.2926
 7678TIP3   OH244524   6.751   0.599   0.487 -0.0239 -0.7583  0.0369
 7678TIP3    H144525   6.720   0.565   0.403 -0.3141 -0.0339 -0.1559
 7678TIP3    H244526   6.772   0.691   0.469  1.0973 -0.9257  0.4576
 7679TIP3   OH244527   0.200   1.823   2.251 -0.0325 -0.8877 -0.6364
 7679TIP3    H144528   0.121   1.796   2.297 -0.6065  1.0969 -0.4120
 7679TIP3    H244529   0.179   1.909   2.214  2.5035  0.3604  0.6755
 7680TIP3   OH244530   6.041   0.430   4.023 -0.2605  0.0500 -0.3893
 7680TIP3    H144531   6.071   0.521   4.028 -0.4982  0.0355  1.6982
 7680TIP3    H244532   6.066   0.392   4.107  1.6299 -2.3998 -2.0215
 7681TIP3   OH244533   5.050   5.213   1.027 -0.2185 -0.0362 -0.0497
 7681TIP3    H144534   5.101   5.138   1.057 -0.7876  0.1994  1.5965
 7681TIP3    H244535   4.959   5.185   1.036 -0.4159  0.4950 -0.3850
 7682TIP3   OH244536   3.030   4.885   1.699 -0.3744 -0.7437  0.5882
 7682TIP3    H144537   2.945   4.929   1.700  0.7538  1.5050  1.1771
 7682TIP3    H244538   3.071   4.910   1.782  0.8625 -1.7994  0.3079
 7683TIP3   OH244539   1.118   3.520  17.032 -0.2693 -0.0471  0.1371
 7683TIP3    H144540   1.149   3.523  16.942  2.1374 -2.2203  0.8429
 7683TIP3    H244541   1.071   3.437  17.039  0.6003 -0.4612  1.1958
 7684TIP3   OH244542   4.061   5.228  16.435 -0.6347 -0.0005  0.5026
 7684TIP3    H144543   4.129   5.176  16.392 -0.1003  2.0002 -1.1670
 7684TIP3    H244544   3.979   5.184  16.411 -0.0839 -1.2370  0.8190
 7685TIP3   OH244545   5.026   4.026   4.453  0.9720  0.4775  0.2681
 7685TIP3    H144546   5.004   3.974   4.531  0.8356 -0.6331 -0.5011
 7685TIP3    H244547   4.989   4.112   4.471 -0.7132 -0.2980  0.6348
 7686TIP3   OH244548   6.116   0.226  16.569 -0.5490 -0.2987 -0.2944
 7686TIP3    H144549   6.186   0.287  16.547 -1.6897  0.5330 -1.7725
 7686TIP3    H244550   6.160   0.154  16.614  0.5594  2.5294  3.4276
 7687TIP3   OH244551   6.133   3.999  11.651 -0.1758  0.5682 -0.1395
 7687TIP3    H144552   6.053   3.997  11.598 -0.3508 -1.2099  0.1394
 7687TIP3    H244553   6.197   3.951  11.599  1.4555  3.9917 -1.4235
 7688TIP3   OH244554   2.558   5.323  12.877 -0.3112 -0.2565  0.0019
 7688TIP3    H144555   2.516   5.355  12.957  1.1440  0.3382  0.5402
 7688TIP3    H244556   2.538   5.390  12.812 -1.7342 -0.8777 -0.2236
 7689TIP3   OH244557   4.730   4.666  15.247 -0.4536  0.4718  0.0058
 7689TIP3    H144558   4.818   4.684  15.214 -0.2266 -0.6972 -0.0377
 7689TIP3    H244559   4.712   4.576  15.220 -2.0807  1.0433 -0.9230
 7690TIP3   OH244560   5.303   6.788   4.901  0.4184 -0.3939  0.6455
 7690TIP3    H144561   5.211   6.766   4.899  0.4090 -0.3029 -0.1396
 7690TIP3    H244562   5.306   6.873   4.944 -0.0751  0.5332 -1.0749
 7691TIP3   OH244563   2.005   6.624  13.679 -0.0489 -0.0366 -0.1782
 7691TIP3    H144564   2.007   6.684  13.605  0.3934 -0.2000 -0.2956
 7691TIP3    H244565   1.933   6.657  13.734 -0.0981  0.3341 -0.4638
 7692TIP3   OH244566   2.706   0.040  15.712  0.8898 -0.5305  0.2754
 7692TIP3    H144567   2.655  -0.026  15.665 -0.5861  0.2862  0.6953
 7692TIP3    H244568   2.672   0.037  15.801  2.9490 -1.3331  1.0476
 7693TIP3   OH244569   0.881   4.326  12.642 -0.2198 -0.1982  0.2834
 7693TIP3    H144570   0.856   4.234  12.633 -1.2297  0.0762  0.2295
 7693TIP3    H244571   0.918   4.332  12.730 -0.8010 -0.5181  0.5560
 7694TIP3   OH244572   5.540   5.567  13.695 -0.0439  0.0635  0.5191
 7694TIP3    H144573   5.486   5.646  13.701  0.7353  0.5397  1.2988
 7694TIP3    H244574   5.598   5.571  13.770  0.9220 -0.5745 -0.1770
 7695TIP3   OH244575   5.452   0.791  10.677  0.4867 -0.1866 -0.1538
 7695TIP3    H144576   5.418   0.702  10.670 -2.7834  0.6772  3.1407
 7695TIP3    H244577   5.383   0.846  10.641  0.3597  1.3347  2.3348
 7696TIP3   OH244578   4.233   4.366  15.342 -0.1600  0.1919  0.4046
 7696TIP3    H144579   4.260   4.438  15.285 -2.9440  1.3448  0.4406
 7696TIP3    H244580   4.285   4.292  15.314  0.7800  1.5440 -1.5117
 7697TIP3   OH244581   3.436   1.248  17.125 -0.3242 -0.3695  0.0036
 7697TIP3    H144582   3.510   1.218  17.073 -0.8505 -0.9856 -0.3963
 7697TIP3    H244583   3.383   1.299  17.063  0.3683  1.0760  0.5763
 7698TIP3   OH244584   6.326   2.688   0.635  0.0518  0.1247 -0.2597
 7698TIP3    H144585   6.345   2.730   0.551  0.4292  1.1667  0.3406
 7698TIP3    H244586   6.232   2.669   0.632 -0.2274  1.4981 -0.3271
 7699TIP3   OH244587   5.046   0.800  12.886 -0.4118  0.2844  0.2352
 7699TIP3    H144588   4.977   0.857  12.918 -1.9207 -2.0121  1.2026
 7699TIP3    H244589   5.051   0.729  12.950  3.7332  1.0128  0.8908
 7700TIP3   OH244590   5.220   5.622  16.367  0.1260 -0.2254  0.8411
 7700TIP3    H144591   5.236   5.527  16.360  1.6949  0.1277 -0.8390
 7700TIP3    H244592   5.170   5.643  16.288  1.5525  0.6790  0.1562
 7701TIP3   OH244593   2.615   0.685  11.397  0.1361 -0.0382 -0.1314
 7701TIP3    H144594   2.583   0.595  11.404 -2.5677  0.7268 -1.7675
 7701TIP3    H244595   2.670   0.685  11.319  0.2168 -0.2986 -0.0741
 7702TIP3   OH244596   2.158   5.888   0.922  0.1311 -0.0371  0.0709
 7702TIP3    H144597   2.142   5.876   0.829 -0.8675  0.7816  0.1363
 7702TIP3    H244598   2.254   5.892   0.929  0.2120 -0.1282 -0.9093
 7703TIP3   OH244599   6.275   4.572   2.140  0.0234 -0.4056  0.1022
 7703TIP3    H144600   6.245   4.562   2.049 -0.6220  0.5281  0.2108
 7703TIP3    H244601   6.207   4.625   2.182  1.6588  1.4573  0.4406
 7704TIP3   OH244602   5.073   2.077  12.519 -0.2586  0.1367 -0.1031
 7704TIP3    H144603   4.983   2.059  12.491  0.0169  1.1580 -1.7060
 7704TIP3    H244604   5.090   2.167  12.489  1.7492 -0.5251 -1.0137
 7705TIP3   OH244605   0.401   5.281   2.554  0.1774 -0.1813 -0.1466
 7705TIP3    H144606   0.492   5.258   2.574  0.2034  0.7661  0.9135
 7705TIP3    H244607   0.407   5.358   2.498  0.0325  0.0637  0.1699
 7706TIP3   OH244608   4.441   6.675  13.785  0.8677 -0.6424 -0.5073
 7706TIP3    H144609   4.513   6.618  13.812 -0.2615 -1.5662  0.5677
 7706TIP3    H244610   4.464   6.761  13.820  0.8611 -1.1916  0.8564
 7707TIP3   OH244611   3.960   3.538  14.356 -0.5231 -0.0790  0.2838
 7707TIP3    H144612   4.000   3.614  14.397  2.0044 -0.4563 -1.3398
 7707TIP3    H244613   3.927   3.485  14.429 -0.1150  1.3799  1.5458
 7708TIP3   OH244614   4.402   5.012   4.578  0.3186 -0.6083  0.0858
 7708TIP3    H144615   4.334   4.951   4.609  2.5854 -1.8596  2.7717
 7708TIP3    H244616   4.421   5.067   4.653  0.4262  1.5235 -1.4599
 7709TIP3   OH244617   6.167   3.308   4.562  0.0425 -0.6078  0.0977
 7709TIP3    H144618   6.231   3.238   4.578 -0.5301 -1.1692 -0.0631
 7709TIP3    H244619   6.096   3.265   4.514  0.0703  0.2640 -0.7520
 7710TIP3   OH244620   3.913   5.549   2.257  0.4236 -0.0848  0.1465
 7710TIP3    H144621   3.838   5.586   2.303  0.1797 -1.1086  0.5764
 7710TIP3    H244622   3.986   5.608   2.276 -0.0933  0.4682  0.3797
 7711TIP3   OH244623   3.589   2.899  10.652 -0.4261  0.6298  0.4026
 7711TIP3    H144624   3.645   2.822  10.658  0.6258  1.3924  0.5515
 7711TIP3    H244625   3.582   2.931  10.742 -3.1662 -0.8839  0.7861
 7712TIP3   OH244626   4.242   1.359  11.547 -0.2733 -0.2181 -0.0616
 7712TIP3    H144627   4.312   1.373  11.611  0.1084  0.0583 -0.5394
 7712TIP3    H244628   4.279   1.299  11.483 -0.2979  0.3236 -0.5905
 7713TIP3   OH244629   6.724   6.336  13.297  0.8076  0.3219  0.2881
 7713TIP3    H144630   6.699   6.320  13.388  0.3439 -0.1233  0.0827
 7713TIP3    H244631   6.669   6.276  13.246  0.5014  1.1379 -0.3468
 7714TIP3   OH244632   5.188   0.763  16.761  0.5086 -0.1381  0.6039
 7714TIP3    H144633   5.164   0.853  16.782 -1.0284 -0.4959  0.4481
 7714TIP3    H244634   5.277   0.769  16.727 -0.4198  1.6202 -1.6553
 7715TIP3   OH244635   4.112   5.552  17.113  0.5005 -0.6393 -0.0450
 7715TIP3    H144636   4.193   5.583  17.155  0.1634 -0.4622  0.4822
 7715TIP3    H244637   4.057   5.524  17.186  0.6396 -2.1179 -0.4760
 7716TIP3   OH244638   3.946   2.672   3.479 -0.3216  0.7335 -0.2092
 7716TIP3    H144639   3.945   2.715   3.564  0.5160 -0.4903  0.4390
 7716TIP3    H244640   4.038   2.673   3.452 -0.1786 -1.1037  0.0869
 7717TIP3   OH244641   1.686   5.084   4.506  0.0383  0.1997  0.5665
 7717TIP3    H144642   1.635   5.131   4.439  1.7002 -0.6184 -1.3372
 7717TIP3    H244643   1.622   5.032   4.553 -0.8839 -1.2151 -2.1240
 7718TIP3   OH244644   2.238   2.964   2.339 -0.2436  0.0551  0.3563
 7718TIP3    H144645   2.152   2.983   2.300 -0.0966 -1.2758 -0.6104
 7718TIP3    H244646   2.264   2.880   2.302  1.7008  0.6595  0.2808
 7719TIP3   OH244647   6.054   2.320   3.110  0.2985  0.2132  0.6524
 7719TIP3    H144648   6.101   2.339   3.029  0.8583  0.2305  0.9847
 7719TIP3    H244649   6.064   2.399   3.163  1.4119 -0.4531  1.4461
 7720TIP3   OH244650   0.119   3.321   0.705  0.3822 -0.5708  0.4921
 7720TIP3    H144651   0.041   3.317   0.760 -0.1390 -0.5243 -0.2406
 7720TIP3    H244652   0.111   3.246   0.646  0.8141 -0.4759  0.3116
 7721TIP3   OH244653   3.290   2.207  14.382 -0.2337 -0.2366  0.1937
 7721TIP3    H144654   3.289   2.128  14.435 -0.6157 -0.4397 -0.1233
 7721TIP3    H244655   3.328   2.181  14.299  2.0255  0.4567  0.9547
 7722TIP3   OH244656   5.087   1.678  16.733 -0.2493 -0.2259  0.2045
 7722TIP3    H144657   5.131   1.592  16.738  1.2420  0.6124  1.8287
 7722TIP3    H244658   5.145   1.730  16.677 -0.3588  0.2096  0.5054
 7723TIP3   OH244659   1.023   1.927  14.852  0.1551 -0.4633  0.2495
 7723TIP3    H144660   0.968   1.857  14.815 -1.7881  1.1577 -0.0073
 7723TIP3    H244661   1.062   1.888  14.930  0.0202 -2.1988 -0.5142
 7724TIP3   OH244662   6.370   5.244  16.277  0.0608  0.1605 -0.2199
 7724TIP3    H144663   6.445   5.186  16.274  0.3600  0.4986  0.4995
 7724TIP3    H244664   6.387   5.310  16.209  0.0079 -0.2455 -0.6286
 7725TIP3   OH244665   5.732   5.184  10.879 -0.7025 -0.3831  0.2429
 7725TIP3    H144666   5.804   5.148  10.829 -1.5847 -2.3359  0.3265
 7725TIP3    H244667   5.655   5.172  10.823 -1.1257  0.6913  0.5830
 7726TIP3   OH244668   2.668   1.491   2.329  1.0116  0.2510 -0.0697
 7726TIP3    H144669   2.734   1.495   2.398  1.1509  0.5184 -0.2180
 7726TIP3    H244670   2.584   1.492   2.375  1.1122 -0.2633  0.1268
 7727TIP3   OH244671   1.122   1.519   6.018 -0.4111  0.1418 -0.0717
 7727TIP3    H144672   1.208   1.557   6.036 -0.7616  1.5309 -1.2970
 7727TIP3    H244673   1.140   1.450   5.954  0.1498 -1.4343  1.7469
 7728TIP3   OH244674   1.310   0.301   2.922  0.0770 -0.0639 -0.0020
 7728TIP3    H144675   1.232   0.292   2.867  0.8443  1.8525 -1.4609
 7728TIP3    H244676   1.277   0.329   3.007 -0.8984 -0.3393 -0.2792
 7729TIP3   OH244677   5.524   5.628   3.135 -0.1728  0.0973  0.1941
 7729TIP3    H144678   5.490   5.640   3.046  2.4105 -1.9263 -1.1318
 7729TIP3    H244679   5.537   5.717   3.168 -1.3386  0.8755 -1.3718
 7730TIP3   OH244680   4.435   3.390   4.422  0.3205  0.2889  0.2827
 7730TIP3    H144681   4.505   3.329   4.445  0.7136  0.3647 -0.7041
 7730TIP3    H244682   4.464   3.431   4.341 -0.9793  0.1415 -0.2787
 7731TIP3   OH244683   4.137   0.706   4.467  0.2798  0.6101  0.0653
 7731TIP3    H144684   4.115   0.799   4.463 -0.6552  0.4353  0.9282
 7731TIP3    H244685   4.226   0.701   4.433 -0.3100  1.5836 -1.6791
 7732TIP3   OH244686   4.229   2.497   5.358  0.8741 -0.3397 -0.3848
 7732TIP3    H144687   4.308   2.550   5.364 -0.4771  1.7653 -0.4940
 7732TIP3    H244688   4.184   2.511   5.441 -0.4828  0.3422 -1.2109
 7733TIP3   OH244689   5.511   5.808  15.120  0.0713  0.1969  0.1766
 7733TIP3    H144690   5.589   5.775  15.076  1.2345  1.0643  1.5465
 7733TIP3    H244691   5.509   5.901  15.098 -0.8210  0.0879 -0.2098
 7734TIP3   OH244692   3.889   3.542  16.079 -0.5357 -0.0340  0.1136
 7734TIP3    H144693   3.974   3.498  16.085 -0.3218  0.4010  0.3316
 7734TIP3    H244694   3.894   3.611  16.146 -1.0852 -0.0526  0.1721
 7735TIP3   OH244695   0.126   3.169  13.839 -0.1111  0.4628 -1.0251
 7735TIP3    H144696   0.033   3.192  13.830 -0.0247  1.2237  0.0505
 7735TIP3    H244697   0.169   3.249  13.867  0.6815 -0.2073 -0.2911
 7736TIP3   OH244698   6.547   0.971   3.375  0.4984 -0.6180 -0.3756
 7736TIP3    H144699   6.596   0.990   3.454 -1.2022  0.8819  0.3563
 7736TIP3    H244700   6.483   0.904   3.401 -0.3847  0.2257 -0.3396
 7737TIP3   OH244701   5.230   6.729  14.885  0.4942 -0.8463  0.2538
 7737TIP3    H144702   5.148   6.680  14.874  0.5816 -0.5597 -2.0334
 7737TIP3    H244703   5.203   6.811  14.927 -0.3645 -0.8935 -0.1872
 7738TIP3   OH244704   5.269   0.977   2.969 -0.2488 -0.0565  0.5323
 7738TIP3    H144705   5.290   1.054   3.021  0.0656 -1.0679  1.9427
 7738TIP3    H244706   5.355   0.942   2.943 -0.2922 -1.2730  1.9380
 7739TIP3   OH244707   2.308   1.711   5.551 -0.2850  0.1585 -0.0892
 7739TIP3    H144708   2.330   1.640   5.492 -0.8217  0.5936 -0.8107
 7739TIP3    H244709   2.234   1.756   5.510 -1.7492 -0.5236  1.6925
 7740TIP3   OH244710   4.331   4.668   1.468 -0.6103 -0.8615 -0.2149
 7740TIP3    H144711   4.377   4.736   1.516 -3.4577  0.3082  0.9630
 7740TIP3    H244712   4.394   4.638   1.402  1.2715  1.6902  0.3594
 7741TIP3   OH244713   2.001   1.091   3.641 -0.3251 -0.7319  0.0089
 7741TIP3    H144714   2.034   1.161   3.585  0.6682 -0.5475  0.8049
 7741TIP3    H244715   2.076   1.033   3.653 -0.7371 -1.1518  0.5523
 7742TIP3   OH244716   1.932   4.620  12.284 -0.0768  0.3862  0.2070
 7742TIP3    H144717   1.984   4.684  12.333 -0.1376  1.5486 -1.2141
 7742TIP3    H244718   1.841   4.649  12.294 -0.1396  0.3011 -0.0931
 7743TIP3   OH244719   6.620   5.266   2.818  0.2854  0.1855 -0.4016
 7743TIP3    H144720   6.690   5.258   2.882  1.0664 -1.4192 -1.4408
 7743TIP3    H244721   6.593   5.176   2.799 -0.5235  0.6745 -1.6766
 7744TIP3   OH244722   5.662   4.625   2.926  0.2704 -0.4216 -0.2120
 7744TIP3    H144723   5.699   4.696   2.873 -0.2446 -0.8814 -1.2103
 7744TIP3    H244724   5.632   4.560   2.861 -0.6479 -0.8588  0.6324
 7745TIP3   OH244725   4.083   4.144   5.997  0.2754  0.6087 -0.2601
 7745TIP3    H144726   4.157   4.130   5.938  1.3156  0.5667  1.0319
 7745TIP3    H244727   4.096   4.081   6.068 -1.6133 -0.1675 -0.5803
 7746TIP3   OH244728   2.536   5.653  15.717 -0.0632  0.1863 -0.2272
 7746TIP3    H144729   2.533   5.737  15.764 -0.7914 -0.6230  1.1909
 7746TIP3    H244730   2.518   5.677  15.626  0.4588  1.6651  0.0397
 7747TIP3   OH244731   3.910   3.565  11.766  0.1769 -0.2052 -0.4577
 7747TIP3    H144732   3.954   3.593  11.685  1.8697 -1.6253 -0.0538
 7747TIP3    H244733   3.830   3.523  11.736  0.0318  0.6422 -1.3122
 7748TIP3   OH244734   1.101   3.551   2.154  0.0130 -0.3388 -0.3111
 7748TIP3    H144735   1.179   3.517   2.110  0.4685  0.5592 -0.2172
 7748TIP3    H244736   1.118   3.645   2.162 -1.4524  0.0046 -1.0738
 7749TIP3   OH244737   0.380   5.044  16.729  0.4845 -0.6437  0.6850
 7749TIP3    H144738   0.475   5.044  16.741  0.7632 -0.1013 -1.2998
 7749TIP3    H244739   0.367   5.082  16.642 -1.5873 -0.1464  1.1897
 7750TIP3   OH244740   6.264   3.287   4.126  0.0995  0.0247 -0.4676
 7750TIP3    H144741   6.200   3.286   4.055  0.1757  0.1603 -0.5382
 7750TIP3    H244742   6.328   3.221   4.100 -0.5721 -0.8704  0.1186
 7751TIP3   OH244743   1.444   3.346  14.949 -0.0783  0.3268 -0.2781
 7751TIP3    H144744   1.494   3.305  15.019  0.5317 -0.3791 -1.1122
 7751TIP3    H244745   1.493   3.425  14.926  1.0474 -0.7384 -1.5793
 7752TIP3   OH244746   1.372   5.283  12.793  0.2083 -0.2142  0.0276
 7752TIP3    H144747   1.442   5.348  12.793  1.9602 -2.0382 -0.4167
 7752TIP3    H244748   1.356   5.263  12.701 -2.2383  1.5460  0.0348
 7753TIP3   OH244749   6.711   4.503   4.515  0.0376  0.3014  0.2911
 7753TIP3    H144750   6.728   4.503   4.421 -0.5495  0.9142  0.1784
 7753TIP3    H244751   6.798   4.514   4.555  0.1409  1.3663 -0.2165
 7754TIP3   OH244752   0.666   6.190   3.959  0.1680  0.2866 -0.2829
 7754TIP3    H144753   0.592   6.249   3.953  0.8774  1.1635 -0.6272
 7754TIP3    H244754   0.640   6.124   4.023 -0.4350  1.2625  0.4930
 7755TIP3   OH244755   3.165   5.679  10.555  0.1158 -0.6172  0.0696
 7755TIP3    H144756   3.105   5.628  10.609  2.1947 -0.4145  2.6415
 7755TIP3    H244757   3.242   5.624  10.546  0.9640  0.5951 -0.1558
 7756TIP3   OH244758   6.335   4.096   6.034  0.2383  0.4387 -0.2002
 7756TIP3    H144759   6.296   4.116   5.948 -1.5514  0.4545  0.5793
 7756TIP3    H244760   6.328   4.178   6.083 -0.2695 -0.0141  0.4986
 7757TIP3   OH244761   3.847   4.045   0.868 -0.3471  0.1949  0.7521
 7757TIP3    H144762   3.785   4.010   0.933 -1.0732 -2.7558 -1.3800
 7757TIP3    H244763   3.929   4.001   0.888  0.2717  1.7124  1.6129
 7758TIP3   OH244764   0.371   6.364   2.326  0.1251  0.7317 -0.5376
 7758TIP3    H144765   0.314   6.332   2.256  0.6920 -3.2087  0.6781
 7758TIP3    H244766   0.315   6.420   2.380 -1.6628 -0.3341 -1.2644
 7759TIP3   OH244767   1.164   3.444   1.826  0.5881 -1.0078  0.0245
 7759TIP3    H144768   1.077   3.435   1.786  0.7789 -0.7999 -0.4388
 7759TIP3    H244769   1.173   3.365   1.880  0.0755 -0.9859  0.1490
 7760TIP3   OH244770   5.690   3.900   6.099 -0.3511 -0.2836 -0.4714
 7760TIP3    H144771   5.686   3.911   6.195 -2.6774  0.8607 -0.6434
 7760TIP3    H244772   5.773   3.939   6.074  0.0971 -0.2076  1.0386
 7761TIP3   OH244773   2.120   5.076   3.707 -0.2814 -0.4697 -0.3282
 7761TIP3    H144774   2.199   5.076   3.760 -0.8749  0.9666  0.5801
 7761TIP3    H244775   2.058   5.020   3.755 -0.4568 -0.0401 -0.0500
 7762TIP3   OH244776   1.473   4.806  15.490  0.4324  0.8429 -0.7748
 7762TIP3    H144777   1.562   4.785  15.461  0.8494  0.3085  0.8277
 7762TIP3    H244778   1.416   4.756  15.431  1.2300  0.4083 -1.1807
 7763TIP3   OH244779   3.052   4.355  16.628  0.6428  0.0185  0.1879
 7763TIP3    H144780   2.976   4.334  16.574  1.2874 -1.6483 -0.1127
 7763TIP3    H244781   3.030   4.319  16.714  2.0399 -2.5962 -0.5011
 7764TIP3   OH244782   3.531   1.367   0.089 -0.6379 -0.0493 -0.2008
 7764TIP3    H144783   3.459   1.304   0.085 -1.3604  0.8149 -1.0544
 7764TIP3    H244784   3.595   1.335   0.025 -1.0915  0.1876 -0.7761
 7765TIP3   OH244785   5.769   1.828  15.519  0.1828  0.2338  0.8068
 7765TIP3    H144786   5.724   1.909  15.494  0.9830  1.0833  2.0715
 7765TIP3    H244787   5.855   1.835  15.476  1.0469  1.0646  2.5844
 7766TIP3   OH244788   6.452   3.739  12.838 -0.2726 -0.0967  0.2350
 7766TIP3    H144789   6.546   3.730  12.852 -0.5911 -0.6971  2.1797
 7766TIP3    H244790   6.423   3.650  12.816 -0.2950  0.2171 -1.0425
 7767TIP3   OH244791   5.644   4.182  15.801 -1.0172 -0.1370  0.6324
 7767TIP3    H144792   5.733   4.178  15.836 -1.1551 -0.2702  0.9683
 7767TIP3    H244793   5.645   4.125  15.724 -0.2629  1.4788 -0.5764
 7768TIP3   OH244794   3.779   6.601   5.950  0.1509 -0.0715  0.1371
 7768TIP3    H144795   3.855   6.596   5.892 -0.4101  1.7313 -0.7840
 7768TIP3    H244796   3.732   6.518   5.935  2.0540 -1.3404  0.9360
 7769TIP3   OH244797   1.118   0.806   5.017  0.0704 -0.0490 -0.0099
 7769TIP3    H144798   1.031   0.846   5.010  0.2194  0.7941  2.3369
 7769TIP3    H244799   1.101   0.715   5.041 -0.2191 -0.9469 -3.3785
 7770TIP3   OH244800   2.637   2.170  16.079  0.3722  0.1549 -0.2190
 7770TIP3    H144801   2.612   2.262  16.085  0.4221  0.1006  0.9539
 7770TIP3    H244802   2.726   2.167  16.114  1.1447 -0.0396 -2.1041
 7771TIP3   OH244803   0.383   1.667  15.300  0.1527  0.0821 -0.6376
 7771TIP3    H144804   0.364   1.693  15.390 -0.5208  0.6507 -0.9397
 7771TIP3    H244805   0.476   1.688  15.289 -0.0811  1.2566 -0.4840
 7772TIP3   OH244806   4.531   4.002  11.900  0.3768 -0.2803 -0.0702
 7772TIP3    H144807   4.500   4.064  11.834 -0.4957 -2.0346 -1.3679
 7772TIP3    H244808   4.566   4.057  11.971 -0.8591  1.6635 -0.9254
 7773TIP3   OH244809   1.817   1.163  16.049 -0.0123  0.9081 -0.0143
 7773TIP3    H144810   1.804   1.240  16.104 -0.3032  1.1394 -0.4039
 7773TIP3    H244811   1.815   1.197  15.960 -0.6072  0.3785 -0.2012
 7774TIP3   OH244812   5.155   0.973   0.697  0.2032  0.1356 -0.0109
 7774TIP3    H144813   5.153   0.878   0.705  0.7129  0.1590  0.4389
 7774TIP3    H244814   5.123   0.991   0.609  1.4933 -0.5179 -0.6196
 7775TIP3   OH244815   2.618   2.697  12.030  0.2469  0.1341  0.0487
 7775TIP3    H144816   2.677   2.731  11.963 -0.2959 -0.6570 -0.8417
 7775TIP3    H244817   2.674   2.645  12.087  0.9925  2.0969  1.1295
 7776TIP3   OH244818   1.014   0.478   0.647 -0.4386 -0.1574 -0.1361
 7776TIP3    H144819   0.963   0.558   0.631 -0.3367 -0.1636 -0.4843
 7776TIP3    H244820   1.094   0.509   0.688  0.3832  0.0924 -1.8880
 7777TIP3   OH244821   2.537   1.305   0.651  0.1168 -0.4183 -0.3866
 7777TIP3    H144822   2.462   1.364   0.651 -0.4738 -1.1126 -2.4063
 7777TIP3    H244823   2.532   1.260   0.735 -2.0485 -0.8033 -0.6748
 7778TIP3   OH244824   0.432   2.343  15.096 -0.0291 -0.1389 -0.1690
 7778TIP3    H144825   0.396   2.316  15.181  2.7792  2.8884  2.1353
 7778TIP3    H244826   0.385   2.423  15.074  1.4940  0.8829  0.2035
 7779TIP3   OH244827   5.147   2.124  15.927  0.0796  0.1749 -0.2400
 7779TIP3    H144828   5.135   2.182  15.851 -2.3833 -0.2457 -0.2167
 7779TIP3    H244829   5.112   2.173  16.001  0.7648 -0.1586  0.3165
 7780TIP3   OH244830   1.279   1.591  16.984 -0.1900 -0.2118  0.3564
 7780TIP3    H144831   1.312   1.627  17.066  0.7899 -0.8345  0.2384
 7780TIP3    H244832   1.354   1.545  16.946 -1.4372 -2.4347  0.5395
 7781TIP3   OH244833   3.770   0.366   0.081 -0.4958  0.3659 -0.1316
 7781TIP3    H144834   3.783   0.461   0.086  1.3337  0.1334 -0.1586
 7781TIP3    H244835   3.858   0.330   0.065 -0.9467 -1.4142  1.1921
 7782TIP3   OH244836   1.340   2.342   5.338 -0.0819  0.5645  0.0637
 7782TIP3    H144837   1.410   2.392   5.296  0.1635  1.1487  1.1487
 7782TIP3    H244838   1.281   2.318   5.266  1.9356 -1.1129 -1.0713
 7783TIP3   OH244839   5.448   5.038  15.833 -0.3587  0.2119  0.3507
 7783TIP3    H144840   5.476   5.082  15.913 -1.1487  0.5216  0.4621
 7783TIP3    H244841   5.471   5.099  15.763 -0.8653  0.5248  0.4529
 7784TIP3   OH244842   4.756   2.139   5.763 -0.1729 -0.3724  0.1249
 7784TIP3    H144843   4.735   2.099   5.848 -0.6473  1.6062  0.9570
 7784TIP3    H244844   4.670   2.154   5.723  0.0271 -0.6306 -0.3956
 7785TIP3   OH244845   1.913   2.780   2.249 -0.4330 -0.4846  0.3699
 7785TIP3    H144846   1.836   2.826   2.215 -1.4366 -2.2876  0.1358
 7785TIP3    H244847   1.983   2.845   2.248 -1.7200  0.8999 -0.3519
 7786TIP3   OH244848   2.911   5.508  16.338  0.1656  0.3234 -0.6512
 7786TIP3    H144849   2.987   5.565  16.335 -0.2583  0.8503 -1.2774
 7786TIP3    H244850   2.886   5.495  16.247 -0.8984  0.6953 -0.4197
 7787TIP3   OH244851   2.151   1.734   4.104 -0.2559 -0.3307 -0.1579
 7787TIP3    H144852   2.075   1.791   4.116  0.1299 -0.0004  0.7668
 7787TIP3    H244853   2.173   1.704   4.192 -0.3164 -1.7485 -0.6074
 7788TIP3   OH244854   0.434   3.877   4.208  0.1090  0.2026  0.2792
 7788TIP3    H144855   0.435   3.891   4.113 -1.2499  0.4394  0.2824
 7788TIP3    H244856   0.509   3.821   4.225  0.4207  0.2334 -0.9290
 7789TIP3   OH244857   0.968   1.094  15.620 -0.3345 -0.2093 -0.6223
 7789TIP3    H144858   0.962   1.030  15.549 -1.6755  1.2482 -1.8588
 7789TIP3    H244859   1.040   1.152  15.594 -0.8084  0.3080 -0.8029
 7790TIP3   OH244860   0.274   1.302  16.512  0.8634  0.7205  0.0524
 7790TIP3    H144861   0.355   1.344  16.485 -0.4099  2.2674 -1.4698
 7790TIP3    H244862   0.220   1.373  16.546 -0.1051 -0.1843  0.4562
 7791TIP3   OH244863   0.151   1.553   5.702 -0.1083 -0.0702  0.6731
 7791TIP3    H144864   0.154   1.493   5.627 -1.6832 -1.5230  1.7417
 7791TIP3    H244865   0.141   1.639   5.663  2.1230 -0.4638 -0.8958
 7792TIP3   OH244866   0.781   2.486   3.763 -0.2710  0.4151  0.0789
 7792TIP3    H144867   0.772   2.402   3.718  0.5849  0.0967  0.4800
 7792TIP3    H244868   0.822   2.463   3.847  2.4312  1.5292 -0.8947
 7793TIP3   OH244869   6.413   3.338   0.064 -0.5233 -0.1828  0.2779
 7793TIP3    H144870   6.353   3.308  -0.003 -1.0170  0.3709  0.4658
 7793TIP3    H244871   6.371   3.416   0.100  0.7265  0.7118 -0.1886
 7794TIP3   OH244872   3.004   3.108   0.755 -0.0289 -0.0724 -0.1514
 7794TIP3    H144873   2.946   3.111   0.680 -1.2971  1.2488  0.8632
 7794TIP3    H244874   3.076   3.168   0.733  0.3673 -0.8238 -0.9167
 7795TIP3   OH244875   3.284   6.598  15.490 -0.1363 -0.1478  0.6041
 7795TIP3    H144876   3.333   6.668  15.534 -0.5986  1.2896 -1.1007
 7795TIP3    H244877   3.232   6.644  15.424 -1.8741 -1.9329  0.7151
 7796TIP3   OH244878   6.036   5.386  14.072  0.0034  0.1352 -0.2591
 7796TIP3    H144879   6.044   5.478  14.100  1.4685 -0.0394 -0.0471
 7796TIP3    H244880   6.028   5.337  14.154  0.6554 -0.0423 -0.2931
 7797TIP3   OH244881   6.020   5.905  12.488  0.0468  0.5081  0.7071
 7797TIP3    H144882   6.112   5.887  12.470  0.1781  1.5677  0.2717
 7797TIP3    H244883   6.019   5.993  12.526 -0.8471  0.8300 -0.0241
 7798TIP3   OH244884   6.386   4.978  12.029  0.2601 -0.2612  0.5441
 7798TIP3    H144885   6.383   4.984  12.124 -0.3987  2.4662  0.4084
 7798TIP3    H244886   6.457   4.917  12.010  2.9238  2.0062  2.7409
 7799TIP3   OH244887   6.609   6.469  14.717  0.4065  0.2044 -0.1691
 7799TIP3    H144888   6.598   6.405  14.787  0.6156  0.3494 -0.0005
 7799TIP3    H244889   6.700   6.499  14.727 -0.0730  1.4555  0.5483
 7800TIP3   OH244890   3.826   1.112  14.100  0.2385 -0.4051  0.2180
 7800TIP3    H144891   3.803   1.062  14.022  2.4434  1.1246 -1.4956
 7800TIP3    H244892   3.770   1.190  14.097 -0.5925 -0.9712  0.8816
 7801TIP3   OH244893   1.167   0.162   3.279 -0.2632  0.6081 -0.6128
 7801TIP3    H144894   1.262   0.147   3.276 -0.0271  1.4705  1.4427
 7801TIP3    H244895   1.129   0.075   3.283  0.3994  0.2279 -2.3395
 7802TIP3   OH244896   6.636   0.535   2.641 -0.4642  0.0101  0.3727
 7802TIP3    H144897   6.676   0.596   2.703  2.3512 -2.5511  1.1608
 7802TIP3    H244898   6.643   0.579   2.556 -1.4752  2.1614  1.3452
 7803TIP3   OH244899   2.581   4.382  17.058 -0.2615 -0.0061  0.0512
 7803TIP3    H144900   2.569   4.323  17.132  0.7588 -1.6787 -1.0776
 7803TIP3    H244901   2.614   4.463  17.097  0.9555 -1.1069  1.3802
 7804TIP3   OH244902   0.744   6.289  14.250  0.0918  0.0510  0.4298
 7804TIP3    H144903   0.753   6.241  14.332  1.1505 -0.2581  0.1342
 7804TIP3    H244904   0.655   6.325  14.253  0.1825  0.1811  1.7854
 7805TIP3   OH244905   4.008   2.729   4.694  0.0606  0.7177 -0.1075
 7805TIP3    H144906   4.012   2.634   4.682 -0.1990  1.0980 -3.7911
 7805TIP3    H244907   3.974   2.741   4.783 -2.2230 -2.6460 -0.4487
 7806TIP3   OH244908   2.451   1.026  15.775 -0.5351  0.2937 -0.3281
 7806TIP3    H144909   2.373   0.973  15.792 -0.7519  0.3680 -1.0533
 7806TIP3    H244910   2.515   0.965  15.740  0.7282 -0.3185  2.8855
 7807TIP3   OH244911   4.929   2.704   4.594 -0.3924  0.0047  0.1665
 7807TIP3    H144912   5.001   2.738   4.648 -0.5006  0.6660 -0.0961
 7807TIP3    H244913   4.945   2.610   4.589  0.5238  0.1574  0.0173
 7808TIP3   OH244914   5.690   6.803   0.334 -0.5685  0.3720  0.1548
 7808TIP3    H144915   5.605   6.784   0.374 -1.8808  1.2261 -2.1104
 7808TIP3    H244916   5.671   6.870   0.268  1.3793 -1.4689 -2.3832
 7809TIP3   OH244917   4.733   6.715  13.993 -0.1367 -0.0011  0.0228
 7809TIP3    H144918   4.681   6.651  13.944  0.0229 -1.7549  2.0642
 7809TIP3    H244919   4.823   6.685  13.985  0.2206  1.2267 -0.8102
 7810TIP3   OH244920   3.464   2.752   3.838 -0.4880 -0.0654 -0.4810
 7810TIP3    H144921   3.432   2.812   3.906  0.1182 -1.5114  1.0921
 7810TIP3    H244922   3.515   2.687   3.885 -0.4417 -1.3595 -2.2763
 7811TIP3   OH244923   0.939   4.416  16.546  0.0522  0.1617  0.3895
 7811TIP3    H144924   0.923   4.470  16.624  1.5866  1.2920 -0.0487
 7811TIP3    H244925   0.912   4.472  16.473  5.0770  1.9216 -0.3380
 7812TIP3   OH244926   3.929   4.392  11.591  0.1714  0.5158  0.6393
 7812TIP3    H144927   3.907   4.337  11.666 -0.0150  0.6511  0.6858
 7812TIP3    H244928   4.016   4.363  11.564 -1.1706 -1.9767 -1.2817
 7813TIP3   OH244929   4.629   6.149  16.436  0.2939  0.2612  0.7297
 7813TIP3    H144930   4.586   6.065  16.419 -0.2996  0.7617 -0.3208
 7813TIP3    H244931   4.720   6.127  16.451  0.1212 -0.5901  0.5425
 7814TIP3   OH244932   5.147   4.299  15.510  0.1762 -0.3964  0.3668
 7814TIP3    H144933   5.155   4.388  15.475 -0.0322  0.2698  1.9693
 7814TIP3    H244934   5.151   4.310  15.605 -2.0387 -1.8865  0.6592
 7815TIP3   OH244935   4.199   5.496   1.502  0.1167 -0.0932 -0.3553
 7815TIP3    H144936   4.207   5.458   1.414  1.9911 -2.1415  0.6636
 7815TIP3    H244937   4.149   5.431   1.552  0.1457  0.4890  0.4447
 7816TIP3   OH244938   5.265   0.486   4.646 -0.1166  0.7470 -0.4710
 7816TIP3    H144939   5.306   0.568   4.671 -0.4299  1.4149 -2.0808
 7816TIP3    H244940   5.176   0.510   4.619  0.1320  0.0409 -1.9712
 7817TIP3   OH244941   1.049   0.612  12.096  0.4406  0.2082  0.0390
 7817TIP3    H144942   1.141   0.605  12.122  0.2321 -1.3023  0.4314
 7817TIP3    H244943   1.021   0.697  12.129  2.8066  2.5461 -3.6618
 7818TIP3   OH244944   0.183   5.451  14.496  0.0529  0.0070  0.1508
 7818TIP3    H144945   0.114   5.444  14.429 -0.3591  0.5451  0.5147
 7818TIP3    H244946   0.137   5.479  14.575  0.4235 -1.3608  0.8664
 7819TIP3   OH244947   5.975   2.860  15.820  0.0899  0.0121  0.0480
 7819TIP3    H144948   5.900   2.861  15.879 -0.3858  1.0744 -0.5404
 7819TIP3    H244949   6.039   2.918  15.862  1.7861 -3.1466  2.0050
 7820TIP3   OH244950   5.107   1.660  15.172 -0.0654  0.5960 -0.0413
 7820TIP3    H144951   5.113   1.738  15.118 -0.7867 -0.4548 -1.6713
 7820TIP3    H244952   5.020   1.624  15.153 -0.0227 -0.2209  1.2236
 7821TIP3   OH244953   3.274   4.151  12.397 -0.1305  0.2003  0.0083
 7821TIP3    H144954   3.347   4.180  12.450 -1.2449  0.9100  1.1818
 7821TIP3    H244955   3.313   4.095  12.329  1.2706 -0.9746  1.7491
 7822TIP3   OH244956   2.406   0.719  16.881  0.2248 -0.5572  0.5885
 7822TIP3    H144957   2.383   0.753  16.794 -0.1327  1.8433  1.5749
 7822TIP3    H244958   2.324   0.689  16.918 -0.1468  1.2715  1.2780
 7823TIP3   OH244959   5.650   3.760  14.151 -0.9585  0.1384 -0.5384
 7823TIP3    H144960   5.659   3.849  14.116  0.1122  0.7524  1.2173
 7823TIP3    H244961   5.684   3.766  14.240 -1.1026 -1.9952 -0.3129
 7824TIP3   OH244962   2.889   5.380  16.579  0.1667 -0.2254  0.0910
 7824TIP3    H144963   2.930   5.427  16.650  1.5617 -0.1135 -0.7781
 7824TIP3    H244964   2.908   5.432  16.501 -0.5036 -0.8578 -0.5086
 7825TIP3   OH244965   3.702   4.712  11.855  0.3483 -0.4446  0.2528
 7825TIP3    H144966   3.692   4.719  11.760 -2.1335  0.6981  0.5365
 7825TIP3    H244967   3.792   4.684  11.869  0.7521 -0.5488 -2.4359
 7826TIP3   OH244968   2.680   4.662  15.533  0.6390  0.1652 -0.4145
 7826TIP3    H144969   2.607   4.620  15.487  1.4568  0.4036 -1.9929
 7826TIP3    H244970   2.667   4.639  15.625 -1.4227  0.2019 -0.6590
 7827TIP3   OH244971   1.567   0.873   1.499  0.1388 -0.2049  0.1373
 7827TIP3    H144972   1.513   0.797   1.475 -1.5762  1.7590 -2.4007
 7827TIP3    H244973   1.642   0.869   1.440  0.6181 -0.4968  0.7513
 7828TIP3   OH244974   3.213   5.405  13.167 -0.1015  0.0348 -0.2121
 7828TIP3    H144975   3.164   5.409  13.085 -0.0894 -1.4771 -0.3046
 7828TIP3    H244976   3.166   5.342  13.220 -0.2246  1.1664  1.0418
 7829TIP3   OH244977   3.314   5.578  11.871  0.2150 -0.0004 -0.2274
 7829TIP3    H144978   3.345   5.636  11.940 -0.8248  2.0190 -1.3847
 7829TIP3    H244979   3.236   5.536  11.907  0.2094  0.3410  0.1530
 7830TIP3   OH244980   4.053   4.746   0.914 -0.4253 -0.0527 -0.6854
 7830TIP3    H144981   4.144   4.722   0.894 -0.3755 -1.3031  0.9060
 7830TIP3    H244982   4.003   4.716   0.838  0.5581  1.2094 -1.8550
 7831TIP3   OH244983   6.129   1.992  12.585  0.4606 -0.2366  0.0028
 7831TIP3    H144984   6.154   2.041  12.506  0.5594 -0.3080 -0.0103
 7831TIP3    H244985   6.098   1.908  12.552  0.1195 -0.1157  0.0137
 7832TIP3   OH244986   5.311   6.489  15.029  0.3227 -0.3891 -0.4631
 7832TIP3    H144987   5.243   6.447  15.080 -2.0569 -2.5105 -5.1127
 7832TIP3    H244988   5.268   6.563  14.987  1.7479  0.1949 -0.9500
 7833TIP3   OH244989   2.787   3.148  13.367  0.0813 -0.4762  0.3547
 7833TIP3    H144990   2.873   3.153  13.326  0.5244 -0.6152  1.2431
 7833TIP3    H244991   2.725   3.156  13.295  0.8260 -3.6807 -0.7279
 7834TIP3   OH244992   3.309   1.094  11.793  0.6982  0.0703 -0.0561
 7834TIP3    H144993   3.373   1.092  11.865 -0.3968 -1.3470  0.9146
 7834TIP3    H244994   3.229   1.057  11.832 -0.4043  0.8588 -1.5417
 7835TIP3   OH244995   2.916   6.235  11.765 -0.2460 -0.3091 -0.2990
 7835TIP3    H144996   2.908   6.328  11.742  0.1653 -0.4184 -0.8900
 7835TIP3    H244997   2.826   6.204  11.769 -0.3763  0.0564 -0.3397
 7836TIP3   OH244998   2.836   3.659  14.538 -0.5620  0.7385 -0.3009
 7836TIP3    H144999   2.920   3.695  14.508 -0.9321  1.7673 -0.1083
 7836TIP3    H245000   2.835   3.570  14.503  0.3349  0.9293 -0.8358
 7837TIP3   OH245001   2.090   6.005  16.203 -0.1116  0.3664  0.2766
 7837TIP3    H145002   2.058   6.063  16.272  0.4352  0.4211  0.4779
 7837TIP3    H245003   2.098   5.920  16.245 -0.4024  0.2560  0.1129
 7838TIP3   OH245004   6.730   1.268   4.951  0.0257 -0.1963  0.7697
 7838TIP3    H145005   6.687   1.310   4.877 -0.4863  0.7530  1.5996
 7838TIP3    H245006   6.823   1.290   4.940  0.2983 -2.0886 -0.9130
 7839TIP3   OH245007   0.355   4.678   0.008  0.3270  0.1186 -0.0454
 7839TIP3    H145008   0.361   4.692   0.103  0.7129  1.4861 -0.2685
 7839TIP3    H245009   0.262   4.665  -0.008  0.2377  0.0680  0.4973
 7840TIP3   OH245010   5.700   2.634   0.205  0.0515 -0.7719  0.4162
 7840TIP3    H145011   5.663   2.689   0.136  0.5873 -0.5714  0.2870
 7840TIP3    H245012   5.727   2.553   0.160  1.1412 -0.3239  0.2357
 7841TIP3   OH245013   1.920   0.718  17.242  0.1460  0.5615 -0.2773
 7841TIP3    H145014   1.985   0.687  17.178  2.2639  1.2078  1.4804
 7841TIP3    H245015   1.953   0.685  17.326 -2.6386 -0.3633  0.4971
 7842TIP3   OH245016   3.342   1.282   4.065 -0.2060  0.7720  0.2087
 7842TIP3    H145017   3.294   1.335   4.001  0.0368  1.7812  0.8576
 7842TIP3    H245018   3.289   1.285   4.144  0.1704  0.6528  0.4681
 7843TIP3   OH245019   2.256   2.939  16.758 -0.1485  0.1952  0.3134
 7843TIP3    H145020   2.323   3.005  16.740  1.1601 -0.8857  1.0449
 7843TIP3    H245021   2.269   2.917  16.850 -0.6375 -0.9693  0.1121
 7844TIP3   OH245022   1.084   0.160   0.265 -0.3557  0.3842 -0.4485
 7844TIP3    H145023   1.029   0.234   0.292  0.2749  0.7477 -0.1700
 7844TIP3    H245024   1.067   0.093   0.332 -0.4020  0.5194 -0.3251
 7845TIP3   OH245025   1.859   0.881  15.481  0.2211 -0.0340  0.2992
 7845TIP3    H145026   1.853   0.799  15.530  0.2816 -0.0169  0.3349
 7845TIP3    H245027   1.770   0.895  15.449  0.0859  0.1675  0.7545
 7846TIP3   OH245028   1.912   1.660   1.600  0.6833 -0.4431  0.4097
 7846TIP3    H145029   1.920   1.713   1.521  1.3549 -1.3362 -0.1192
 7846TIP3    H245030   1.823   1.677   1.631  0.7073  0.5747 -0.0496
 7847TIP3   OH245031   1.524   0.420  13.072  0.3149 -0.8071 -0.1543
 7847TIP3    H145032   1.484   0.507  13.076 -2.1993 -1.8993 -0.4509
 7847TIP3    H245033   1.616   0.434  13.093 -0.8003  1.4007  3.5989
 7848TIP3   OH245034   3.949   0.155   0.381  0.0121  0.4438 -0.4308
 7848TIP3    H145035   3.856   0.177   0.380 -0.0870  0.0908  0.4015
 7848TIP3    H245036   3.957   0.080   0.323 -0.8243 -1.7790  2.2377
 7849TIP3   OH245037   5.703   5.564  14.556 -0.0418 -0.2960  0.0017
 7849TIP3    H145038   5.632   5.507  14.525 -0.3725 -0.0776  0.3465
 7849TIP3    H245039   5.658   5.641  14.590  0.3356 -0.3802  0.6922
 7850TIP3   OH245040   2.087   0.009  14.439 -0.4962 -0.7428 -0.2908
 7850TIP3    H145041   2.022  -0.061  14.447 -2.0894  0.6315 -0.7694
 7850TIP3    H245042   2.170  -0.032  14.463 -1.9559 -1.8598  3.2054
 7851TIP3   OH245043   2.318   3.740  14.656  0.1456 -0.1043  0.1067
 7851TIP3    H145044   2.411   3.750  14.635 -0.3827  1.4749 -1.6318
 7851TIP3    H245045   2.313   3.757  14.750  1.9882 -3.0391  0.7979
 7852TIP3   OH245046   4.955   2.347  10.599  0.0620 -0.4707  0.4482
 7852TIP3    H145047   4.918   2.309  10.519 -1.4227  0.4897  0.6450
 7852TIP3    H245048   4.898   2.316  10.669 -0.7410  1.4682  0.6905
 7853TIP3   OH245049   2.438   1.121   1.473  0.5018 -0.0494 -0.3415
 7853TIP3    H145050   2.361   1.071   1.499  0.4140  1.4793  2.5507
 7853TIP3    H245051   2.511   1.060   1.482 -0.1412 -1.0064 -1.4757
 7854TIP3   OH245052   4.485   1.164  11.749 -0.2014 -0.2455 -0.4363
 7854TIP3    H145053   4.433   1.219  11.808 -0.0645  1.5937 -1.9722
 7854TIP3    H245054   4.563   1.142  11.800  0.0291  1.5100  0.0107
 7855TIP3   OH245055   3.953   1.628   2.643  0.0284 -0.5227 -0.0412
 7855TIP3    H145056   4.000   1.707   2.617 -0.6165  0.5866  2.0044
 7855TIP3    H245057   3.866   1.638   2.604 -0.3577  0.2520  1.0026
 7856TIP3   OH245058   5.208   5.131   5.157  1.1030  0.0404 -0.0030
 7856TIP3    H145059   5.272   5.067   5.191  1.0171  0.3717  0.7914
 7856TIP3    H245060   5.258   5.212   5.150  0.5385  0.5142  1.4636
 7857TIP3   OH245061   3.519   6.793  11.354 -0.2667 -0.7630 -0.3245
 7857TIP3    H145062   3.562   6.826  11.275  1.9102 -0.3329  0.9944
 7857TIP3    H245063   3.535   6.699  11.352  0.4254 -0.6556 -0.0389
 7858TIP3   OH245064   0.289   4.305  16.728  0.5330  0.1320 -0.4047
 7858TIP3    H145065   0.264   4.214  16.717 -1.5792  0.6735 -0.3742
 7858TIP3    H245066   0.272   4.324  16.820 -0.2011  0.8850 -0.6887
 7859TIP3   OH245067   0.777   0.212  15.817  0.1954 -0.1691  0.0407
 7859TIP3    H145068   0.753   0.119  15.808  0.3109 -0.4591  2.4832
 7859TIP3    H245069   0.806   0.237  15.729  2.5534 -3.1442 -0.1594
 7860TIP3   OH245070   4.524   6.274  13.304  0.0037  1.3499  0.3494
 7860TIP3    H145071   4.511   6.179  13.316  1.0099  1.2297  0.5540
 7860TIP3    H245072   4.436   6.309  13.295 -0.3913  0.4089  0.4428
 7861TIP3   OH245073   0.564   2.150   0.570  0.5528  0.4628  0.0219
 7861TIP3    H145074   0.509   2.078   0.539 -0.7152  1.6002 -0.4196
 7861TIP3    H245075   0.611   2.114   0.645 -0.3043 -0.7302 -0.0074
 7862TIP3   OH245076   0.225   5.588  15.112 -0.0226  0.2484  0.0988
 7862TIP3    H145077   0.137   5.625  15.120  0.2268  1.1954 -1.3797
 7862TIP3    H245078   0.273   5.623  15.187 -0.0361  2.2675 -0.8042
 7863TIP3   OH245079   4.774   4.341   0.534 -0.5885  0.3778 -0.6413
 7863TIP3    H145080   4.779   4.423   0.485 -0.5942 -0.0341 -1.3413
 7863TIP3    H245081   4.786   4.273   0.468 -0.0843 -0.1751  0.0115
 7864TIP3   OH245082   2.551   6.131  12.148 -0.3750 -0.2285  0.3207
 7864TIP3    H145083   2.540   6.058  12.088  0.7035  0.6745 -1.0021
 7864TIP3    H245084   2.604   6.097  12.220  0.0391 -0.7671 -0.2415
 7865TIP3   OH245085   0.247   3.002  11.580 -0.1592 -0.7090  0.4723
 7865TIP3    H145086   0.208   3.083  11.547  0.9815  0.5764  2.1725
 7865TIP3    H245087   0.178   2.936  11.570 -0.4760  0.0451 -2.6056
 7866TIP3   OH245088   1.081   2.724   3.093  0.4632 -0.0935 -0.2661
 7866TIP3    H145089   1.115   2.637   3.071  0.5724 -0.2740  0.6052
 7866TIP3    H245090   1.150   2.765   3.144  0.7270  0.8070 -1.3454
 7867TIP3   OH245091   0.156   1.996   1.685  0.1038 -0.5338  0.0462
 7867TIP3    H145092   0.183   1.992   1.777 -0.4128 -0.3815  0.2059
 7867TIP3    H245093   0.071   2.039   1.687 -1.2089 -3.0521 -0.2349
 7868TIP3   OH245094   4.492   0.460  16.249 -0.0472 -0.4673  0.1800
 7868TIP3    H145095   4.459   0.477  16.161  1.0168  0.3369 -0.0771
 7868TIP3    H245096   4.432   0.508  16.306 -0.6957 -0.9291 -0.1037
 7869TIP3   OH245097   1.569   6.343  11.054 -0.4413 -0.0102  0.3204
 7869TIP3    H145098   1.657   6.316  11.083 -0.8244 -2.3924 -0.6413
 7869TIP3    H245099   1.584   6.379  10.967 -0.2064  1.0992  0.8094
 7870TIP3   OH245100   0.928   6.381   5.018 -0.5161 -0.8987  0.1820
 7870TIP3    H145101   0.997   6.365   4.953 -1.2208 -0.1264 -0.7653
 7870TIP3    H245102   0.968   6.441   5.081  0.1477 -1.5964  0.4348
 7871TIP3   OH245103   4.968   2.737   6.167 -0.8855 -0.6613 -0.3594
 7871TIP3    H145104   5.028   2.693   6.107 -0.3954  1.0318 -1.1684
 7871TIP3    H245105   4.973   2.687   6.248  3.1710  0.5559  0.2624
 7872TIP3   OH245106   0.396   2.491   4.901  0.1257 -0.2466 -0.2913
 7872TIP3    H145107   0.416   2.468   4.810 -1.1519 -0.3770 -0.5394
 7872TIP3    H245108   0.422   2.413   4.951  3.2331  0.7523 -0.2176
 7873TIP3   OH245109   1.773   2.085   0.503  0.4552  0.1255  0.0889
 7873TIP3    H145110   1.750   2.176   0.483 -0.3541 -0.4215 -1.5205
 7873TIP3    H245111   1.696   2.050   0.548 -0.2882 -0.5184 -1.6523
 7874TIP3   OH245112   2.734   6.597  13.724 -0.4734  0.0827  0.3310
 7874TIP3    H145113   2.827   6.582  13.739 -0.2409  0.8079 -0.3731
 7874TIP3    H245114   2.727   6.618  13.631 -1.4541 -0.7913  0.2016
 7875TIP3   OH245115   0.066   3.401  11.963  0.1008  0.2087 -0.0017
 7875TIP3    H145116   0.023   3.360  12.038  1.9160  0.8036  1.3994
 7875TIP3    H245117   0.056   3.337  11.892  1.7153 -2.0979  1.7662
 7876TIP3   OH245118   0.024   6.222   4.932  0.4112 -0.7863  0.1779
 7876TIP3    H145119   0.037   6.196   5.023 -0.4372 -1.3878  0.1315
 7876TIP3    H245120   0.012   6.317   4.934  0.4928 -0.7902  0.6804
 7877TIP3   OH245121   4.757   6.497  16.817  0.0924  0.6505  0.3218
 7877TIP3    H145122   4.725   6.424  16.764 -0.9344  1.6932 -0.5290
 7877TIP3    H245123   4.749   6.573  16.760  0.1105  1.6004  1.5691
 7878TIP3   OH245124   6.644   5.176   1.114  0.2025  0.5664  0.5591
 7878TIP3    H145125   6.565   5.228   1.129 -0.0349  0.7770 -1.2533
 7878TIP3    H245126   6.613   5.098   1.068  0.6449 -0.9051  2.6863
 7879TIP3   OH245127   5.054   1.596   5.120 -0.0926 -0.5940  0.4556
 7879TIP3    H145128   4.962   1.622   5.108 -0.1990 -1.0511  0.2511
 7879TIP3    H245129   5.055   1.552   5.205 -0.3069 -1.6507 -0.0782
 7880TIP3   OH245130   2.668   3.314   5.518 -0.7738  0.3501  0.0234
 7880TIP3    H145131   2.645   3.402   5.490  0.5907  0.3635 -1.0679
 7880TIP3    H245132   2.709   3.326   5.604  1.5570  1.0299 -1.1575
 7881TIP3   OH245133   0.729   3.215  16.064 -0.5648  0.0380  0.5808
 7881TIP3    H145134   0.703   3.303  16.037  1.7666  0.9879  1.2777
 7881TIP3    H245135   0.727   3.218  16.160  0.9779 -0.1834  0.6316
 7882TIP3   OH245136   6.675   1.845   1.677  0.1879 -0.0837 -0.1682
 7882TIP3    H145137   6.605   1.801   1.726  1.7789 -1.1798  1.1626
 7882TIP3    H245138   6.648   1.937   1.675 -0.9341 -0.3638  0.9938
 7883TIP3   OH245139   2.971   3.138  12.555  0.5862  0.5463  0.8384
 7883TIP3    H145140   3.046   3.194  12.531 -0.5588  1.2804 -1.1525
 7883TIP3    H245141   2.923   3.126  12.473 -1.8825  0.6806  2.2077
 7884TIP3   OH245142   3.790   3.544  13.367 -0.2844 -0.6915 -0.0157
 7884TIP3    H145143   3.880   3.552  13.399 -0.5439  0.3006  0.4529
 7884TIP3    H245144   3.736   3.585  13.434 -1.2311 -2.5390  0.3804
 7885TIP3   OH245145   0.699   0.023   5.691 -0.2786 -0.0586 -0.4178
 7885TIP3    H145146   0.613  -0.018   5.702  0.8965 -2.1629  1.2548
 7885TIP3    H245147   0.729   0.040   5.780  0.6263  1.6208 -1.0217
 7886TIP3   OH245148   4.122   0.990  15.060 -0.2142 -0.2851  0.3254
 7886TIP3    H145149   4.076   0.983  14.977  0.2954 -2.3852  0.1903
 7886TIP3    H245150   4.214   1.000  15.036  0.2223 -3.1533  0.5922
 7887TIP3   OH245151   0.269   5.168  11.305  0.5726 -0.1900 -0.8323
 7887TIP3    H145152   0.313   5.130  11.229 -1.7280 -0.0828 -2.2631
 7887TIP3    H245153   0.207   5.100  11.334  0.2204  0.4222 -0.1190
 7888TIP3   OH245154   0.871   5.517  12.371 -0.3163  0.0397  0.9504
 7888TIP3    H145155   0.906   5.467  12.445  0.6701 -0.6921  0.0165
 7888TIP3    H245156   0.921   5.485  12.296 -0.8649  1.2280  0.0720
 7889TIP3   OH245157   3.245   4.697  17.150  0.3887 -0.0075 -0.0241
 7889TIP3    H145158   3.158   4.731  17.170 -0.3755 -0.6087 -2.0861
 7889TIP3    H245159   3.231   4.604  17.133  1.4706 -0.1646 -0.1339
 7890TIP3   OH245160   2.124   0.402  14.618  0.2747 -0.0103 -0.2282
 7890TIP3    H145161   2.123   0.430  14.709 -2.2513  1.0169 -0.5299
 7890TIP3    H245162   2.160   0.477  14.570  0.3868 -0.0677 -0.2346
 7891TIP3   OH245163   2.628   3.164   4.703 -0.1699 -0.6995 -0.2181
 7891TIP3    H145164   2.627   3.226   4.630 -0.9062 -1.9145 -1.2562
 7891TIP3    H245165   2.720   3.157   4.728  0.5048 -2.7282 -3.1560
 7892TIP3   OH245166   0.075   4.937  16.518  0.1295  0.0423 -0.0340
 7892TIP3    H145167   0.120   5.020  16.504 -1.1633  0.5402 -1.5132
 7892TIP3    H245168  -0.016   4.962  16.534 -0.6090 -1.1265 -2.1565
 7893TIP3   OH245169   3.871   3.112   0.339  0.0239 -0.2812 -0.2028
 7893TIP3    H145170   3.853   3.188   0.285 -1.4710 -0.2195  0.3442
 7893TIP3    H245171   3.961   3.087   0.317  1.3602  2.9821  1.2436
 7894TIP3   OH245172   0.136   4.386  17.190 -0.3159 -0.3941 -0.0904
 7894TIP3    H145173   0.106   4.296  17.205 -0.4226 -0.3732 -0.1801
 7894TIP3    H245174   0.207   4.377  17.126 -0.6358 -0.3728 -0.4545
 7895TIP3   OH245175   0.757   6.523  14.697  0.2140  0.9398  0.2879
 7895TIP3    H145176   0.742   6.555  14.786 -1.5894 -0.8826  0.6507
 7895TIP3    H245177   0.684   6.557  14.647  0.8085  1.2920 -0.3520
 7896TIP3   OH245178   4.988   1.356  16.348 -0.1284  0.3448  0.5664
 7896TIP3    H145179   4.981   1.321  16.436 -0.7189 -1.6543 -0.2291
 7896TIP3    H245180   4.899   1.348  16.312  0.7238 -1.6697 -1.1883
 7897TIP3   OH245181   5.130   4.278   4.664 -0.5236  0.3454 -0.3144
 7897TIP3    H145182   5.059   4.222   4.632  0.2384 -0.9926  0.2575
 7897TIP3    H245183   5.209   4.226   4.650  0.4154  2.0282 -1.4342
 7898TIP3   OH245184   5.856   5.045  14.804 -0.0731  0.2892 -0.2107
 7898TIP3    H145185   5.864   4.952  14.826  2.3546  0.7833  1.1652
 7898TIP3    H245186   5.795   5.079  14.870  0.8436  0.1090  0.7530
 7899TIP3   OH245187   5.564   2.391   2.927 -0.2810  0.2190  0.0959
 7899TIP3    H145188   5.518   2.355   2.851 -1.3269 -0.7856  1.1650
 7899TIP3    H245189   5.570   2.317   2.988  0.6939  0.9630  0.9178
 7900TIP3   OH245190   0.361   2.774  12.828  0.2609 -0.1901  0.2613
 7900TIP3    H145191   0.343   2.759  12.735  3.2406  1.2399 -0.6114
 7900TIP3    H245192   0.378   2.687  12.864 -0.5625 -0.7217 -0.6105
 7901TIP3   OH245193   3.793   5.294   1.813 -0.3694  0.7373 -0.0088
 7901TIP3    H145194   3.800   5.311   1.907 -1.4193 -0.7868  0.3708
 7901TIP3    H245195   3.760   5.204   1.808 -3.6411  1.9567 -1.7725
 7902TIP3   OH245196   0.515   5.278  11.512  0.0742  0.1314 -0.5245
 7902TIP3    H145197   0.532   5.187  11.539  1.5095  0.4530 -0.2779
 7902TIP3    H245198   0.467   5.316  11.585  0.3635 -0.1442 -0.1891
 7903TIP3   OH245199   6.400   0.934  14.357 -0.2283  0.2560 -0.7355
 7903TIP3    H145200   6.458   0.960  14.286 -0.2234  0.9802 -0.4637
 7903TIP3    H245201   6.413   1.000  14.425  1.8505 -1.9253  1.0782
 7904TIP3   OH245202   2.967   4.614  16.553 -0.3303 -0.7002 -0.3087
 7904TIP3    H145203   2.934   4.637  16.639 -1.7834 -2.2212 -0.4342
 7904TIP3    H245204   3.011   4.530  16.565 -0.2908 -0.7865 -0.9922
 7905TIP3   OH245205   0.633   5.036   4.225  0.7439  0.3681 -0.2128
 7905TIP3    H145206   0.601   4.950   4.253 -2.2444  1.0962 -1.2791
 7905TIP3    H245207   0.654   5.025   4.132  2.0075  0.3520  0.0674
 7906TIP3   OH245208   2.801   4.978  11.747 -0.5158  0.0319  0.0856
 7906TIP3    H145209   2.855   5.057  11.741  1.4386 -1.2054  0.8680
 7906TIP3    H245210   2.849   4.912  11.697 -0.4852 -1.5257  2.0955
 7907TIP3   OH245211   6.254   6.310  11.297  0.0320  0.3656 -0.1595
 7907TIP3    H145212   6.242   6.246  11.226 -1.0178 -1.8456  1.9391
 7907TIP3    H245213   6.317   6.268  11.356 -1.1937  0.9610  1.5872
 7908TIP3   OH245214   5.230   6.004   2.008  0.1029  0.6104  0.3916
 7908TIP3    H145215   5.325   6.007   2.018  0.0691  1.3043  0.5092
 7908TIP3    H245216   5.216   5.965   1.922  0.4861  0.1065  0.5577
 7909TIP3   OH245217   6.012   3.921   0.780  0.2354  0.3317  0.5941
 7909TIP3    H145218   5.942   3.912   0.715  2.4040 -0.0656 -1.7806
 7909TIP3    H245219   5.975   3.884   0.861 -2.4630  0.6414 -0.4466
 7910TIP3   OH245220   1.654   1.574   1.669  0.2470  0.0793 -0.0687
 7910TIP3    H145221   1.576   1.619   1.700 -0.8910  1.0990 -4.2171
 7910TIP3    H245222   1.621   1.498   1.622  1.8714 -0.8736  0.2977
 7911TIP3   OH245223   3.572   1.331  14.538 -0.1389 -0.2332  0.5929
 7911TIP3    H145224   3.566   1.370  14.451 -2.1574  0.6534  1.1131
 7911TIP3    H245225   3.599   1.404  14.594 -0.2018 -0.4750  0.9370
 7912TIP3   OH245226   1.702   4.760  14.816  0.4170 -0.1002  0.4931
 7912TIP3    H145227   1.789   4.788  14.843  0.7091 -1.1982  0.7066
 7912TIP3    H245228   1.705   4.665  14.819 -0.1437 -0.2177 -1.5428
 7913TIP3   OH245229   2.035   6.819  10.907  0.0143 -0.1554  0.0378
 7913TIP3    H145230   2.060   6.744  10.852 -0.3640 -1.5430  1.7010
 7913TIP3    H245231   2.046   6.895  10.850  2.4984 -1.2497 -1.0489
 7914TIP3   OH245232   2.680   4.859  14.345  0.2912  0.7075 -0.4330
 7914TIP3    H145233   2.664   4.875  14.438  1.1915 -0.0665 -0.1381
 7914TIP3    H245234   2.597   4.880  14.302 -1.8307 -3.8355  1.1219
 7915TIP3   OH245235   1.266   1.771   5.861 -0.1183  0.0716 -0.2661
 7915TIP3    H145236   1.229   1.797   5.946 -2.1324 -3.0705 -0.0826
 7915TIP3    H245237   1.197   1.792   5.798  0.8159  1.1060 -0.9458
 7916TIP3   OH245238   0.693   6.006  12.524 -0.2382 -0.4864  0.1102
 7916TIP3    H145239   0.628   5.952  12.480  0.3379  0.7006 -2.2746
 7916TIP3    H245240   0.694   6.087  12.473  2.3034 -0.0699  0.7945
 7917TIP3   OH245241   4.762   0.177  12.223 -0.0555  0.2572 -0.1800
 7917TIP3    H145242   4.694   0.115  12.201 -1.3452  0.9565  1.7165
 7917TIP3    H245243   4.789   0.153  12.312 -0.8998  2.6602  0.7588
 7918TIP3   OH245244   2.384   0.576  15.785  0.0113 -0.0516 -0.1418
 7918TIP3    H145245   2.399   0.563  15.878 -0.2992  1.7813  0.1842
 7918TIP3    H245246   2.318   0.645  15.780  2.6032  2.4165 -1.7376
 7919TIP3   OH245247   1.822   6.568  13.003  0.3088  0.2843  1.0308
 7919TIP3    H145248   1.819   6.662  12.987 -0.1734  0.4100  1.8238
 7919TIP3    H245249   1.913   6.543  12.985  0.4537  0.9152  0.8931
 7920TIP3   OH245250   1.421   3.158   0.211 -0.2330 -0.3135 -0.0991
 7920TIP3    H145251   1.344   3.213   0.195  0.1540  0.2952  0.1365
 7920TIP3    H245252   1.436   3.164   0.305  0.4531  0.0426 -0.2266
 7921TIP3   OH245253   5.034   0.813   3.025  0.0690  0.3689  0.2968
 7921TIP3    H145254   5.100   0.762   2.977 -0.4589  0.2617 -0.3293
 7921TIP3    H245255   5.077   0.897   3.044  0.8343 -0.1918  1.0588
 7922TIP3   OH245256   3.005   6.540   4.641 -0.2119 -0.2778  0.6035
 7922TIP3    H145257   3.012   6.635   4.645 -0.9028 -0.2477  1.1989
 7922TIP3    H245258   2.911   6.522   4.645 -0.2568 -0.8865 -2.1466
 7923TIP3   OH245259   6.100   6.402  14.094 -0.0269 -0.3148 -0.4258
 7923TIP3    H145260   6.147   6.480  14.063 -1.1561 -0.5366 -2.7268
 7923TIP3    H245261   6.169   6.337  14.108  0.6636  0.3291 -0.7830
 7924TIP3   OH245262   2.003   5.250   3.139 -0.5431  0.8543  0.5858
 7924TIP3    H145263   1.960   5.183   3.192  1.8965 -0.2406  1.2657
 7924TIP3    H245264   1.978   5.227   3.049 -0.6333 -0.3191  0.8902
 7925TIP3   OH245265   6.324   0.512  15.286 -0.4065 -0.2770 -0.1766
 7925TIP3    H145266   6.324   0.575  15.214 -1.6106  1.1608  1.0553
 7925TIP3    H245267   6.232   0.484  15.292 -0.5232  0.4601  1.5384
 7926TIP3   OH245268   2.378   1.592   2.356 -0.7149 -0.0722 -0.4935
 7926TIP3    H145269   2.395   1.620   2.266 -0.7497  0.0863 -0.4511
 7926TIP3    H245270   2.390   1.672   2.408 -0.5158 -0.2046 -0.3388
 7927TIP3   OH245271   5.921   2.647   2.390 -0.1034  0.1932  0.1109
 7927TIP3    H145272   5.981   2.630   2.463  0.0748 -0.2592 -0.1404
 7927TIP3    H245273   5.867   2.568   2.384 -0.6512  0.5499  0.2630
 7928TIP3   OH245274   0.278   4.854   6.327  0.1604  0.0250 -0.1751
 7928TIP3    H145275   0.324   4.826   6.406 -2.2185  2.0153  1.9901
 7928TIP3    H245276   0.335   4.920   6.288  1.2873 -0.8851 -0.1183
 7929TIP3   OH245277   4.932   3.885  11.282 -0.0465  0.7378  0.2453
 7929TIP3    H145278   4.998   3.819  11.264 -0.3510 -0.0097  1.7426
 7929TIP3    H245279   4.873   3.882  11.207 -1.6642 -2.7346  1.5222
 7930TIP3   OH245280   3.647   1.287   3.013  0.3464 -0.2591 -0.0525
 7930TIP3    H145281   3.580   1.324   3.070  0.3328 -1.1803  0.5435
 7930TIP3    H245282   3.621   1.313   2.924  0.7300  1.7375  0.3959
 7931TIP3   OH245283   6.404   1.786   4.885 -0.9832  0.1196  0.3295
 7931TIP3    H145284   6.450   1.723   4.941  0.3394 -0.2358 -1.1052
 7931TIP3    H245285   6.420   1.871   4.927 -1.1572 -0.2982  1.2382
 7932TIP3   OH245286   0.873   6.398  15.270 -0.3596  0.7874  0.4533
 7932TIP3    H145287   0.785   6.397  15.307 -0.8445  1.8500 -0.6086
 7932TIP3    H245288   0.862   6.369  15.179  0.4385  0.6118  0.4017
 7933TIP3   OH245289   5.088   4.391   5.085 -0.2174 -0.2334 -0.0755
 7933TIP3    H145290   5.037   4.322   5.042 -0.2935  0.3918 -0.9777
 7933TIP3    H245291   5.056   4.472   5.047  2.0780  0.1248 -1.3116
 7934TIP3   OH245292   5.493   6.424  16.064 -0.2486  0.6052 -0.2238
 7934TIP3    H145293   5.574   6.380  16.088 -0.5493 -0.0086 -0.3409
 7934TIP3    H245294   5.505   6.450  15.973 -0.6392 -0.5108 -0.5953
 7935TIP3   OH245295   6.596   3.450   1.374  0.3946 -0.0980  0.4540
 7935TIP3    H145296   6.587   3.502   1.295 -0.4577  0.6971  1.0624
 7935TIP3    H245297   6.688   3.423   1.375  0.3639 -0.2958 -0.8988
 7936TIP3   OH245298   1.516   6.030   1.951 -0.0225 -0.2394 -0.2492
 7936TIP3    H145299   1.514   6.110   1.898  1.6573  1.3489  1.9810
 7936TIP3    H245300   1.604   5.997   1.940  0.3356  0.0976  1.4979
 7937TIP3   OH245301   5.612   4.868   0.682 -0.0761 -0.0808  0.1059
 7937TIP3    H145302   5.617   4.809   0.757  1.3294 -1.0156 -0.7018
 7937TIP3    H245303   5.625   4.955   0.719  0.4230 -0.5204  0.9699
 7938TIP3   OH245304   6.624   5.389   0.183  0.1317 -0.0895 -0.2056
 7938TIP3    H145305   6.712   5.395   0.220 -0.9136  1.0987  2.2366
 7938TIP3    H245306   6.575   5.338   0.248 -1.5417  1.2510 -0.3775
 7939TIP3   OH245307   3.751   0.052   4.978  0.5355 -0.0509 -0.7896
 7939TIP3    H145308   3.759   0.124   4.915  0.4412  1.7247  1.1638
 7939TIP3    H245309   3.660   0.056   5.006  0.7988 -0.2772  0.0943
 7940TIP3   OH245310   4.876   0.705   5.415  0.1621  0.1221  0.2655
 7940TIP3    H145311   4.859   0.714   5.509  1.5693  0.2782  0.5221
 7940TIP3    H245312   4.827   0.776   5.375 -0.5200  0.0024  0.8705
 7941TIP3   OH245313   6.417   6.794   5.475  0.3077 -0.5212 -0.0656
 7941TIP3    H145314   6.445   6.867   5.419  1.6925 -0.0536  1.2277
 7941TIP3    H245315   6.368   6.836   5.546  1.1584 -0.8469  0.7119
 7942TIP3   OH245316   6.472   4.894   3.228 -0.3859  0.9576  0.1346
 7942TIP3    H145317   6.380   4.918   3.216 -0.2559  1.1212 -0.6035
 7942TIP3    H245318   6.502   4.871   3.140 -0.0235 -0.1848  0.5418
 7943TIP3   OH245319   4.453   2.491   1.073  0.4000  0.2630  0.7250
 7943TIP3    H145320   4.534   2.508   1.024 -0.1508  1.9976  0.4032
 7943TIP3    H245321   4.439   2.571   1.124 -1.6732  0.3751  0.0076
 7944TIP3   OH245322   2.133   0.657  16.048 -0.4626  0.2574 -0.1021
 7944TIP3    H145323   2.226   0.632  16.052  0.2673  2.8723  0.5118
 7944TIP3    H245324   2.086   0.574  16.041  2.1365 -1.0380 -4.7605
 7945TIP3   OH245325   1.846   6.430  16.178 -0.5109  0.2097 -0.2743
 7945TIP3    H145326   1.868   6.381  16.099  0.1987 -0.1042  0.1171
 7945TIP3    H245327   1.751   6.426  16.182 -0.4804 -0.8758 -0.4100
 7946TIP3   OH245328   2.673   1.818   3.993  0.1975 -0.6845 -0.5627
 7946TIP3    H145329   2.606   1.768   4.040 -0.0048 -0.9279 -1.1168
 7946TIP3    H245330   2.752   1.763   3.999  0.6832  0.1437  1.1339
 7947TIP3   OH245331   5.607   4.417  16.573 -0.3725 -0.2488 -0.2766
 7947TIP3    H145332   5.622   4.323  16.559 -3.2649 -0.6518 -1.2552
 7947TIP3    H245333   5.599   4.426  16.668 -0.4500 -1.0930 -0.1936
 7948TIP3   OH245334   0.893   4.198  11.155 -0.0949  0.4758 -0.0661
 7948TIP3    H145335   0.881   4.260  11.227 -1.1059 -0.5468  0.6687
 7948TIP3    H245336   0.823   4.220  11.093 -1.2390 -0.6933  0.7688
 7949TIP3   OH245337   1.007   2.639  12.845 -0.5619 -0.0601 -0.2697
 7949TIP3    H145338   1.051   2.680  12.771  1.0177 -0.8647  0.1967
 7949TIP3    H245339   1.075   2.586  12.887 -1.2259  0.9362  2.1669
 7950TIP3   OH245340   1.301   2.095   5.603  0.2129  0.1736  0.2724
 7950TIP3    H145341   1.276   2.186   5.589  0.4747 -0.0439 -1.7157
 7950TIP3    H245342   1.356   2.074   5.528 -0.0304 -1.6982  0.6065
 7951TIP3   OH245343   3.853   0.894   4.234  0.3965  0.0381  0.1003
 7951TIP3    H145344   3.791   0.826   4.209  0.5838 -0.1419  0.1157
 7951TIP3    H245345   3.938   0.861   4.203  0.2253  1.1489 -1.6328
 7952TIP3   OH245346   3.988   6.132  14.263 -0.6748  0.3460 -0.2507
 7952TIP3    H145347   4.009   6.225  14.252  2.9971 -0.6316 -2.4619
 7952TIP3    H245348   4.009   6.113  14.354 -1.3208  1.6547  0.1780
 7953TIP3   OH245349   5.963   5.472   5.625 -0.1007 -0.0505  0.0945
 7953TIP3    H145350   5.921   5.546   5.581 -2.0607 -0.1886  1.6713
 7953TIP3    H245351   5.937   5.396   5.574  1.4719  0.2354 -1.2049
 7954TIP3   OH245352   0.146   1.480   1.515  0.3893 -0.3109  0.0415
 7954TIP3    H145353   0.180   1.537   1.585 -0.0785  2.5424 -1.9397
 7954TIP3    H245354   0.224   1.443   1.474  0.7714  0.0402  0.4510
 7955TIP3   OH245355   0.909   0.757  16.948  0.1244 -0.3266  0.0417
 7955TIP3    H145356   0.898   0.829  17.011  1.3793 -0.1525  0.0721
 7955TIP3    H245357   0.948   0.798  16.871 -0.1554 -0.7921 -0.3522
 7956TIP3   OH245358   3.347   5.034   3.392 -0.0454 -0.5073  0.5124
 7956TIP3    H145359   3.404   5.100   3.431  1.7055 -2.3803  1.2265
 7956TIP3    H245360   3.332   5.064   3.302  3.6786 -0.9078 -0.3112
 7957TIP3   OH245361   2.219   1.754   3.354  0.2963  0.0257  0.1839
 7957TIP3    H145362   2.179   1.815   3.416  3.7051  1.6603  0.9371
 7957TIP3    H245363   2.229   1.806   3.274  0.9106 -0.3212  0.0317
 7958TIP3   OH245364   2.719   6.403   1.308 -0.6444  0.1091  0.9226
 7958TIP3    H145365   2.712   6.433   1.217 -1.1626  1.1236  1.2989
 7958TIP3    H245366   2.668   6.322   1.311  1.5103 -1.3763 -0.3180
 7959TIP3   OH245367   2.711   3.915  16.288  0.3981 -0.3869 -0.2534
 7959TIP3    H145368   2.767   3.966  16.229  1.5529  1.0067  1.9799
 7959TIP3    H245369   2.767   3.845  16.320  0.2692 -0.1940  0.4081
 7960TIP3   OH245370   0.909   5.477  11.909  0.2578  0.1632 -0.0122
 7960TIP3    H145371   0.970   5.468  11.982  1.4382 -0.3592 -1.0385
 7960TIP3    H245372   0.960   5.518  11.839 -1.0601  1.3429 -0.3114
 7961TIP3   OH245373   2.249   5.824   4.732 -0.0393 -0.1366 -0.1157
 7961TIP3    H145374   2.209   5.782   4.656  1.8384  0.8840 -1.6837
 7961TIP3    H245375   2.237   5.918   4.717  0.9426  0.0952  0.4996
 7962TIP3   OH245376   2.671   2.211   0.403  0.6615  0.1496  0.2508
 7962TIP3    H145377   2.700   2.125   0.375 -1.9920 -0.6910 -0.1032
 7962TIP3    H245378   2.630   2.196   0.489  0.9590  1.2002  0.5822
 7963TIP3   OH245379   0.537   0.271   3.127 -0.0137 -0.4939  0.3773
 7963TIP3    H145380   0.527   0.361   3.095  1.8414 -0.5881 -0.5287
 7963TIP3    H245381   0.632   0.259   3.133 -0.2727 -2.1880  1.0985
 7964TIP3   OH245382   4.780   2.508  17.026 -0.9428 -0.1536  0.3058
 7964TIP3    H145383   4.828   2.431  16.995 -2.0177 -1.0998  0.9243
 7964TIP3    H245384   4.742   2.480  17.110  0.1031  1.6369  1.4010
 7965TIP3   OH245385   1.620   6.245   1.229 -0.7531  0.6276  0.1975
 7965TIP3    H145386   1.633   6.266   1.137  0.3804  0.3964  0.2910
 7965TIP3    H245387   1.625   6.329   1.274  1.9105  0.4118  0.3742
 7966TIP3   OH245388   4.414   1.567   2.477 -0.4388  0.1102  0.3994
 7966TIP3    H145389   4.335   1.547   2.427 -1.5833  1.2799  1.7070
 7966TIP3    H245390   4.414   1.503   2.549 -0.4194  0.3845  0.6431
 7967TIP3   OH245391   1.928   0.259  17.263 -0.1505 -0.4936  0.4772
 7967TIP3    H145392   1.956   0.330  17.205 -0.4793 -1.4970 -0.9152
 7967TIP3    H245393   1.906   0.304  17.345  4.9926  0.4396  1.5440
 7968TIP3   OH245394   1.040   0.606   2.493  0.3452 -0.3501 -0.0132
 7968TIP3    H145395   1.134   0.601   2.477  0.1368  1.0158 -1.7239
 7968TIP3    H245396   1.001   0.626   2.407 -1.0995  3.8649  1.4997
 7969TIP3   OH245397   2.038   6.210  14.132 -0.2551 -0.0742 -0.0609
 7969TIP3    H145398   1.957   6.160  14.126 -1.2255  1.2995  1.1755
 7969TIP3    H245399   2.057   6.215  14.225  0.5781  0.6706 -0.2590
 7970TIP3   OH245400   0.745   3.427  16.303  0.5380  0.1662 -0.2273
 7970TIP3    H145401   0.712   3.507  16.344 -2.6095 -2.0694  1.8380
 7970TIP3    H245402   0.817   3.399  16.360  0.4310  0.5346  0.0913
 7971TIP3   OH245403   5.758   2.121  14.402  0.3063  0.2090 -0.0609
 7971TIP3    H145404   5.847   2.128  14.436 -0.1047  0.6921  0.9258
 7971TIP3    H245405   5.767   2.066  14.323  1.2379 -1.1213  0.9407
 7972TIP3   OH245406   6.681   2.446   0.623  0.6040  0.1947  0.1400
 7972TIP3    H145407   6.719   2.534   0.631 -0.4494  0.5690  1.2764
 7972TIP3    H245408   6.756   2.387   0.627  1.2478  1.0048  0.2648
 7973TIP3   OH245409   3.159   1.887  12.550 -0.1748  0.8716  0.1290
 7973TIP3    H145410   3.064   1.877  12.541 -0.0533  0.4380 -0.6718
 7973TIP3    H245411   3.181   1.960  12.493  0.3435 -0.7325 -1.7536
 7974TIP3   OH245412   2.593   5.805  12.164  0.0545  0.2829 -0.2195
 7974TIP3    H145413   2.608   5.720  12.206  1.8530  0.1234 -1.1232
 7974TIP3    H245414   2.628   5.869  12.226 -0.0039  0.2725 -0.1750
 7975TIP3   OH245415   3.687   1.689  16.318 -0.0827  0.3232  0.0630
 7975TIP3    H145416   3.715   1.602  16.288 -1.9397 -0.3409  0.1474
 7975TIP3    H245417   3.669   1.678  16.411  1.8411  1.3896  0.5783
 7976TIP3   OH245418   1.291   6.574  16.480  0.5995  0.6136  0.4390
 7976TIP3    H145419   1.352   6.641  16.509  1.6314 -0.7479  1.5016
 7976TIP3    H245420   1.280   6.517  16.557 -0.8040 -0.0309 -0.2100
 7977TIP3   OH245421   5.035   4.275   4.139 -0.0847 -0.9332 -0.2221
 7977TIP3    H145422   4.979   4.352   4.133 -0.4927 -1.3370 -1.7209
 7977TIP3    H245423   5.087   4.289   4.218 -0.0988  0.9239 -0.5200
 7978TIP3   OH245424   3.086   4.290  14.830 -0.0809 -0.0180  0.2887
 7978TIP3    H145425   3.181   4.280  14.841 -0.2003 -0.7782  0.6823
 7978TIP3    H245426   3.048   4.219  14.883 -0.8755  0.4504  0.3621
 7979TIP3   OH245427   0.593   6.509  16.561  0.2474  0.2738  0.3212
 7979TIP3    H145428   0.552   6.445  16.503 -3.1201 -0.2364  3.0651
 7979TIP3    H245429   0.552   6.593  16.537  0.2019  0.3624  0.7016
 7980TIP3   OH245430   5.931   5.471   4.646  0.3614  0.1837 -0.0538
 7980TIP3    H145431   5.987   5.460   4.723 -0.6541  0.8650  0.7924
 7980TIP3    H245432   5.883   5.552   4.662 -1.3861 -0.7422 -0.4329
 7981TIP3   OH245433   3.364   6.156   3.268 -0.2381 -0.4413 -0.2949
 7981TIP3    H145434   3.345   6.248   3.283  1.9303 -0.2698  1.6583
 7981TIP3    H245435   3.290   6.109   3.306 -0.0294  0.4072  1.1768
 7982TIP3   OH245436   5.614   6.399  10.740 -0.4342  0.4726 -0.7529
 7982TIP3    H145437   5.534   6.450  10.756  0.0951  1.0760 -0.0127
 7982TIP3    H245438   5.636   6.362  10.825 -0.2169 -0.1325 -1.0718
 7983TIP3   OH245439   3.696   5.069  13.314  0.1723  0.1367 -0.5062
 7983TIP3    H145440   3.700   5.122  13.234  0.7260  2.8276  1.2364
 7983TIP3    H245441   3.780   5.085  13.358  0.0102 -1.5754  0.4846
 7984TIP3   OH245442   4.128   5.127   0.496 -0.4591 -0.1910  0.5325
 7984TIP3    H145443   4.062   5.190   0.468 -1.7007 -0.5541  2.5204
 7984TIP3    H245444   4.177   5.172   0.565  1.7919  0.2802 -1.3142
 7985TIP3   OH245445   6.542   3.985  16.855 -0.1134  0.2461 -0.0053
 7985TIP3    H145446   6.581   3.984  16.768 -0.1464 -1.1735 -0.0313
 7985TIP3    H245447   6.616   3.986  16.916  0.0181 -2.1655 -0.0535
 7986TIP3   OH245448   2.859   6.605  15.270 -0.4503 -0.0580  0.1286
 7986TIP3    H145449   2.795   6.582  15.203  2.0737 -0.0170 -2.4149
 7986TIP3    H245450   2.871   6.700  15.259 -2.1932  0.5030  2.6847
 7987TIP3   OH245451   1.391   5.097   5.481 -0.6645 -0.4826  0.3445
 7987TIP3    H145452   1.423   5.153   5.411 -2.9368 -0.4855 -0.7258
 7987TIP3    H245453   1.322   5.045   5.441 -0.9478 -1.5895  2.2015
 7988TIP3   OH245454   2.682   2.969  14.988  0.2268  0.5043 -0.2393
 7988TIP3    H145455   2.706   2.886  14.948  3.2604  1.0423  0.3311
 7988TIP3    H245456   2.592   2.985  14.960  0.4400 -1.7718 -2.3151
 7989TIP3   OH245457   0.989   6.763   1.301  0.2794 -0.0407 -0.7921
 7989TIP3    H145458   0.916   6.702   1.305 -0.9041  1.4478  1.1432
 7989TIP3    H245459   0.990   6.794   1.211 -1.4552 -0.1264 -0.8537
 7990TIP3   OH245460   1.678   4.437   5.732 -0.0667  0.0417  0.7003
 7990TIP3    H145461   1.728   4.499   5.679 -0.2285  0.3332  0.8854
 7990TIP3    H245462   1.643   4.490   5.804  0.8867 -0.5185  1.5932
 7991TIP3   OH245463   6.735   1.099   5.670 -0.2324  0.3547 -0.0404
 7991TIP3    H145464   6.812   1.097   5.726 -1.7188 -1.1321  2.0435
 7991TIP3    H245465   6.767   1.128   5.585  2.9153 -1.9368  0.2939
 7992TIP3   OH245466   2.703   3.114  10.788 -0.7650 -0.0534 -0.0695
 7992TIP3    H145467   2.644   3.044  10.760 -0.1562  0.0907 -1.8146
 7992TIP3    H245468   2.776   3.109  10.726  0.6827  0.2572  1.5842
 7993TIP3   OH245469   4.458   5.527  12.136 -0.1372 -0.1539  0.2423
 7993TIP3    H145470   4.453   5.620  12.114  0.2790  0.0921  1.1322
 7993TIP3    H245471   4.381   5.511  12.190  0.0313 -0.2100  0.4700
 7994TIP3   OH245472   2.486   5.505  16.753  0.0595  0.0531 -0.1664
 7994TIP3    H145473   2.432   5.464  16.821  0.3092 -0.2631 -0.1627
 7994TIP3    H245474   2.560   5.543  16.800  0.2776 -0.2408 -0.2724
 7995TIP3   OH245475   2.255   0.832  15.765  0.1169  0.3259 -0.6712
 7995TIP3    H145476   2.234   0.801  15.677 -0.0708 -0.8809 -0.2115
 7995TIP3    H245477   2.171   0.861  15.801  0.1752  0.7142 -0.8421
 7996TIP3   OH245478   3.624   2.178  16.945  0.5741 -0.2386 -0.3975
 7996TIP3    H145479   3.720   2.178  16.951  0.4714 -1.7787  1.6919
 7996TIP3    H245480   3.594   2.207  17.031 -0.8393 -0.2544 -0.8728
 7997TIP3   OH245481   2.361   1.559   3.067  0.8462 -0.5160  0.4824
 7997TIP3    H145482   2.411   1.568   2.986 -1.8278 -1.2262 -1.3028
 7997TIP3    H245483   2.324   1.646   3.082 -1.3291 -1.1662 -0.8980
 7998TIP3   OH245484   1.316   1.715   2.965 -0.1872 -0.4320  0.1118
 7998TIP3    H145485   1.226   1.696   2.991 -0.1964 -1.6270 -0.7639
 7998TIP3    H245486   1.342   1.788   3.021 -1.6345 -0.1943  0.4978
 7999TIP3   OH245487   0.339   1.929  14.992 -0.2825 -0.2918 -0.7682
 7999TIP3    H145488   0.409   1.995  14.988 -1.8246  1.7834  3.5664
 7999TIP3    H245489   0.260   1.978  15.013 -1.7776 -3.3168  1.1127
 8000TIP3   OH245490   5.764   5.743   3.715 -0.4309 -0.3273  0.3113
 8000TIP3    H145491   5.712   5.667   3.690  0.0106 -0.5379  0.0223
 8000TIP3    H245492   5.855   5.716   3.701 -0.2405  0.0104  0.8936
 8001TIP3   OH245493   2.312   4.152  14.963  0.0766 -0.0414 -0.1113
 8001TIP3    H145494   2.233   4.101  14.943  0.2567 -0.4764  0.2760
 8001TIP3    H245495   2.378   4.087  14.984  0.5648  0.3219 -0.5147
 8002TIP3   OH245496   4.837   5.581   4.464  0.3336  0.1574 -0.4937
 8002TIP3    H145497   4.773   5.511   4.457  0.5771 -0.0763 -0.3766
 8002TIP3    H245498   4.788   5.661   4.443  0.2775 -0.1519 -1.5457
 8003TIP3   OH245499   3.640   2.898  17.249  0.6158  0.2685 -0.3653
 8003TIP3    H145500   3.669   2.847  17.173 -1.2966 -1.0692 -0.2226
 8003TIP3    H245501   3.694   2.977  17.247  1.7023 -0.4945 -2.1875
 8004TIP3   OH245502   2.575   3.857   3.718 -0.8990  0.7543  0.1189
 8004TIP3    H145503   2.535   3.899   3.795  0.0690  1.3524  0.3079
 8004TIP3    H245504   2.627   3.785   3.754 -0.8030  0.7570 -0.0147
 8005TIP3   OH245505   0.208   2.959   5.234  0.1797  0.5535  0.0187
 8005TIP3    H145506   0.240   2.901   5.165  0.5231  0.5273  0.1961
 8005TIP3    H245507   0.118   2.932   5.249  0.0162  0.7441 -0.6126
 8006TIP3   OH245508   4.854   6.443   2.129  0.1623  0.0556 -0.1072
 8006TIP3    H145509   4.858   6.437   2.224 -0.5115  0.8003 -0.0232
 8006TIP3    H245510   4.868   6.536   2.110 -1.7005  0.2507 -0.6094
 8007TIP3   OH245511   3.186   4.196   3.542 -0.0849 -0.1170  0.6479
 8007TIP3    H145512   3.249   4.263   3.570  0.9190 -1.1300  0.8832
 8007TIP3    H245513   3.221   4.114   3.579 -0.7993 -0.8973 -0.3774
 8008TIP3   OH245514   1.541   2.699  15.845 -0.5811 -0.3799  0.1940
 8008TIP3    H145515   1.594   2.623  15.867 -0.3471 -0.7707 -1.6437
 8008TIP3    H245516   1.460   2.688  15.896 -0.7682 -2.1350 -0.4472
 8009TIP3   OH245517   1.365   6.214  11.217  0.4961 -0.4894  0.0159
 8009TIP3    H145518   1.305   6.161  11.164  0.6633  0.0494 -0.7266
 8009TIP3    H245519   1.418   6.261  11.153  0.2345  0.7034  0.6720
 8010TIP3   OH245520   1.513   0.990  12.262  0.4091 -0.2723  0.5705
 8010TIP3    H145521   1.528   1.035  12.179 -0.1189 -0.1706  0.5286
 8010TIP3    H245522   1.594   1.000  12.310 -0.5709  3.0161  1.6419
 8011TIP3   OH245523   1.311   1.579  14.509 -0.0739  0.2972 -0.0363
 8011TIP3    H145524   1.345   1.593  14.421 -0.4870  1.9770  0.0686
 8011TIP3    H245525   1.341   1.491  14.532  0.0020 -0.1841 -1.8673
 8012TIP3   OH245526   0.690   3.323  13.955 -0.5342 -0.0913 -0.4618
 8012TIP3    H145527   0.670   3.257  14.022  0.8723 -0.8493 -0.7829
 8012TIP3    H245528   0.785   3.333  13.959 -0.5628  0.6698 -1.5982
 8013TIP3   OH245529   6.781   5.226   5.753 -0.4706  0.1035  0.1431
 8013TIP3    H145530   6.741   5.185   5.829 -1.7046  0.1237 -0.4890
 8013TIP3    H245531   6.750   5.317   5.755 -2.5956 -0.5217 -1.7820
 8014TIP3   OH245532   0.171   1.817   4.259 -0.3304  0.1282  0.0592
 8014TIP3    H145533   0.228   1.750   4.222 -0.7747 -0.5853  0.6572
 8014TIP3    H245534   0.196   1.898   4.212  0.6140 -0.3237 -0.2399
 8015TIP3   OH245535   0.223   1.038  11.401 -0.6689 -0.6874 -0.0357
 8015TIP3    H145536   0.170   1.062  11.477 -0.8449 -0.5575 -0.1994
 8015TIP3    H245537   0.313   1.033  11.435 -0.8924 -1.7425  0.4270
 8016TIP3   OH245538   2.327   2.990  16.266 -0.0334  0.3391  0.0719
 8016TIP3    H145539   2.385   2.970  16.193 -2.1563 -0.3198 -1.5010
 8016TIP3    H245540   2.331   2.912  16.322  0.7704  0.3974  0.0959
 8017TIP3   OH245541   5.333   1.626  12.222  0.3174  0.2292  0.2392
 8017TIP3    H145542   5.386   1.614  12.301 -0.1290 -0.1542  0.4843
 8017TIP3    H245543   5.268   1.692  12.246 -0.0010 -0.0979  0.2915
 8018TIP3   OH245544   4.511   1.437   3.510 -0.1134 -0.0337 -0.2801
 8018TIP3    H145545   4.481   1.347   3.523 -0.4727 -0.0879 -1.4730
 8018TIP3    H245546   4.448   1.476   3.449  0.6855  0.6800 -0.6665
 8019TIP3   OH245547   1.411   3.795   0.105  0.2652  0.0480  0.0178
 8019TIP3    H145548   1.326   3.786   0.148  0.0973 -0.8881 -0.4975
 8019TIP3    H245549   1.427   3.889   0.104 -1.0603  0.2788 -0.4352
 8020TIP3   OH245550   1.038   3.490   2.651  0.0951  0.1648 -0.6056
 8020TIP3    H145551   1.026   3.548   2.726 -0.9370 -1.0715  0.2035
 8020TIP3    H245552   0.958   3.500   2.600  0.5587  0.5764 -1.2697
 8021TIP3   OH245553   3.449   3.851   3.867 -0.7016 -0.1421 -0.2079
 8021TIP3    H145554   3.421   3.818   3.782 -0.1745 -1.0143 -0.0551
 8021TIP3    H245555   3.420   3.942   3.869 -2.3195 -0.6402 -0.5937
 8022TIP3   OH245556   0.198   3.563   0.574 -0.0853  0.5752  0.1007
 8022TIP3    H145557   0.199   3.628   0.644 -0.0177  0.8119 -0.1204
 8022TIP3    H245558   0.166   3.483   0.616 -0.1725  0.7518  0.3702
 8023TIP3   OH245559   5.405   5.382   1.678  0.1698 -0.5930 -0.4270
 8023TIP3    H145560   5.346   5.428   1.618  0.9292  2.3682  0.9595
 8023TIP3    H245561   5.348   5.325   1.730 -1.1099  0.1942 -0.9468
 8024TIP3   OH245562   0.041   2.100  16.027  0.5578  0.4040  0.0159
 8024TIP3    H145563   0.034   2.158  16.103 -1.5418  0.6420 -0.3238
 8024TIP3    H245564  -0.047   2.100  15.989  1.6046  0.3325 -2.4616
 8025TIP3   OH245565   5.809   4.359  12.906  0.2755 -0.1998  0.0672
 8025TIP3    H145566   5.795   4.360  12.811 -1.4916 -2.3119  0.2772
 8025TIP3    H245567   5.784   4.447  12.934 -1.8685 -0.3990 -1.0909
 8026TIP3   OH245568   1.836   3.206  13.951 -0.1328 -0.2445 -0.2252
 8026TIP3    H145569   1.915   3.169  13.990 -0.0092 -0.5228 -0.7387
 8026TIP3    H245570   1.842   3.300  13.971  0.6429 -0.1635 -0.7856
 8027TIP3   OH245571   5.252   5.939   2.649 -0.1030 -0.0921 -0.3644
 8027TIP3    H145572   5.323   5.888   2.609 -1.2679 -0.9682 -1.3299
 8027TIP3    H245573   5.284   5.960   2.737  0.0434 -3.2468  0.3691
 8028TIP3   OH245574   6.797   1.078  16.780  0.5036  0.0243 -0.1215
 8028TIP3    H145575   6.861   1.149  16.775  0.8238 -0.3139 -0.9385
 8028TIP3    H245576   6.792   1.057  16.873 -2.5363  3.7605  0.7232
 8029TIP3   OH245577   5.358   0.702  11.609 -0.1135 -0.7250 -0.5313
 8029TIP3    H145578   5.349   0.641  11.536  1.8709 -0.0452 -1.3559
 8029TIP3    H245579   5.290   0.768  11.593 -0.9976 -1.6396 -0.6655
 8030TIP3   OH245580   5.041   6.616   4.621  0.2611  0.7573 -0.6684
 8030TIP3    H145581   5.100   6.639   4.550  0.4847  0.9155 -0.4359
 8030TIP3    H245582   4.953   6.627   4.585  0.2973 -3.1946 -2.2472
 8031TIP3   OH245583   1.078   1.321  16.251 -0.0598  0.2733 -0.1426
 8031TIP3    H145584   1.170   1.346  16.255 -0.1270  0.7482 -1.3095
 8031TIP3    H245585   1.073   1.257  16.179 -0.8572  1.3309 -1.0531
 8032TIP3   OH245586   0.130   4.367   0.795  0.1239 -0.0483 -0.4081
 8032TIP3    H145587   0.188   4.412   0.734  0.7373  0.3757  0.4752
 8032TIP3    H245588   0.113   4.432   0.863 -0.7291 -0.4454 -0.2399
 8033TIP3   OH245589   3.167   2.136   6.394  0.5131  0.6169  0.6308
 8033TIP3    H145590   3.100   2.145   6.462 -0.6695 -0.2648 -0.4007
 8033TIP3    H245591   3.197   2.046   6.402  1.0260  0.7809  0.5657
 8034TIP3   OH245592   0.016   5.784   6.699  0.2317 -0.3763 -0.0061
 8034TIP3    H145593   0.035   5.829   6.781  1.6018 -0.6649 -0.1494
 8034TIP3    H245594   0.070   5.705   6.702 -0.5117 -0.9136 -0.7121
 8035TIP3   OH245595   2.170   4.529  15.409 -0.2878  0.3658 -0.2908
 8035TIP3    H145596   2.134   4.544  15.322 -0.0317  0.7034 -0.3418
 8035TIP3    H245597   2.094   4.525  15.467 -0.3994  1.2312 -0.3716
 8036TIP3   OH245598   6.353   6.587  16.628 -0.1312 -0.7627 -0.4524
 8036TIP3    H145599   6.355   6.511  16.686 -0.4138 -0.8453 -0.5506
 8036TIP3    H245600   6.370   6.550  16.541 -0.9922 -0.8076 -0.6011
 8037TIP3   OH245601   6.066   6.743  11.384 -0.0056 -0.1927 -0.6352
 8037TIP3    H145602   6.068   6.669  11.444 -2.1272  0.3998  0.2122
 8037TIP3    H245603   6.134   6.802  11.418  0.0588 -0.6814  0.1123
 8038TIP3   OH245604   0.241   6.299  16.413  0.3371 -0.1813  0.0868
 8038TIP3    H145605   0.209   6.210  16.398  0.1175  0.0131 -0.6326
 8038TIP3    H245606   0.162   6.351  16.427  0.5643 -0.4603  2.5557
 8039TIP3   OH245607   2.036   6.348   0.018  0.1578 -0.4982  0.4412
 8039TIP3    H145608   2.023   6.362   0.112  0.6576 -0.4250  0.5010
 8039TIP3    H245609   2.007   6.258   0.004 -0.2631 -0.3898  0.5968
 8040TIP3   OH245610   1.298   1.233  13.212  0.2563 -0.0589  0.2930
 8040TIP3    H145611   1.288   1.294  13.285  2.1436  0.1315  0.4319
 8040TIP3    H245612   1.253   1.275  13.139 -0.9309  0.1423  1.1279
 8041TIP3   OH245613   6.777   4.017   4.845 -0.0571 -0.1976  0.7399
 8041TIP3    H145614   6.803   4.080   4.777 -0.2283 -0.7985  0.1111
 8041TIP3    H245615   6.824   3.937   4.823  2.5702  0.5531  3.2958
 8042TIP3   OH245616   5.208   0.713  13.985  0.5227  0.4175 -0.2185
 8042TIP3    H145617   5.118   0.723  14.016  0.3703  1.0733 -0.8844
 8042TIP3    H245618   5.205   0.736  13.892  0.8783 -2.1277 -0.8928
 8043TIP3   OH245619   6.251   3.986  12.347 -0.0713  0.0148 -0.4878
 8043TIP3    H145620   6.192   4.038  12.402 -1.5015 -1.5255 -0.5117
 8043TIP3    H245621   6.309   3.941  12.408 -0.2351 -0.0053 -0.3472
 8044TIP3   OH245622   4.547   2.247  13.220 -0.0404 -0.3073  0.6788
 8044TIP3    H145623   4.638   2.258  13.246  0.2721 -2.3478  0.4606
 8044TIP3    H245624   4.551   2.222  13.127 -0.5562 -5.0277  1.8469
 8045TIP3   OH245625   6.372   0.872   4.950  0.0917  0.3889 -0.2572
 8045TIP3    H145626   6.380   0.958   4.909 -1.1531  0.4497 -0.4086
 8045TIP3    H245627   6.278   0.851   4.943  0.4064 -1.0560 -0.3951
 8046TIP3   OH245628   0.407   3.605   0.286 -0.2902 -0.0514 -0.3764
 8046TIP3    H145629   0.501   3.609   0.305 -0.1735 -3.0370 -0.1597
 8046TIP3    H245630   0.374   3.691   0.313  2.1694  0.6314  0.6337
 8047TIP3   OH245631   0.552   0.249   5.232 -0.7523 -0.0209  0.3590
 8047TIP3    H145632   0.608   0.232   5.308 -1.6690  0.4396  1.1485
 8047TIP3    H245633   0.489   0.177   5.233 -0.1533 -0.5560 -0.5463
 8048TIP3   OH245634   2.108   6.578   6.311  0.3422 -0.5149  0.2778
 8048TIP3    H145635   2.100   6.482   6.312 -1.3631 -0.4030  3.5931
 8048TIP3    H245636   2.198   6.594   6.338  0.0966 -1.1622  1.5047
 8049TIP3   OH245637   3.054   0.193  12.105  0.1665 -0.2927  0.4183
 8049TIP3    H145638   3.070   0.145  12.186 -0.2229 -0.8162  0.1879
 8049TIP3    H245639   3.140   0.228  12.081 -0.0982  1.6681  2.1712
 8050TIP3   OH245640   4.575   0.934  15.469 -0.1605 -0.0254 -0.1723
 8050TIP3    H145641   4.524   1.011  15.495  0.2058  0.1229  0.1234
 8050TIP3    H245642   4.517   0.884  15.412 -0.8664 -0.1969  0.7007
 8051TIP3   OH245643   2.423   0.612  12.809  0.3643  0.1269 -0.1667
 8051TIP3    H145644   2.482   0.688  12.810  0.0431  0.3866 -0.7017
 8051TIP3    H245645   2.442   0.567  12.727  1.0429 -0.7704  0.4698
 8052TIP3   OH245646   6.639   5.450  13.074 -0.4086 -0.3076 -0.5947
 8052TIP3    H145647   6.565   5.392  13.059 -1.1029  0.1100  1.0784
 8052TIP3    H245648   6.653   5.495  12.991 -1.8729 -0.5697 -0.9852
 8053TIP3   OH245649   0.645   1.407  15.070 -0.0786 -0.1884  0.1363
 8053TIP3    H145650   0.587   1.482  15.058  1.4885  1.3292  1.6305
 8053TIP3    H245651   0.729   1.435  15.033  0.5236 -1.1785  0.7071
 8054TIP3   OH245652   3.049   3.751   2.473 -0.4351  0.6532  0.2763
 8054TIP3    H145653   3.063   3.831   2.424  0.1971 -0.8589 -2.1057
 8054TIP3    H245654   2.988   3.700   2.419 -2.1432  0.2149  2.5509
 8055TIP3   OH245655   5.857   0.504  13.076  0.1384 -0.1964 -0.0572
 8055TIP3    H145656   5.880   0.461  12.993 -1.2831  0.6521 -0.9134
 8055TIP3    H245657   5.803   0.578  13.050 -0.6217 -0.1305  1.6693
 8056TIP3   OH245658   2.800   3.743   1.050 -0.1308 -0.3085  0.1565
 8056TIP3    H145659   2.804   3.696   1.133  0.7278  0.4580  0.5609
 8056TIP3    H245660   2.707   3.746   1.028 -0.1006 -3.5129 -0.6454
 8057TIP3   OH245661   6.771   2.073  12.526 -0.5952 -0.0262 -0.0600
 8057TIP3    H145662   6.860   2.072  12.561  0.1869 -1.5164 -2.0323
 8057TIP3    H245663   6.749   2.166  12.520  0.6487  0.3439  0.8558
 8058TIP3   OH245664   2.193   3.844  16.634  0.5716 -0.8442  0.0073
 8058TIP3    H145665   2.269   3.833  16.576  2.0854  2.6581  1.1600
 8058TIP3    H245666   2.229   3.888  16.712 -2.3668 -0.5783  1.2708
 8059TIP3   OH245667   4.163   3.982   0.217 -0.6250 -0.1068  0.4786
 8059TIP3    H145668   4.087   4.038   0.225 -0.1280  0.6169  0.2307
 8059TIP3    H245669   4.128   3.893   0.216 -1.6990  0.2861 -2.0715
 8060TIP3   OH245670   0.511   0.204  12.227  0.9218  0.0857  0.3774
 8060TIP3    H145671   0.416   0.214  12.217  0.9934  0.8164  0.4169
 8060TIP3    H245672   0.529   0.233  12.317  1.0989 -0.6791  0.5956
 8061TIP3   OH245673   5.757   6.457   0.587  0.0677 -0.1884 -0.6551
 8061TIP3    H145674   5.710   6.418   0.660 -0.8593  1.1704 -0.5121
 8061TIP3    H245675   5.799   6.534   0.624 -1.2412  1.0782 -1.7572
 8062TIP3   OH245676   3.940   3.105   3.615  0.4754 -0.0632 -0.1676
 8062TIP3    H145677   3.861   3.134   3.660  2.1902  2.8530  1.1654
 8062TIP3    H245678   3.918   3.107   3.522 -1.3651 -0.4999  0.2482
 8063TIP3   OH245679   3.416   0.321   4.629  0.1404  0.7598 -0.4894
 8063TIP3    H145680   3.482   0.272   4.580  0.4927  0.2080  0.5201
 8063TIP3    H245681   3.417   0.409   4.590  0.3802  0.3182 -1.4905
 8064TIP3   OH245682   5.014   4.359  16.759  0.0816  0.1259 -0.4031
 8064TIP3    H145683   5.092   4.385  16.809 -0.8384  0.1072  1.0818
 8064TIP3    H245684   4.997   4.269  16.787  0.1820 -0.2635 -1.5813
 8065TIP3   OH245685   0.040   0.874   2.478  0.6193 -0.4162  0.7554
 8065TIP3    H145686   0.005   0.950   2.432  1.9862 -0.5302 -0.4865
 8065TIP3    H245687   0.035   0.899   2.571 -1.5491  0.0601  0.5557
 8066TIP3   OH245688   5.403   2.441  16.886  0.2260 -0.1642  0.1700
 8066TIP3    H145689   5.442   2.470  16.803 -0.6933 -0.1798 -0.2812
 8066TIP3    H245690   5.309   2.434  16.866  0.0882 -0.7833  1.0420
 8067TIP3   OH245691   0.673   4.685  11.502  0.4791  0.0950 -0.2882
 8067TIP3    H145692   0.720   4.678  11.585  2.0169 -0.3690 -1.1725
 8067TIP3    H245693   0.694   4.603  11.456 -1.2995 -0.1664 -0.6454
 8068TIP3   OH245694   0.951   6.512   1.599 -0.8723 -0.0585 -0.1099
 8068TIP3    H145695   0.878   6.562   1.565  0.5581  0.4043 -2.6416
 8068TIP3    H245696   0.999   6.574   1.655 -1.1568  0.3224 -0.2866
 8069TIP3   OH245697   0.864   0.177  15.561 -0.1807 -0.1534 -0.1637
 8069TIP3    H145698   0.833   0.264  15.534 -0.1344 -0.0242  0.1915
 8069TIP3    H245699   0.959   0.184  15.560 -0.1775 -0.1837 -0.0907
 8070TIP3   OH245700   2.511   0.554   4.974 -0.1995  0.3643 -0.2674
 8070TIP3    H145701   2.433   0.509   5.007 -0.8596  1.5308 -0.2033
 8070TIP3    H245702   2.584   0.511   5.019 -0.8046 -0.7186 -0.3080
 8071TIP3   OH245703   2.958   0.424   3.832  0.0816  0.1071  0.4170
 8071TIP3    H145704   2.920   0.483   3.897  1.4429 -0.2379  1.5440
 8071TIP3    H245705   3.053   0.433   3.843  0.3160 -1.1166 -0.4596
 8072TIP3   OH245706   2.645   5.793  11.300  1.1342 -0.2122  0.0983
 8072TIP3    H145707   2.695   5.839  11.368  0.0704 -0.5073  1.0936
 8072TIP3    H245708   2.691   5.710  11.288  0.6089 -0.6855  1.3507
 8073TIP3   OH245709   1.509   3.953  15.697 -0.0332 -0.2654  0.1167
 8073TIP3    H145710   1.500   3.906  15.779 -3.2529  2.9522  1.7267
 8073TIP3    H245711   1.596   3.993  15.701  0.7138 -1.9434  0.9202
 8074TIP3   OH245712   3.191   1.691  13.298 -0.1917 -0.2433 -0.3161
 8074TIP3    H145713   3.136   1.675  13.221  0.1705 -0.1659 -0.5893
 8074TIP3    H245714   3.278   1.709  13.263 -0.3354  1.1867  0.0579
 8075TIP3   OH245715   3.128   5.844  12.157  0.3253 -0.1140  0.1266
 8075TIP3    H145716   3.185   5.872  12.228  1.6856 -0.6590 -0.7123
 8075TIP3    H245717   3.122   5.749  12.167 -0.1237 -0.1009 -0.0077
 8076TIP3   OH245718   2.470   1.276   3.199 -0.0616  0.4296  0.7881
 8076TIP3    H145719   2.511   1.347   3.150  0.2301  0.4825  1.1103
 8076TIP3    H245720   2.483   1.299   3.291 -2.8728  1.6630  0.9198
 8077TIP3   OH245721   0.207   4.157   5.358  0.6086  0.7958 -0.0367
 8077TIP3    H145722   0.242   4.099   5.425 -1.1625  0.4690  0.6177
 8077TIP3    H245723   0.226   4.245   5.391  0.5220  0.6284  0.4678
 8078TIP3   OH245724   5.138   6.806  11.483  0.1412  0.0673 -0.5934
 8078TIP3    H145725   5.184   6.739  11.432  0.4841 -1.6067  1.7800
 8078TIP3    H245726   5.207   6.867  11.509  0.2132  0.1392 -0.9484
 8079TIP3   OH245727   0.833   4.640   2.707  0.4084 -0.4009  0.0852
 8079TIP3    H145728   0.745   4.673   2.724 -0.0496 -1.8424  0.5296
 8079TIP3    H245729   0.869   4.621   2.793  0.5948 -1.2557 -0.1806
 8080TIP3   OH245730   6.457   0.619   4.409 -0.0348  0.0429 -0.5883
 8080TIP3    H145731   6.383   0.651   4.461 -0.7224 -0.4651 -1.2466
 8080TIP3    H245732   6.417   0.569   4.338  0.9764 -1.1174 -0.3642
 8081TIP3   OH245733   2.935   5.477  10.686  0.2054  0.6093 -0.5670
 8081TIP3    H145734   2.964   5.430  10.765  0.3746  0.6297 -0.6169
 8081TIP3    H245735   2.840   5.483  10.696  0.1422 -0.0313 -0.7170
 8082TIP3   OH245736   0.607   3.525   5.888  0.6680 -0.0282  0.0945
 8082TIP3    H145737   0.566   3.447   5.851 -0.5366  0.5430  0.1988
 8082TIP3    H245738   0.673   3.551   5.823 -0.4156  0.1146 -0.9769
 8083TIP3   OH245739   4.702   5.229   3.484  0.0999  0.0425  0.0584
 8083TIP3    H145740   4.767   5.299   3.491  0.2877  0.0496 -1.5177
 8083TIP3    H245741   4.751   5.148   3.495  0.0405  0.1185  0.9059
 8084TIP3   OH245742   3.048   5.060  16.265 -0.4029 -0.1654  0.0833
 8084TIP3    H145743   3.018   5.020  16.347 -2.2877  0.0446 -0.4775
 8084TIP3    H245744   3.034   4.993  16.198  2.4547 -0.8528  0.1080
 8085TIP3   OH245745   6.126   0.134   3.085  0.3818 -0.5103 -0.1629
 8085TIP3    H145746   6.078   0.058   3.053 -1.4871 -0.5805  2.6075
 8085TIP3    H245747   6.069   0.172   3.152  3.4594  0.3915  2.0749
 8086TIP3   OH245748   1.891   5.400   4.008  0.1445  0.3984  0.3788
 8086TIP3    H145749   1.984   5.416   3.991 -0.0352  1.9060  0.7137
 8086TIP3    H245750   1.889   5.317   4.054  1.3148  0.2455  0.1619
 8087TIP3   OH245751   0.408   1.224   0.076 -0.1043 -0.2650 -0.0619
 8087TIP3    H145752   0.360   1.306   0.078 -0.0150 -0.1613 -1.6588
 8087TIP3    H245753   0.455   1.221   0.159 -1.7691  0.2816  0.9355
 8088TIP3   OH245754   3.534   6.529  11.321  0.4142  0.8420  0.3725
 8088TIP3    H145755   3.481   6.461  11.278  1.1277 -0.3794  1.3977
 8088TIP3    H245756   3.624   6.497  11.314  0.8415  2.0724  0.1829
 8089TIP3   OH245757   4.727   0.310   4.772  0.2234 -0.0754 -0.1065
 8089TIP3    H145758   4.654   0.372   4.784 -2.0835 -2.1896 -2.4669
 8089TIP3    H245759   4.705   0.237   4.830  2.1904  0.6253  1.5750
 8090TIP3   OH245760   4.518   1.872   1.433  0.2562  0.1214 -0.3006
 8090TIP3    H145761   4.463   1.848   1.508 -1.7753 -0.5302 -1.9649
 8090TIP3    H245762   4.489   1.960   1.410  2.2718  1.1396  0.8766
 8091TIP3   OH245763   5.515   1.821   4.884  0.3742  0.3771 -0.5074
 8091TIP3    H145764   5.451   1.878   4.841 -0.6951 -0.1661  0.3295
 8091TIP3    H245765   5.525   1.747   4.825 -2.9485 -1.5753  1.2156
 8092TIP3   OH245766   2.502   3.946   0.489 -0.4078  0.0620  0.2849
 8092TIP3    H145767   2.469   3.891   0.560 -0.7178 -0.4623 -0.2558
 8092TIP3    H245768   2.425   3.967   0.437  0.2285 -2.2519 -1.7279
 8093TIP3   OH245769   3.822   2.401   5.599  0.8871  0.3137  0.2886
 8093TIP3    H145770   3.766   2.476   5.622 -0.3634 -0.8827  1.2201
 8093TIP3    H245771   3.882   2.393   5.672  0.7418  0.1473  0.3901
 8094TIP3   OH245772   1.694   1.674   5.840 -0.0836 -0.3430  0.0943
 8094TIP3    H145773   1.600   1.660   5.827 -0.1175 -0.2910  0.2801
 8094TIP3    H245774   1.731   1.586   5.842 -0.2538 -0.3977  0.9371
 8095TIP3   OH245775   1.134   6.790   4.812  0.1317 -0.3686 -0.4256
 8095TIP3    H145776   1.145   6.871   4.862  2.4471 -1.2241  0.5428
 8095TIP3    H245777   1.174   6.808   4.727 -0.0441 -0.2461 -0.4818
 8096TIP3   OH245778   2.287   2.099  12.148  0.1991  0.2380  0.7070
 8096TIP3    H145779   2.321   2.057  12.069  1.8862 -1.6821  2.4068
 8096TIP3    H245780   2.257   2.185  12.118  1.0036 -0.3719 -1.9778
 8097TIP3   OH245781   6.424   4.394   1.133 -0.4861  0.4483  0.1893
 8097TIP3    H145782   6.445   4.481   1.168 -0.8040 -0.3215  2.3648
 8097TIP3    H245783   6.505   4.364   1.092  0.1060  1.0843  0.8832
 8098TIP3   OH245784   2.278   6.336   3.744  0.0929  0.7149  0.4241
 8098TIP3    H145785   2.251   6.289   3.666 -2.2125  1.8745  0.4979
 8098TIP3    H245786   2.366   6.302   3.763 -0.2409 -1.2165 -1.3265
 8099TIP3   OH245787   4.683   0.967   3.776 -0.4192  0.4781 -0.8476
 8099TIP3    H145788   4.675   0.873   3.794 -0.6308  0.8033  0.8113
 8099TIP3    H245789   4.665   0.974   3.682 -2.6898 -0.8801 -0.5585
 8100TIP3   OH245790   0.287   2.280  16.712 -0.0738  0.2524 -0.0469
 8100TIP3    H145791   0.255   2.367  16.732 -0.0298  0.4864 -0.9447
 8100TIP3    H245792   0.371   2.273  16.757  0.3288  0.9939 -0.6874
 8101TIP3   OH245793   0.033   3.009  12.016 -0.5638 -0.1687  0.2303
 8101TIP3    H145794  -0.055   2.974  12.004 -0.4795 -0.4793  0.5242
 8101TIP3    H245795   0.050   3.059  11.936 -0.7812 -0.5820 -0.0707
 8102TIP3   OH245796   0.571   5.290   5.474 -0.2222  0.0856 -0.0068
 8102TIP3    H145797   0.539   5.227   5.539  0.0468  0.0947  0.1312
 8102TIP3    H245798   0.531   5.373   5.500  1.3191  0.4659  1.2052
 8103TIP3   OH245799   1.232   3.141  16.096 -0.0405 -0.7687  0.8775
 8103TIP3    H145800   1.313   3.182  16.066 -0.5801  0.3157  0.8811
 8103TIP3    H245801   1.218   3.069  16.034 -0.4373  0.6336 -0.7097
 8104TIP3   OH245802   0.449   2.771  16.729  0.7373 -0.4545  0.5196
 8104TIP3    H145803   0.426   2.813  16.646  1.6818 -0.5120  0.2205
 8104TIP3    H245804   0.394   2.814  16.794 -3.2646 -3.3556 -0.7125
 8105TIP3   OH245805   6.094   5.114  12.046 -0.1278 -1.1417 -0.6088
 8105TIP3    H145806   6.180   5.075  12.035  0.6444  0.5094 -0.6819
 8105TIP3    H245807   6.072   5.099  12.138  1.6570  1.1266  0.2577
 8106TIP3   OH245808   1.406   2.590   3.396 -0.0466 -0.6552 -0.4887
 8106TIP3    H145809   1.452   2.662   3.440 -0.0104  0.6486 -2.5815
 8106TIP3    H245810   1.458   2.512   3.416  0.1608 -0.0381  1.4457
 8107TIP3   OH245811   2.480   6.308   3.542  0.6459 -0.5215 -0.7263
 8107TIP3    H145812   2.537   6.384   3.552  1.0478 -0.7860 -0.9877
 8107TIP3    H245813   2.521   6.241   3.597  1.3874 -1.1576 -2.0268
 8108TIP3   OH245814   1.888   5.241  12.394  0.0751  0.2293  0.1031
 8108TIP3    H145815   1.927   5.287  12.319  1.5767 -0.7467  0.2631
 8108TIP3    H245816   1.907   5.149  12.378  0.7163  0.0394  1.8484
 8109TIP3   OH245817   6.644   5.668   0.499  0.5663 -0.6971  0.0627
 8109TIP3    H145818   6.619   5.759   0.486  1.9521 -0.4138 -0.6924
 8109TIP3    H245819   6.734   5.672   0.530  0.8383 -1.8374 -0.5395
 8110TIP3   OH245820   6.279   1.875  11.764 -0.0190  0.4379  0.1432
 8110TIP3    H145821   6.242   1.797  11.723 -0.8696  0.3535  1.0493
 8110TIP3    H245822   6.359   1.844  11.807  0.8676  0.5259 -1.4248
 8111TIP3   OH245823   6.662   4.310   0.991  0.1756  0.1055 -0.2276
 8111TIP3    H145824   6.654   4.266   0.906  0.5009 -1.2518  0.4235
 8111TIP3    H245825   6.698   4.243   1.049 -0.6627  0.8204  1.1429
 8112TIP3   OH245826   2.072   5.354   3.621  0.2847  0.0851 -0.3253
 8112TIP3    H145827   2.038   5.271   3.654 -1.0269  0.6052 -0.3522
 8112TIP3    H245828   2.108   5.332   3.535  0.0906 -0.4849 -0.2654
 8113TIP3   OH245829   2.254   2.225  13.505  0.2698 -0.0409 -0.0397
 8113TIP3    H145830   2.212   2.141  13.525 -1.7560  1.5402  2.6244
 8113TIP3    H245831   2.212   2.254  13.424  0.1846 -1.0683 -0.3759
 8114TIP3   OH245832   0.186   6.104  11.969  0.2420 -0.4882 -0.5301
 8114TIP3    H145833   0.199   6.185  11.921 -0.4122 -0.6301 -0.9523
 8114TIP3    H245834   0.107   6.118  12.020 -0.5524 -1.2801 -1.5161
 8115TIP3   OH245835   3.763   5.722  13.236  0.0282  0.9016  0.0460
 8115TIP3    H145836   3.725   5.636  13.255 -0.3167  1.1081  0.2847
 8115TIP3    H245837   3.702   5.762  13.175  1.2351  0.1536 -1.7267
 8116TIP3   OH245838   0.158   2.183   6.135  0.3393  0.0191  0.3412
 8116TIP3    H145839   0.083   2.242   6.145 -0.9944 -1.3434 -1.3359
 8116TIP3    H245840   0.176   2.182   6.041  0.0788 -2.5437  0.2861
 8117TIP3   OH245841   4.653   5.832  16.939 -0.1525 -0.2131 -0.4596
 8117TIP3    H145842   4.733   5.786  16.964  0.3275  0.0360 -1.5083
 8117TIP3    H245843   4.643   5.900  17.004  0.3203 -0.4442 -0.1452
 8118TIP3   OH245844   0.631   6.312  16.917 -0.1584  0.6212  0.2176
 8118TIP3    H145845   0.554   6.368  16.923  0.0231  1.1410 -2.1034
 8118TIP3    H245846   0.607   6.243  16.856  0.7042 -0.0713  0.6411
 8119TIP3   OH245847   6.275   5.604  15.262 -0.1755 -0.3467  0.0035
 8119TIP3    H145848   6.220   5.678  15.286  1.6714  1.4352 -1.0910
 8119TIP3    H245849   6.357   5.617  15.311  0.8057 -0.7000 -1.4921
 8120TIP3   OH245850   5.312   5.911   3.987 -0.3731  0.2231 -0.1311
 8120TIP3    H145851   5.267   5.828   3.999 -0.4659  0.0445 -1.5857
 8120TIP3    H245852   5.342   5.909   3.895  0.1235  1.5387 -0.0118
 8121TIP3   OH245853   4.043   3.280  16.858  0.1787 -0.3078 -0.6815
 8121TIP3    H145854   4.110   3.214  16.873 -0.5351 -0.7612  0.6102
 8121TIP3    H245855   4.082   3.362  16.888  0.5770 -0.3565 -1.0540
 8122TIP3   OH245856   4.969   5.343  15.925 -0.0437 -0.4017  0.3975
 8122TIP3    H145857   4.968   5.251  15.951 -0.8370 -0.7554 -0.8130
 8122TIP3    H245858   5.061   5.369  15.933  0.0729 -1.0893  1.4237
 8123TIP3   OH245859   2.655   5.568  10.737  0.0657  0.1803  0.4566
 8123TIP3    H145860   2.568   5.603  10.718 -0.3562 -0.2083  1.6300
 8123TIP3    H245861   2.709   5.646  10.756 -0.0257  0.4181 -0.2557
 8124TIP3   OH245862   0.729   4.480  15.055  0.5660  0.4057 -0.7250
 8124TIP3    H145863   0.772   4.555  15.014 -1.3301  1.3000 -1.1334
 8124TIP3    H245864   0.668   4.518  15.118 -0.6343 -0.7626 -1.1481
 8125TIP3   OH245865   1.083   6.430  14.851  0.3896 -0.6052 -0.0319
 8125TIP3    H145866   1.072   6.354  14.907  1.5377  0.3183  1.4884
 8125TIP3    H245867   1.104   6.395  14.765 -1.3455 -2.0406  0.1112
 8126TIP3   OH245868   2.952   4.081   4.230 -0.1644 -0.2181  0.0440
 8126TIP3    H145869   2.935   4.126   4.313 -0.2720 -0.2781  0.0545
 8126TIP3    H245870   2.871   4.034   4.211 -0.5696  0.7644 -0.7194
 8127TIP3   OH245871   4.185   1.993   0.144 -0.2814 -0.5368  0.2061
 8127TIP3    H145872   4.135   2.039   0.075  0.6006 -0.3827 -0.3337
 8127TIP3    H245873   4.183   2.054   0.218  1.7315  0.8507 -0.8290
 8128TIP3   OH245874   1.394   1.885  11.158 -0.9449  0.0485 -0.2121
 8128TIP3    H145875   1.415   1.951  11.091 -1.5551  1.0875  0.6207
 8128TIP3    H245876   1.478   1.841  11.174 -0.5339  0.6046 -0.7818
 8129TIP3   OH245877   6.375   0.359  13.850 -0.9803 -0.7896 -0.5905
 8129TIP3    H145878   6.461   0.327  13.823 -1.4007 -1.5892 -0.9926
 8129TIP3    H245879   6.324   0.280  13.868 -2.0516 -0.3659 -1.6878
 8130TIP3   OH245880   2.881   2.562  16.593  0.0101  0.5192 -0.2312
 8130TIP3    H145881   2.801   2.596  16.632 -0.3648 -1.9120  1.2626
 8130TIP3    H245882   2.879   2.594  16.503 -3.6259 -1.0073 -0.8074
 8131TIP3   OH245883   6.592   5.556  16.779  0.6326 -0.2274 -0.1859
 8131TIP3    H145884   6.563   5.544  16.689 -1.5545  0.7586  0.3586
 8131TIP3    H245885   6.655   5.627  16.775  1.2229 -0.7809 -1.0462
 8132TIP3   OH245886   5.068   6.662   0.138 -0.3048 -0.7653 -0.2547
 8132TIP3    H145887   5.053   6.569   0.155  0.0277 -1.0063 -1.2509
 8132TIP3    H245888   5.016   6.681   0.060  0.7236 -0.4583 -0.8828
 8133TIP3   OH245889   2.838   1.343   4.832  0.4577 -0.4416 -0.1507
 8133TIP3    H145890   2.861   1.425   4.875 -0.4202 -0.4242  0.3131
 8133TIP3    H245891   2.921   1.307   4.801  1.0336 -0.1362  0.9991
 8134TIP3   OH245892   0.993   3.699  13.072 -0.2346 -0.3012 -0.3023
 8134TIP3    H145893   1.003   3.618  13.022  0.5886  0.9034 -2.1459
 8134TIP3    H245894   1.056   3.691  13.144 -0.3424 -1.3880 -0.3211
 8135TIP3   OH245895   0.637   6.171   3.666 -0.6888 -0.0842 -0.3917
 8135TIP3    H145896   0.659   6.169   3.759 -2.4335 -2.2175  0.0112
 8135TIP3    H245897   0.714   6.209   3.624 -0.5378  2.5638  2.0770
 8136TIP3   OH245898   4.980   2.027   5.555  0.3622  0.2790 -0.1759
 8136TIP3    H145899   5.065   1.983   5.562 -0.0409 -0.5364 -0.2760
 8136TIP3    H245900   4.968   2.068   5.641  0.9473  0.5728 -0.2282
 8137TIP3   OH245901   2.213   6.403  16.405  0.3053  0.4205 -0.3939
 8137TIP3    H145902   2.193   6.415  16.498 -1.0227 -1.5046 -0.3834
 8137TIP3    H245903   2.155   6.331  16.378 -0.4517  1.9831 -3.0902
 8138TIP3   OH245904   4.434   0.788  12.887  0.0550 -0.0537  0.2675
 8138TIP3    H145905   4.398   0.860  12.938  0.1732  0.5057 -0.4321
 8138TIP3    H245906   4.509   0.826  12.841  0.2975 -0.6966  0.1188
 8139TIP3   OH245907   6.086   3.944  12.621  0.2828  0.3138 -0.0966
 8139TIP3    H145908   6.162   3.970  12.671  0.0002  1.0462 -0.0495
 8139TIP3    H245909   6.017   3.931  12.686  0.8106 -2.0280  0.0440
 8140TIP3   OH245910   4.191   5.203   5.615  0.0997  0.2839  0.3543
 8140TIP3    H145911   4.239   5.166   5.689  1.5564  2.1617  0.4065
 8140TIP3    H245912   4.118   5.252   5.656  0.9821  1.4346  0.5853
 8141TIP3   OH245913   1.186   5.271  10.833 -0.1610 -0.1496  0.2175
 8141TIP3    H145914   1.123   5.302  10.768  0.3262  2.8194  1.0997
 8141TIP3    H245915   1.272   5.292  10.795  0.2449 -1.6857  0.2481
 8142TIP3   OH245916   0.212   3.658  14.058 -0.4804  0.6525 -0.1130
 8142TIP3    H145917   0.144   3.688  13.998 -0.6801  0.2564 -0.0835
 8142TIP3    H245918   0.293   3.694  14.022 -0.5728  0.2200 -0.7516
 8143TIP3   OH245919   3.193   2.412   5.611 -0.2821  0.0282 -0.5161
 8143TIP3    H145920   3.148   2.328   5.623 -0.9878  1.0380  5.5254
 8143TIP3    H245921   3.123   2.474   5.594 -0.5933  0.4790  2.1710
 8144TIP3   OH245922   3.651   5.459  11.335  0.1859 -0.3441  0.4550
 8144TIP3    H145923   3.715   5.491  11.270 -1.9468 -1.0055 -2.0505
 8144TIP3    H245924   3.574   5.436  11.283 -0.9142 -2.7187  3.0450
 8145TIP3   OH245925   3.990   1.432  14.007 -0.3994 -0.1932  0.4818
 8145TIP3    H145926   4.060   1.480  14.051 -0.5377  0.5290 -0.0724
 8145TIP3    H245927   3.936   1.500  13.967  0.0779 -0.8531 -1.3392
 8146TIP3   OH245928   3.635   2.286   1.784 -0.2313 -0.4504 -0.0800
 8146TIP3    H145929   3.551   2.330   1.798  1.6745  3.3228  0.0541
 8146TIP3    H245930   3.678   2.287   1.869  0.6802 -0.7774 -0.5287
 8147TIP3   OH245931   6.483   1.408  14.471  0.4520 -0.6722  0.2240
 8147TIP3    H145932   6.529   1.325  14.486  0.3925 -0.6487  0.5499
 8147TIP3    H245933   6.442   1.398  14.385 -1.1169 -1.7209  1.0541
 8148TIP3   OH245934   2.040   5.472  15.825 -0.4522  0.5483  0.3156
 8148TIP3    H145935   2.017   5.465  15.732 -1.7228  3.4109  0.3764
 8148TIP3    H245936   2.131   5.499  15.825  0.4826 -2.4265 -0.0208
 8149TIP3   OH245937   2.711   5.042   2.703  0.4192 -0.1763 -0.3537
 8149TIP3    H145938   2.795   5.003   2.680  1.0428  0.8860  0.0987
 8149TIP3    H245939   2.716   5.132   2.672  0.4000  0.6105  1.8000
 8150TIP3   OH245940   1.700   1.728   4.922 -0.0504  0.2191  0.1477
 8150TIP3    H145941   1.735   1.640   4.912 -0.8135 -0.1888  0.9541
 8150TIP3    H245942   1.776   1.785   4.914  0.4321 -0.4974 -0.5216
 8151TIP3   OH245943   4.168   4.472  11.830  0.7742 -0.2536  0.4220
 8151TIP3    H145944   4.088   4.524  11.821  0.0524 -1.3690  0.3250
 8151TIP3    H245945   4.237   4.529  11.797  0.0565  0.8142  0.7407
 8152TIP3   OH245946   0.737   6.729  15.581 -0.0616 -0.6959 -0.1670
 8152TIP3    H145947   0.747   6.703  15.489  1.6313 -0.5322 -0.0530
 8152TIP3    H245948   0.753   6.823  15.581  0.5308 -0.7892  0.3620
 8153TIP3   OH245949   3.507   5.003  16.305 -0.1273  0.5013 -0.2846
 8153TIP3    H145950   3.554   5.074  16.261  0.4175 -0.3403 -1.0784
 8153TIP3    H245951   3.512   4.930  16.244 -0.4941 -0.2937  0.6285
 8154TIP3   OH245952   6.562   6.736   3.416  0.1260 -0.2264 -0.0624
 8154TIP3    H145953   6.527   6.664   3.468 -0.8530  0.6910  0.5771
 8154TIP3    H245954   6.529   6.815   3.459 -1.3560  0.5444 -2.4954
 8155TIP3   OH245955   4.836   4.119   1.142 -0.1255 -0.3622  0.3735
 8155TIP3    H145956   4.887   4.102   1.063 -0.0736  0.1113  0.3042
 8155TIP3    H245957   4.759   4.167   1.112 -1.2632 -2.1540  0.3022
 8156TIP3   OH245958   3.959   5.932   1.959 -0.1485 -1.0903 -0.1433
 8156TIP3    H145959   3.972   5.999   1.891 -1.1596  0.1401  0.8442
 8156TIP3    H245960   3.865   5.920   1.963 -0.0891 -1.1567  1.0446
 8157TIP3   OH245961   4.455   6.053   1.487 -0.0051 -0.3332 -0.2992
 8157TIP3    H145962   4.487   5.994   1.419  0.4167 -0.1209 -0.2829
 8157TIP3    H245963   4.504   6.134   1.475  0.1286 -0.3180  0.3048
 8158TIP3   OH245964   5.850   4.255   6.334  0.6074  0.5301  0.0548
 8158TIP3    H145965   5.887   4.192   6.396 -0.9854 -1.1202 -0.6100
 8158TIP3    H245966   5.921   4.272   6.272  1.5889  0.6920  1.2072
 8159TIP3   OH245967   3.404   3.331   2.726  0.4735 -0.2609  0.5166
 8159TIP3    H145968   3.494   3.363   2.726  0.7644 -1.0401 -0.0100
 8159TIP3    H245969   3.357   3.391   2.668  0.7011  0.0296  0.6334
 8160TIP3   OH245970   2.729   5.217   1.831  1.0347  0.4089  0.3124
 8160TIP3    H145971   2.734   5.171   1.747  2.4233  0.9553  0.0757
 8160TIP3    H245972   2.639   5.248   1.836  1.7731  3.2916 -2.5935
 8161TIP3   OH245973   2.875   6.551  14.797  0.2726 -0.2733  0.4245
 8161TIP3    H145974   2.816   6.583  14.865  0.4565  0.3325  0.3078
 8161TIP3    H245975   2.885   6.625  14.737  0.8140 -0.5078  0.2180
 8162TIP3   OH245976   0.433   3.738   1.184 -0.6790 -0.3344  0.5974
 8162TIP3    H145977   0.448   3.817   1.132  0.1375  0.4991  2.0770
 8162TIP3    H245978   0.375   3.684   1.129 -1.9840  1.6574 -0.0338
 8163TIP3   OH245979   4.246   0.416  16.552  0.0787  0.7837  0.1454
 8163TIP3    H145980   4.286   0.466  16.482  1.5680  0.9707  1.1163
 8163TIP3    H245981   4.183   0.476  16.592 -1.4423  0.3807 -1.5855
 8164TIP3   OH245982   4.932   3.013   1.602  0.0443 -0.0140  0.3631
 8164TIP3    H145983   4.877   3.019   1.680  0.1370  0.9380  0.3686
 8164TIP3    H245984   4.908   3.090   1.551  0.4253 -0.3090 -0.2612
 8165TIP3   OH245985   5.354   5.565   1.466  0.5546 -0.7396 -0.3409
 8165TIP3    H145986   5.398   5.648   1.485  0.7068 -0.8877 -0.0426
 8165TIP3    H245987   5.368   5.552   1.372 -0.4026  0.1110 -0.6144
 8166TIP3   OH245988   3.187   0.508   3.918  0.0814 -0.3782 -0.4565
 8166TIP3    H145989   3.192   0.520   4.013 -3.2733 -0.1137 -0.2339
 8166TIP3    H245990   3.271   0.470   3.894  0.6744 -1.2782  2.7676
 8167TIP3   OH245991   5.111   6.442   0.945 -0.0923  0.1919 -0.2364
 8167TIP3    H145992   5.204   6.458   0.959 -0.1594 -0.7046  1.3064
 8167TIP3    H245993   5.067   6.511   0.994 -0.2715 -0.2666  0.2420
 8168TIP3   OH245994   5.373   3.015   1.897 -0.1886 -0.3116  0.0659
 8168TIP3    H145995   5.326   3.047   1.974  0.0311 -0.0636  0.0983
 8168TIP3    H245996   5.444   2.962   1.933  2.0638  2.6233  0.2027
 8169TIP3   OH245997   3.514   4.908  16.920  0.2764 -0.2228 -0.3428
 8169TIP3    H145998   3.528   5.002  16.910  1.5959 -0.2782  0.7610
 8169TIP3    H245999   3.542   4.870  16.837 -1.3094  0.4571 -1.1932
 8170TIP3   OH246000   2.332   5.461   4.517  0.5664  0.0520 -0.4171
 8170TIP3    H146001   2.325   5.477   4.612 -0.4002 -3.0666  0.0946
 8170TIP3    H246002   2.420   5.425   4.506  1.1215  1.5284 -0.9099
 8171TIP3   OH246003   1.334   0.770  11.045 -0.7673 -0.4910  0.1625
 8171TIP3    H146004   1.392   0.828  10.994 -0.3198 -0.1917  1.0066
 8171TIP3    H246005   1.246   0.792  11.014 -0.4299 -0.9676 -1.1472
 8172TIP3   OH246006   6.213   0.074  12.302 -0.2372 -0.2238 -0.1112
 8172TIP3    H146007   6.250   0.026  12.227  1.2024 -1.3034  1.2574
 8172TIP3    H246008   6.160   0.009  12.348 -0.2880  0.1597  0.3758
 8173TIP3   OH246009   0.302   2.532   5.927  0.5878  0.1794  0.0408
 8173TIP3    H146010   0.381   2.573   5.890  1.4386 -1.1958  0.2825
 8173TIP3    H246011   0.325   2.440   5.936 -0.7841 -0.1014  0.8657
 8174TIP3   OH246012   5.724   6.640  13.264 -0.3604  0.1258 -0.8767
 8174TIP3    H146013   5.805   6.689  13.277 -1.6522  1.6704  1.9337
 8174TIP3    H246014   5.748   6.549  13.281  1.0177  0.4109 -1.2116
 8175TIP3   OH246015   0.222   5.695  12.340 -0.2671 -0.1484  0.0009
 8175TIP3    H146016   0.238   5.733  12.253 -2.0523 -0.2567 -0.3890
 8175TIP3    H246017   0.130   5.714  12.358  0.2051  0.2585  2.0775
 8176TIP3   OH246018   4.707   2.435   1.161  0.4520 -0.3825 -0.3612
 8176TIP3    H146019   4.624   2.398   1.193  0.6450  0.6066  1.3719
 8176TIP3    H246020   4.740   2.486   1.235  2.8641 -1.1701 -0.8348
 8177TIP3   OH246021   4.494   3.450   4.136 -0.0191 -0.7623 -0.5004
 8177TIP3    H146022   4.486   3.356   4.150  0.6139 -1.2897 -3.3785
 8177TIP3    H246023   4.529   3.458   4.047  1.4005  2.1566  0.2534
 8178TIP3   OH246024   1.835   3.810   5.675 -0.4246  0.3506 -0.2189
 8178TIP3    H146025   1.913   3.763   5.703  0.3198  1.9745  0.5036
 8178TIP3    H246026   1.824   3.786   5.583  1.0374  0.2308 -0.3735
 8179TIP3   OH246027   2.865   5.617  15.851 -0.1503  0.9699 -0.0270
 8179TIP3    H146028   2.924   5.610  15.777 -0.0456 -1.1376  0.2054
 8179TIP3    H246029   2.778   5.627  15.812  0.2548  3.1437 -0.3797
 8180TIP3   OH246030   6.685   1.807   3.536  0.0232 -0.2876 -0.5072
 8180TIP3    H146031   6.736   1.731   3.506  0.4137 -0.2648  0.0944
 8180TIP3    H246032   6.599   1.795   3.496 -0.1122 -1.3890  0.0897
 8181TIP3   OH246033   3.903   6.070   0.503 -0.5296 -0.1453 -0.3404
 8181TIP3    H146034   3.812   6.050   0.482 -0.2489  1.0161 -2.8663
 8181TIP3    H246035   3.953   6.034   0.429  0.9577  0.2033  0.4771
 8182TIP3   OH246036   6.453   1.699  13.141  0.1555 -0.4175 -0.0339
 8182TIP3    H146037   6.437   1.757  13.215 -0.8724  1.9936 -2.1047
 8182TIP3    H246038   6.548   1.691  13.136  0.2188 -1.5162  2.1870
 8183TIP3   OH246039   4.381   3.785  12.929 -0.1251 -0.0044  0.2864
 8183TIP3    H146040   4.440   3.850  12.966 -0.4019  0.3950  0.0178
 8183TIP3    H246041   4.379   3.715  12.995 -0.6010  0.6959  1.0221
 8184TIP3   OH246042   1.366   0.940  13.872 -0.2734 -0.5304 -0.5127
 8184TIP3    H146043   1.351   0.867  13.813 -0.6866  0.4085 -1.5967
 8184TIP3    H246044   1.320   1.014  13.831  0.1001  0.3224  0.5710
 8185TIP3   OH246045   6.027   5.142   5.025  0.2063 -0.4368  0.7246
 8185TIP3    H146046   5.968   5.209   4.988  2.1092  0.5476 -0.5903
 8185TIP3    H246047   6.050   5.176   5.112  0.2406  0.0506  0.5283
 8186TIP3   OH246048   3.650   5.978  16.942 -0.3976  0.3562  0.0481
 8186TIP3    H146049   3.595   5.900  16.931 -0.2480  0.1623  0.6494
 8186TIP3    H246050   3.616   6.040  16.878 -1.7580  0.4850  0.8641
 8187TIP3   OH246051   0.815   4.667   0.410 -0.1536 -0.4553 -0.3815
 8187TIP3    H146052   0.770   4.608   0.470  1.6149 -0.5765  0.8704
 8187TIP3    H246053   0.775   4.650   0.325 -2.2331 -0.7690  0.6124
 8188TIP3   OH246054   0.422   1.540  14.291  0.5315  0.4458 -0.0569
 8188TIP3    H146055   0.340   1.491  14.294  2.1804 -2.4143 -0.3533
 8188TIP3    H246056   0.465   1.520  14.374  1.0081  1.8399  0.0527
 8189TIP3   OH246057   6.279   1.123  14.547 -0.4988 -0.2075  0.3602
 8189TIP3    H146058   6.216   1.055  14.570 -1.0277  0.0754 -0.2496
 8189TIP3    H246059   6.228   1.203  14.544 -0.5068 -0.2898 -2.1484
 8190TIP3   OH246060   1.811   2.737   2.863 -0.3161 -0.0977 -0.1818
 8190TIP3    H146061   1.782   2.693   2.943  0.0838 -1.3226 -0.7030
 8190TIP3    H246062   1.905   2.718   2.858  0.2174  2.2219  0.4743
 8191TIP3   OH246063   0.062   3.940  16.117  0.2458 -0.4800 -0.1155
 8191TIP3    H146064   0.016   3.950  16.034  1.0921  3.0664 -0.2627
 8191TIP3    H246065   0.149   3.909  16.093  0.2779 -0.0995 -0.4826
 8192TIP3   OH246066   5.663   6.213   2.167 -0.5077 -0.5711 -0.5926
 8192TIP3    H146067   5.739   6.269   2.153 -0.8858  1.1163  3.2883
 8192TIP3    H246068   5.592   6.274   2.189 -1.7157 -2.3570  0.6704
 8193TIP3   OH246069   6.093   6.812   4.787  0.0210  0.4306  0.8554
 8193TIP3    H146070   6.000   6.827   4.769 -0.4406 -0.6426  2.2435
 8193TIP3    H246071   6.100   6.717   4.796  1.1331  0.5624  1.4501
 8194TIP3   OH246072   5.493   5.666  15.762  0.0109  0.8203 -0.2143
 8194TIP3    H146073   5.582   5.672  15.799 -0.2964  1.0004  0.5025
 8194TIP3    H246074   5.445   5.738  15.802 -1.5705 -1.6476  2.5454
 8195TIP3   OH246075   1.407   2.529  14.016 -0.0660 -0.2412  0.7255
 8195TIP3    H146076   1.481   2.498  13.964  0.6915  1.2303  0.9080
 8195TIP3    H246077   1.438   2.526  14.107 -0.2660  0.2453  0.8128
 8196TIP3   OH246078   4.209   4.792  14.142 -0.0756 -0.8904 -0.2405
 8196TIP3    H146079   4.176   4.824  14.226  0.7804  1.4669 -0.7398
 8196TIP3    H246080   4.173   4.854  14.078  2.2168 -0.5026 -1.1985
 8197TIP3   OH246081   4.491   6.546  16.663  0.0790 -0.3303  0.5682
 8197TIP3    H146082   4.452   6.467  16.625  2.3271 -1.5749  0.7705
 8197TIP3    H246083   4.570   6.561  16.611  0.6904  0.6701  1.7702
 8198TIP3   OH246084   1.661   4.372  14.482 -0.3122  0.3043 -0.7743
 8198TIP3    H146085   1.601   4.310  14.525 -2.0946  1.3935 -1.6246
 8198TIP3    H246086   1.632   4.458  14.512  1.2533  0.8115 -0.6989
 8199TIP3   OH246087   1.141   3.720   4.613  0.0117  0.5981 -0.2182
 8199TIP3    H146088   1.150   3.810   4.584  0.3720 -0.0853 -2.2853
 8199TIP3    H246089   1.072   3.683   4.558  1.6325 -1.0882 -1.1836
 8200TIP3   OH246090   6.037   3.928   4.002 -0.8758  0.9351  0.1009
 8200TIP3    H146091   6.061   4.000   4.061 -1.5050  0.8106  0.5210
 8200TIP3    H246092   5.942   3.921   4.012 -0.6559 -0.9217  1.1865
 8201TIP3   OH246093   2.722   2.934   4.914 -0.3507 -0.2890 -1.0018
 8201TIP3    H146094   2.769   3.014   4.892  0.4723 -0.6878 -0.7556
 8201TIP3    H246095   2.783   2.863   4.890 -1.0942 -0.8366 -1.2859
 8202TIP3   OH246096   0.601   1.499  12.193 -0.0865  0.2954 -0.1677
 8202TIP3    H146097   0.527   1.452  12.232  1.6992 -0.4992  2.4071
 8202TIP3    H246098   0.601   1.584  12.237  1.3194 -0.2081  0.8304
 8203TIP3   OH246099   6.359   4.274   4.480  0.3678  0.5244 -0.2497
 8203TIP3    H146100   6.343   4.180   4.488  0.2683  0.5608 -0.0028
 8203TIP3    H246101   6.410   4.296   4.558 -0.4374  0.8524  0.1898
 8204TIP3   OH246102   3.621   5.440  16.565 -0.3786  0.0581 -0.1835
 8204TIP3    H146103   3.686   5.502  16.598  0.5325 -1.3596  0.7011
 8204TIP3    H246104   3.623   5.452  16.470  0.9454  0.2368 -0.1359
 8205TIP3   OH246105   2.791   3.155   1.002 -0.0130 -0.1162  0.3035
 8205TIP3    H146106   2.829   3.094   1.065  0.6657 -0.4212 -0.3880
 8205TIP3    H246107   2.825   3.125   0.917 -0.5772  0.5425 -0.1562
 8206TIP3   OH246108   5.385   3.243   2.325  0.1175  0.5688  0.2769
 8206TIP3    H146109   5.361   3.224   2.234  2.9604 -1.8611 -0.0549
 8206TIP3    H246110   5.320   3.195   2.377 -1.3490  1.7309 -0.4694
 8207TIP3   OH246111   2.319   5.345   2.770  0.2376  0.5420  0.1817
 8207TIP3    H146112   2.382   5.347   2.842  0.9606 -0.3839 -0.4082
 8207TIP3    H246113   2.247   5.290   2.802  1.4544 -1.5180 -0.4877
 8208TIP3   OH246114   6.793   2.735  11.323  0.2758 -0.0577 -0.7425
 8208TIP3    H146115   6.888   2.719  11.325  0.2133 -0.2147  1.7244
 8208TIP3    H246116   6.775   2.757  11.231  2.5652 -0.7986 -1.4060
 8209TIP3   OH246117   3.753   5.486   6.183  0.4156 -0.8695 -0.1398
 8209TIP3    H146118   3.757   5.391   6.178  1.8508 -0.8541  0.4116
 8209TIP3    H246119   3.661   5.508   6.167 -0.1938 -2.4243  1.1754
 8210TIP3   OH246120   4.100   5.553   5.567  0.1488 -0.2723 -0.1313
 8210TIP3    H146121   4.138   5.598   5.642  2.5099 -2.1319 -0.1520
 8210TIP3    H246122   4.025   5.504   5.602 -2.8911  4.0621 -0.2299
 8211TIP3   OH246123   5.475   0.557  14.793 -0.1647 -0.2003  0.0445
 8211TIP3    H146124   5.465   0.470  14.830 -0.2545  1.4347  4.1559
 8211TIP3    H246125   5.398   0.605  14.822  1.4319  2.1331  0.5689
 8212TIP3   OH246126   1.147   4.226   0.887  1.1466  0.3917 -0.1216
 8212TIP3    H146127   1.135   4.142   0.842  1.6523 -0.7736  1.8327
 8212TIP3    H246128   1.239   4.226   0.914  1.0780  1.4509  0.1439
 8213TIP3   OH246129   5.178   5.514   3.315  0.3946  0.3080  0.7813
 8213TIP3    H146130   5.176   5.591   3.259 -0.7537 -0.6829 -0.5589
 8213TIP3    H246131   5.208   5.443   3.258 -1.1825 -0.7927  1.2839
 8214TIP3   OH246132   2.052   5.482   0.319 -0.7500 -0.0378  0.3505
 8214TIP3    H146133   1.970   5.473   0.271 -0.9271 -0.0424  0.6500
 8214TIP3    H246134   2.046   5.416   0.388 -1.1186  0.9142  1.2380
 8215TIP3   OH246135   6.070   5.617   0.430 -0.6705  0.1073 -0.5429
 8215TIP3    H146136   6.157   5.643   0.401 -0.1386 -0.8641  0.1437
 8215TIP3    H246137   6.059   5.528   0.398 -1.1130 -0.0429  0.0059
 8216TIP3   OH246138   1.923   5.552  11.202  0.0915 -0.7193  0.1626
 8216TIP3    H146139   1.956   5.600  11.126  1.5568 -0.7430  0.7744
 8216TIP3    H246140   1.827   5.558  11.194  0.2291  2.3666  0.2709
 8217TIP3   OH246141   6.446   0.594   3.248  0.1173 -0.4166 -0.6680
 8217TIP3    H146142   6.480   0.680   3.220  0.5663 -0.6794 -0.9362
 8217TIP3    H246143   6.367   0.615   3.298  0.6738  0.2118 -0.0233
 8218TIP3   OH246144   0.656   3.650  15.983 -0.3735 -0.1811  0.5798
 8218TIP3    H146145   0.701   3.720  15.936  0.0491 -0.3165  0.7802
 8218TIP3    H246146   0.700   3.569  15.956 -1.8884 -0.5502 -0.8819
 8219TIP3   OH246147   1.276   4.561   5.819 -0.3666 -0.2199  0.4700
 8219TIP3    H146148   1.213   4.616   5.773  0.7121 -0.3297 -1.1803
 8219TIP3    H246149   1.283   4.599   5.907 -0.1139  1.8787 -0.4373
 8220TIP3   OH246150   5.767   3.459  15.845 -0.8192 -0.1925  0.1866
 8220TIP3    H146151   5.859   3.445  15.821 -0.4268  2.3225  0.0728
 8220TIP3    H246152   5.717   3.406  15.783  0.5308 -1.1234 -0.1299
 8221TIP3   OH246153   1.718   5.269  15.016  0.6746  0.4588 -0.3389
 8221TIP3    H146154   1.773   5.196  15.045  1.8616  1.7754  0.8054
 8221TIP3    H246155   1.647   5.228  14.966  1.9062 -1.3766 -0.6110
 8222TIP3   OH246156   4.896   3.243   4.891  0.5694  0.4079  0.1461
 8222TIP3    H146157   4.957   3.170   4.891 -0.7710 -0.7175  1.0692
 8222TIP3    H246158   4.816   3.208   4.851  0.4035  1.7718 -0.7528
 8223TIP3   OH246159   0.251   4.419   1.522  0.5138  0.0837  0.0174
 8223TIP3    H146160   0.166   4.444   1.486  0.1156 -0.5666  0.5056
 8223TIP3    H246161   0.250   4.451   1.612  0.7768  0.0488  0.0351
 8224TIP3   OH246162   0.242   0.329   3.125 -0.4370 -0.2873  0.2081
 8224TIP3    H146163   0.221   0.248   3.171 -2.2183 -0.2416 -0.4822
 8224TIP3    H246164   0.335   0.324   3.107 -0.3254 -1.6742  1.1599
 8225TIP3   OH246165   1.000   5.759  13.722  0.7313  0.6753  0.2625
 8225TIP3    H146166   0.972   5.759  13.630  0.7271 -0.4037  0.2515
 8225TIP3    H246167   1.015   5.851  13.743  2.9685  0.7634 -1.5110
 8226TIP3   OH246168   6.735   6.649   4.973  0.4580  0.2792 -0.4685
 8226TIP3    H146169   6.682   6.569   4.979  0.8355 -0.0267 -1.1162
 8226TIP3    H246170   6.686   6.705   4.913 -0.1110  0.7800  0.4572
 8227TIP3   OH246171   1.868   6.520  12.501 -0.4294  0.1153 -0.3934
 8227TIP3    H146172   1.794   6.510  12.560 -1.0600  2.2791 -0.7826
 8227TIP3    H246173   1.874   6.615  12.485  1.0665 -0.2293 -2.0704
 8228TIP3   OH246174   0.822   4.412   2.073  0.6983 -0.1014 -0.0431
 8228TIP3    H146175   0.834   4.504   2.051 -1.0514  0.4417  1.1745
 8228TIP3    H246176   0.903   4.387   2.118  2.0635  0.2234 -2.2130
 8229TIP3   OH246177   1.111   4.845  12.987  0.3123 -0.3568 -0.2859
 8229TIP3    H146178   1.144   4.929  12.954 -0.8442  0.5862  0.8807
 8229TIP3    H246179   1.096   4.861  13.081 -2.1047 -1.1724 -0.5024
 8230TIP3   OH246180   3.512   2.250  10.772  0.2106  0.1688 -0.7232
 8230TIP3    H146181   3.461   2.271  10.694 -0.4361  1.8879  0.1532
 8230TIP3    H246182   3.582   2.315  10.773  0.8758 -0.5402 -0.4556
 8231TIP3   OH246183   5.364   6.622  11.556 -0.4901 -0.5193  0.2403
 8231TIP3    H146184   5.419   6.544  11.559 -1.2630 -1.0384  1.2661
 8231TIP3    H246185   5.414   6.685  11.503 -0.3163 -2.0411 -1.4447
 8232TIP3   OH246186   0.826   3.399   3.567 -0.9694 -0.1427  0.2702
 8232TIP3    H146187   0.842   3.477   3.619 -1.0742  1.0494 -1.4550
 8232TIP3    H246188   0.853   3.326   3.624  0.8657  1.2375  1.2117
 8233TIP3   OH246189   5.906   6.573   3.749 -0.8110 -0.1644  1.0341
 8233TIP3    H146190   5.886   6.543   3.660 -0.5328 -1.2377  1.3228
 8233TIP3    H246191   5.869   6.661   3.754 -0.5859  0.0146 -0.2367
 8234TIP3   OH246192   6.553   1.241  10.593 -0.2825  0.1360 -0.2253
 8234TIP3    H146193   6.490   1.297  10.640  0.5305 -0.6350  1.8491
 8234TIP3    H246194   6.631   1.294  10.585  0.3148 -0.4711  1.2855
 8235TIP3   OH246195   0.336   2.603  15.063 -0.2966  0.0907  0.3484
 8235TIP3    H146196   0.292   2.686  15.045  0.8344  1.2120  2.5041
 8235TIP3    H246197   0.418   2.628  15.106  0.3464 -2.1302  0.5041
 8236TIP3   OH246198   2.124   4.539   0.522 -0.1778 -0.4454  0.0797
 8236TIP3    H146199   2.064   4.464   0.518  1.1201 -1.5631  0.9404
 8236TIP3    H246200   2.160   4.546   0.434 -1.6865  0.3438 -0.4905
 8237TIP3   OH246201   1.307   0.121  16.303 -0.4263 -0.1207  0.5015
 8237TIP3    H146202   1.384   0.157  16.259 -0.8534  1.3110  0.8886
 8237TIP3    H246203   1.297   0.033  16.267 -0.3683  0.7765 -1.7296
 8238TIP3   OH246204   6.374   3.771   0.148  0.0390 -0.4079 -0.3997
 8238TIP3    H146205   6.338   3.835   0.085 -1.3564  0.1687  0.9372
 8238TIP3    H246206   6.447   3.817   0.189  1.6644 -1.1844 -2.3529
 8239TIP3   OH246207   1.422   2.871   5.703  0.1656 -0.5941 -0.2704
 8239TIP3    H146208   1.454   2.884   5.613 -0.8362  1.1368 -0.3865
 8239TIP3    H246209   1.502   2.868   5.756  0.7456 -1.2394 -1.1666
 8240TIP3   OH246210   4.403   6.265  10.873  0.8294 -0.3404  0.0380
 8240TIP3    H146211   4.333   6.201  10.880  0.5217 -0.0368 -0.2791
 8240TIP3    H246212   4.473   6.231  10.929  0.2047 -0.3438  0.8187
 8241TIP3   OH246213   1.394   1.923   2.431 -0.4746 -0.0226  0.4277
 8241TIP3    H146214   1.348   1.843   2.457 -1.3051  0.9652  2.1169
 8241TIP3    H246215   1.380   1.983   2.505  0.6157  1.4797 -0.5680
 8242TIP3   OH246216   3.081   6.231  13.848  0.0028  0.2262 -0.2498
 8242TIP3    H146217   3.133   6.295  13.799 -0.4641 -0.7557 -2.0807
 8242TIP3    H246218   3.077   6.155  13.791 -2.5877 -0.0857  0.2888
 8243TIP3   OH246219   3.192   3.718   3.457  0.0667  0.1922 -1.3963
 8243TIP3    H146220   3.281   3.682   3.459  0.4652  1.1545 -1.6470
 8243TIP3    H246221   3.149   3.678   3.533  0.9275  0.2840 -0.8516
 8244TIP3   OH246222   3.301   0.319  12.050 -0.5758  0.0421 -0.3104
 8244TIP3    H146223   3.392   0.343  12.069 -0.5965  0.3224 -0.5645
 8244TIP3    H246224   3.279   0.367  11.970  0.1710 -2.7373 -2.2781
 8245TIP3   OH246225   6.585   4.540   5.861 -0.4892  0.4738  0.1544
 8245TIP3    H146226   6.556   4.529   5.952 -0.6629 -1.1229 -0.0791
 8245TIP3    H246227   6.508   4.519   5.808  0.2073 -0.7427 -0.4029
 8246TIP3   OH246228   4.267   3.790   1.748  0.6889 -0.3490 -0.5326
 8246TIP3    H146229   4.262   3.833   1.663  0.0905  1.6539  0.4916
 8246TIP3    H246230   4.349   3.821   1.786  0.5328 -0.5651 -0.0174
 8247TIP3   OH246231   3.309   0.398   5.229 -0.2803  0.1597  0.1746
 8247TIP3    H146232   3.256   0.340   5.175 -0.7815  2.1452 -1.5434
 8247TIP3    H246233   3.246   0.453   5.275  0.2115  1.3624 -0.5415
 8248TIP3   OH246234   0.558   5.290   4.231  0.2745  0.4885 -0.1443
 8248TIP3    H146235   0.587   5.201   4.251 -0.8425  0.2728  0.5186
 8248TIP3    H246236   0.584   5.342   4.308  0.4748  0.6371 -0.3115
 8249TIP3   OH246237   6.554   4.481  13.399 -0.2332 -0.1005 -0.7027
 8249TIP3    H146238   6.600   4.501  13.481 -2.5024  0.3527  0.5195
 8249TIP3    H246239   6.547   4.566  13.355 -3.2871  0.6055  0.9777
 8250TIP3   OH246240   6.536   6.478   0.113  0.2012 -0.0323 -0.5711
 8250TIP3    H146241   6.534   6.574   0.123 -3.1955 -0.2698  2.0663
 8250TIP3    H246242   6.489   6.462   0.031 -0.9298  0.4951 -0.0386
 8251TIP3   OH246243   5.527   4.807  13.983 -0.0318  0.1525 -0.2775
 8251TIP3    H146244   5.507   4.815  14.076  2.5521  0.3351  0.2995
 8251TIP3    H246245   5.528   4.712  13.967  0.0914  0.1043  0.0156
 8252TIP3   OH246246   0.656   5.175  12.913 -0.2985 -0.1084 -0.6182
 8252TIP3    H146247   0.620   5.260  12.888  2.0418  0.9208 -0.5881
 8252TIP3    H246248   0.673   5.131  12.830 -2.3015 -0.9339 -0.6292
 8253TIP3   OH246249   3.912   3.692  14.718  0.1919  0.4436 -0.0982
 8253TIP3    H146250   3.835   3.646  14.683 -0.2583  1.6518 -0.7165
 8253TIP3    H246251   3.900   3.688  14.813 -0.1980 -0.1056 -0.1619
 8254TIP3   OH246252   6.617   4.056  13.609  0.1413  0.0004 -0.5312
 8254TIP3    H146253   6.551   4.108  13.562 -0.1078  1.4148  1.3151
 8254TIP3    H246254   6.587   4.056  13.700  2.4568  0.2907  0.2651
 8255TIP3   OH246255   3.599   0.171   0.727 -0.3981 -0.1681  0.4721
 8255TIP3    H146256   3.642   0.185   0.643  1.2644  0.3560  1.3987
 8255TIP3    H246257   3.596   0.076   0.738  0.7110 -0.2017  0.4914
 8256TIP3   OH246258   0.072   1.253   0.982  0.4853  0.3536 -0.1188
 8256TIP3    H146259   0.072   1.240   1.077  0.4438  0.6361 -0.0808
 8256TIP3    H246260   0.032   1.339   0.969 -0.1447  0.0173 -0.4319
 8257TIP3   OH246261   6.765   6.380   1.684 -0.3176 -0.3015  0.5639
 8257TIP3    H146262   6.785   6.292   1.654 -2.0218 -1.1025  1.7547
 8257TIP3    H246263   6.675   6.376   1.716  0.0796  1.5039  2.0112
 8258TIP3   OH246264   6.477   0.256   0.959 -0.0370  0.5083  0.0802
 8258TIP3    H146265   6.467   0.348   0.933 -2.0217  0.5559  0.9160
 8258TIP3    H246266   6.425   0.248   1.039  1.3634 -0.9940  0.8575
 8259TIP3   OH246267   1.223   6.224   0.328  0.2256  0.4475 -0.0567
 8259TIP3    H146268   1.174   6.169   0.267  0.2819 -0.6989  0.9102
 8259TIP3    H246269   1.288   6.268   0.273 -0.1301 -0.0856 -0.9220
 8260TIP3   OH246270   1.546   4.898   3.778 -0.3337 -0.6191  0.4652
 8260TIP3    H146271   1.591   4.890   3.863  0.3167  0.1173  0.1970
 8260TIP3    H246272   1.616   4.896   3.713 -0.5027  2.1158  0.1133
 8261TIP3   OH246273   3.242   3.526   5.010  0.1360  0.5481 -0.4780
 8261TIP3    H146274   3.304   3.598   5.023 -0.3135  0.7182  0.8680
 8261TIP3    H246275   3.178   3.537   5.081 -0.3289 -0.7599 -0.6800
 8262TIP3   OH246276   3.092   1.560  14.127 -0.2498  0.1748 -0.0790
 8262TIP3    H146277   3.156   1.609  14.178 -1.0602  0.4708  0.6704
 8262TIP3    H246278   3.035   1.626  14.090  0.1489 -0.0618 -1.1263
 8263TIP3   OH246279   0.382   4.978  13.048  0.1188  0.2048 -0.0528
 8263TIP3    H146280   0.383   5.059  13.099 -2.0366  0.9969 -1.2149
 8263TIP3    H246281   0.367   4.909  13.113 -2.9654  1.2383  0.4005
 8264TIP3   OH246282   0.879   2.191   0.648  0.0754  0.0687  0.5070
 8264TIP3    H146283   0.811   2.199   0.581  1.0581  0.0353 -0.5298
 8264TIP3    H246284   0.843   2.233   0.725 -0.7438  0.8918 -0.3132
 8265TIP3   OH246285   5.573   4.427  13.449 -0.0470 -0.5793  0.2673
 8265TIP3    H146286   5.490   4.412  13.403  0.2870 -2.4710  0.2457
 8265TIP3    H246287   5.547   4.454  13.537 -0.6829 -0.4497  0.0437
 8266TIP3   OH246288   4.328   0.228  11.432  0.3922  0.2486 -0.2679
 8266TIP3    H146289   4.307   0.279  11.510  0.5070 -1.1768  0.7110
 8266TIP3    H246290   4.242   0.203  11.396  0.3464  0.4999 -0.3368
 8267TIP3   OH246291   1.518   4.467  15.341  0.0149 -0.0867 -0.2249
 8267TIP3    H146292   1.452   4.536  15.347  0.1850  0.2715 -2.1889
 8267TIP3    H246293   1.481   4.404  15.278  2.3819  1.1320 -2.9471
 8268TIP3   OH246294   1.766   4.075  16.311  0.3492  0.8102  0.4968
 8268TIP3    H146295   1.851   4.055  16.273  0.4587  0.4943  0.9070
 8268TIP3    H246296   1.703   4.059  16.240  0.7098  2.0388 -0.1228
 8269TIP3   OH246297   3.784   6.804   5.745  0.3161 -0.1189 -0.1405
 8269TIP3    H146298   3.726   6.746   5.794  0.8307 -0.9977 -0.5615
 8269TIP3    H246299   3.865   6.754   5.734  0.5712  0.4632 -1.0052
 8270TIP3   OH246300   4.894   1.586  17.248  0.2530 -0.5548 -0.0190
 8270TIP3    H146301   4.857   1.658  17.196 -0.0398 -0.4651  0.3172
 8270TIP3    H246302   4.899   1.621  17.337  0.5523 -0.7875  0.0536
 8271TIP3   OH246303   5.050   0.341   3.092 -0.1011 -0.0363  0.2539
 8271TIP3    H146304   4.994   0.419   3.091  0.6257  0.4852 -0.4465
 8271TIP3    H246305   5.103   0.351   3.171  1.1054  0.9893 -0.6701
 8272TIP3   OH246306   1.673   0.021  14.030 -0.3567 -0.8787  0.2067
 8272TIP3    H146307   1.687   0.114  14.009 -2.2937 -0.5426  0.3272
 8272TIP3    H246308   1.730  -0.026  13.968  0.3711  0.3760 -0.0906
 8273TIP3   OH246309   6.365   0.272  14.313 -0.5647 -0.1230 -0.9214
 8273TIP3    H146310   6.365   0.362  14.344 -1.6577 -0.3635 -0.2030
 8273TIP3    H246311   6.272   0.249  14.307 -0.2753 -1.4630 -0.3346
 8274TIP3   OH246312   1.385   0.728   2.093  0.2898 -0.3833 -0.2746
 8274TIP3    H146313   1.478   0.721   2.115  0.4142 -1.5440 -1.1286
 8274TIP3    H246314   1.375   0.816   2.057  0.9648 -0.0978  0.2257
 8275TIP3   OH246315   1.317   3.098   5.063 -0.3570  0.7440 -0.5736
 8275TIP3    H146316   1.399   3.051   5.073 -1.2607 -0.7333  0.0587
 8275TIP3    H246317   1.337   3.188   5.090  1.1394  0.5059 -0.8433
 8276TIP3   OH246318   1.242   5.709   5.874 -0.0731 -0.4546  0.7390
 8276TIP3    H146319   1.186   5.777   5.912 -0.9860 -0.9989  0.3797
 8276TIP3    H246320   1.280   5.664   5.950  0.4288  0.3597  0.9793
 8277TIP3   OH246321   4.835   6.182   2.975 -0.7018 -0.0985 -0.0942
 8277TIP3    H146322   4.891   6.104   2.974 -1.5917 -0.7381 -0.3139
 8277TIP3    H246323   4.820   6.201   2.882 -2.2659 -0.9578 -0.0298
 8278TIP3   OH246324   6.439   4.463   2.805  0.3342 -0.1372 -0.1708
 8278TIP3    H146325   6.351   4.501   2.803  0.0933 -0.6956 -0.5503
 8278TIP3    H246326   6.461   4.451   2.713  1.5620  1.6932 -0.1347
 8279TIP3   OH246327   6.114   5.834   1.775  0.0925 -0.1888  0.0475
 8279TIP3    H146328   6.123   5.910   1.719  2.0700 -0.1897  0.3066
 8279TIP3    H246329   6.024   5.804   1.762 -0.0058  0.8421 -1.7653
 8280TIP3   OH246330   2.462   3.059  14.822 -0.3076 -0.3552  0.0504
 8280TIP3    H146331   2.421   2.992  14.767  1.2055 -1.8294  0.7047
 8280TIP3    H246332   2.414   3.139  14.800 -2.0126 -1.5862 -0.8902
 8281TIP3   OH246333   5.670   6.666  11.426 -0.4679  0.0841 -0.0502
 8281TIP3    H146334   5.652   6.573  11.433  3.1712 -0.7490 -0.5194
 8281TIP3    H246335   5.723   6.675  11.347 -1.7243  2.7438 -0.6790
 8282TIP3   OH246336   0.188   3.796  13.602  0.1996  0.0646 -0.2427
 8282TIP3    H146337   0.206   3.880  13.562  0.5325 -0.3486 -0.9721
 8282TIP3    H246338   0.274   3.755  13.612  0.1222  0.1443  0.8586
 8283TIP3   OH246339   6.557   0.149   5.151  0.5007 -0.0826  0.3558
 8283TIP3    H146340   6.538   0.222   5.093  0.7663  1.0612  1.6949
 8283TIP3    H246341   6.477   0.138   5.203  0.4918 -0.6818  0.2173
 8284TIP3   OH246342   3.558   1.827  16.118  0.0342  0.3649 -0.3622
 8284TIP3    H146343   3.612   1.776  16.179 -0.4366 -1.5709 -1.5609
 8284TIP3    H246344   3.578   1.791  16.032 -1.1793  1.4374 -1.0995
 8285TIP3   OH246345   5.768   1.719  12.336  0.0047  0.1929  0.4544
 8285TIP3    H146346   5.758   1.805  12.377 -0.7170  0.3500 -0.0498
 8285TIP3    H246347   5.829   1.734  12.264 -0.3373  0.3342  0.1967
 8286TIP3   OH246348   0.739   2.587   1.027  0.1639  0.2801  0.2842
 8286TIP3    H146349   0.736   2.658   1.090 -0.9148 -0.1822  0.7722
 8286TIP3    H246350   0.654   2.592   0.982 -0.0014 -0.8285  0.4679
 8287TIP3   OH246351   2.267   5.097  15.558  0.5713 -0.3442  0.8503
 8287TIP3    H146352   2.224   5.047  15.628  0.2338 -0.1758  0.7629
 8287TIP3    H246353   2.360   5.076  15.568  0.2100 -3.0089 -0.7569
 8288TIP3   OH246354   2.683   5.547   4.232  0.3046 -0.3904  0.5708
 8288TIP3    H146355   2.663   5.623   4.287 -0.9617 -0.0185 -0.3799
 8288TIP3    H246356   2.655   5.471   4.283 -2.6261  0.0553 -0.2878
 8289TIP3   OH246357   6.477   0.309  14.973  0.4115  0.0923  0.0341
 8289TIP3    H146358   6.456   0.226  15.016  2.5448 -0.2962  0.4130
 8289TIP3    H246359   6.439   0.301  14.885 -0.9901 -0.5201  0.6789
 8290TIP3   OH246360   1.787   4.854  16.972  0.1747 -0.2943 -0.4827
 8290TIP3    H146361   1.792   4.898  17.057 -2.0749  1.3210 -1.1237
 8290TIP3    H246362   1.867   4.802  16.966  0.5483 -0.1345  2.4520
 8291TIP3   OH246363   3.313   4.472   6.231 -0.1901 -0.0405 -0.3526
 8291TIP3    H146364   3.332   4.400   6.290  0.4752  0.4657  0.0502
 8291TIP3    H246365   3.357   4.448   6.149 -2.3896 -1.4902 -1.1759
 8292TIP3   OH246366   2.638   6.065  16.656  0.1664  0.0134  0.3158
 8292TIP3    H146367   2.644   5.976  16.622  0.1866  0.1486 -0.0479
 8292TIP3    H246368   2.552   6.096  16.627  0.3310  0.2559  0.0802
 8293TIP3   OH246369   3.621   5.079  11.380  0.4855  0.0346  0.1177
 8293TIP3    H146370   3.643   5.161  11.336 -0.2859 -0.1832 -0.6743
 8293TIP3    H246371   3.615   5.015  11.310 -0.5377 -0.3582  0.5654
 8294TIP3   OH246372   4.890   3.716  14.738 -0.0103  0.1951 -0.1130
 8294TIP3    H146373   4.888   3.777  14.811 -2.7720 -0.1623  0.1663
 8294TIP3    H246374   4.859   3.766  14.663 -0.2702 -0.2865 -0.3340
 8295TIP3   OH246375   6.722   3.905  11.247 -0.2269 -0.0438  0.3041
 8295TIP3    H146376   6.753   3.896  11.338  2.2004  1.6461 -0.2960
 8295TIP3    H246377   6.665   3.981  11.248  1.5506  1.3327  0.0411
 8296TIP3   OH246378   5.396   6.570   0.536 -0.0758 -0.1124  0.0110
 8296TIP3    H146379   5.418   6.482   0.567 -0.5647  0.5903  2.4195
 8296TIP3    H246380   5.477   6.619   0.545 -0.2022  0.0759  0.1207
 8297TIP3   OH246381   5.373   2.707   4.356  0.0142  0.0369  0.2947
 8297TIP3    H146382   5.301   2.657   4.317 -0.8462 -0.8637  2.9104
 8297TIP3    H246383   5.451   2.656   4.336 -0.2724  0.0522 -0.9494
 8298TIP3   OH246384   3.915   5.203   2.457  0.6416 -0.5160  0.4734
 8298TIP3    H146385   3.867   5.121   2.452 -0.8977  0.4528 -2.3164
 8298TIP3    H246386   3.860   5.260   2.510  0.9191 -0.8008  1.0639
 8299TIP3   OH246387   6.452   2.517  14.969 -0.0456 -0.2752  0.1998
 8299TIP3    H146388   6.445   2.593  14.911  1.6990 -0.9912 -0.9979
 8299TIP3    H246389   6.495   2.550  15.048 -0.7081  0.3119  0.3121
 8300TIP3   OH246390   5.511   2.056   5.992 -0.0939  0.3462 -0.1845
 8300TIP3    H146391   5.455   2.101   6.056  0.5840  0.5920  0.2413
 8300TIP3    H246392   5.588   2.112   5.985  1.6962 -1.7771  1.8883
 8301TIP3   OH246393   0.430   1.778   1.990 -0.2551 -0.5513  0.1342
 8301TIP3    H146394   0.511   1.727   1.994 -0.5072 -0.8486  1.6881
 8301TIP3    H246395   0.362   1.720   2.024 -0.8688  0.1890  0.2028
 8302TIP3   OH246396   5.622   4.235   3.005 -0.7005 -0.3222  0.0845
 8302TIP3    H146397   5.593   4.241   3.096  0.1142  2.8086  0.2212
 8302TIP3    H246398   5.714   4.260   3.008 -0.7833  0.2694 -1.6600
 8303TIP3   OH246399   0.860   5.813   1.380 -0.1693 -0.6292 -0.2240
 8303TIP3    H146400   0.832   5.814   1.288 -0.0040 -0.6333 -0.2744
 8303TIP3    H246401   0.794   5.866   1.425  0.4279  0.4082 -0.5415
 8304TIP3   OH246402   2.364   1.806  10.914  0.0426 -0.0142 -0.4122
 8304TIP3    H146403   2.401   1.725  10.950  1.3789  0.2110 -1.2447
 8304TIP3    H246404   2.395   1.875  10.973  0.0301  0.0454 -0.4752
 8305TIP3   OH246405   0.650   4.756   2.856 -0.0498  0.1533 -0.1735
 8305TIP3    H146406   0.686   4.845   2.850  0.2922  0.2134  2.1004
 8305TIP3    H246407   0.632   4.745   2.949  2.4916 -3.1701  0.0168
 8306TIP3   OH246408   2.247   2.562   3.774  0.1101  0.0789  0.4890
 8306TIP3    H146409   2.249   2.560   3.869  0.7471  0.1969  0.4778
 8306TIP3    H246410   2.217   2.650   3.752 -1.6869 -0.4876  0.5982
 8307TIP3   OH246411   5.050   3.223   5.955 -0.3522 -0.3246  0.7413
 8307TIP3    H146412   5.013   3.302   5.997 -0.5505  0.0523 -0.1355
 8307TIP3    H246413   5.130   3.206   6.004 -1.1709 -0.5623  2.0232
 8308TIP3   OH246414   1.116   5.558  17.091  0.1239 -0.1958  0.0711
 8308TIP3    H146415   1.212   5.556  17.100  0.1503 -1.8611 -0.4396
 8308TIP3    H246416   1.102   5.581  16.999  0.0693 -1.5109 -0.2649
 8309TIP3   OH246417   4.310   2.601  13.337 -0.5591 -0.0731 -0.0388
 8309TIP3    H146418   4.347   2.525  13.291  1.7865  1.2226 -0.3761
 8309TIP3    H246419   4.323   2.581  13.430 -0.2097 -0.2110 -0.1168
 8310TIP3   OH246420   3.072   5.364  13.722  0.5498 -0.5599 -0.8386
 8310TIP3    H146421   3.005   5.362  13.790  0.6049 -1.7152 -0.8075
 8310TIP3    H246422   3.051   5.290  13.665  2.9659 -2.2561  0.3326
 8311TIP3   OH246423   1.697   1.281   0.453  0.1591  0.2184  0.1494
 8311TIP3    H146424   1.706   1.350   0.519 -0.1932  1.6488 -1.2525
 8311TIP3    H246425   1.614   1.299   0.410 -0.9477 -2.3448  1.1329
 8312TIP3   OH246426   5.109   1.665  12.404 -0.2945 -0.4362 -0.1850
 8312TIP3    H146427   5.038   1.672  12.340 -1.0013  2.6237  0.8257
 8312TIP3    H246428   5.065   1.646  12.487  0.0651  1.0580  0.3652
 8313TIP3   OH246429   4.051   2.444   4.643  0.4778 -0.3477  0.7690
 8313TIP3    H146430   4.057   2.454   4.548  0.0513 -0.8230  0.6862
 8313TIP3    H246431   4.052   2.349   4.656  2.3127 -0.2618  1.3639
 8314TIP3   OH246432   4.388   2.996   2.629  0.5624  0.1132  0.3085
 8314TIP3    H146433   4.322   2.992   2.699 -1.0774  0.1344 -1.2168
 8314TIP3    H246434   4.428   2.909   2.629 -0.7023 -0.4762  0.0706
 8315TIP3   OH246435   0.195   0.127  14.495  0.4901  0.0778  0.3457
 8315TIP3    H146436   0.103   0.145  14.477  1.0518  2.2754 -0.6096
 8315TIP3    H246437   0.212   0.170  14.579  1.4119  2.6430 -1.0865
 8316TIP3   OH246438   3.173   0.613  16.938  0.0113 -0.1889 -0.5174
 8316TIP3    H146439   3.089   0.650  16.910  0.1358  1.0571  0.7251
 8316TIP3    H246440   3.169   0.521  16.909 -1.3821  0.0936 -1.2974
 8317TIP3   OH246441   5.834   6.629  13.585 -0.0472 -0.4372  0.2215
 8317TIP3    H146442   5.774   6.598  13.653 -1.6452  0.8715 -0.5673
 8317TIP3    H246443   5.871   6.549  13.547 -2.6004 -1.3445 -0.4466
 8318TIP3   OH246444   6.788   3.977  14.351 -0.2269  0.2067  0.5736
 8318TIP3    H146445   6.772   4.072  14.346  0.6233  0.3162 -0.4290
 8318TIP3    H246446   6.780   3.947  14.260  0.5695 -0.4971  0.7284
 8319TIP3   OH246447   2.125   1.296  15.672  0.4821 -0.4080 -0.1992
 8319TIP3    H146448   2.093   1.374  15.719  1.5543  1.3192 -2.2644
 8319TIP3    H246449   2.220   1.307  15.670  0.5015 -0.8221 -2.1340
 8320TIP3   OH246450   0.419   0.755   0.046 -0.4402  0.5797 -0.3139
 8320TIP3    H146451   0.402   0.746   0.140 -0.7610 -1.8592 -0.5822
 8320TIP3    H246452   0.444   0.667   0.018  1.1380  1.6020 -2.2291
 8321TIP3   OH246453   2.764   0.502   2.300 -0.4757  0.3878  0.1920
 8321TIP3    H146454   2.697   0.461   2.355 -0.9163  2.3078  1.1185
 8321TIP3    H246455   2.820   0.549   2.362  0.7023  0.2375 -0.7452
 8322TIP3   OH246456   1.456   5.829   5.289 -0.1330 -0.0521 -0.3333
 8322TIP3    H146457   1.415   5.816   5.203 -0.5068  0.9069 -0.3029
 8322TIP3    H246458   1.486   5.920   5.288 -1.1273  0.3104  0.9601
 8323TIP3   OH246459   3.822   5.085  15.714  0.5931 -0.0383 -0.1760
 8323TIP3    H146460   3.848   5.002  15.753 -0.7827 -0.9433 -1.1499
 8323TIP3    H246461   3.728   5.090  15.726  0.8292  2.1035  1.1967
 8324TIP3   OH246462   5.130   4.985   0.450  0.4263 -0.4013  0.0589
 8324TIP3    H146463   5.090   4.908   0.489  1.9155 -1.5205 -0.5695
 8324TIP3    H246464   5.181   5.025   0.521 -0.3263 -0.0037  0.3776
 8325TIP3   OH246465   4.573   5.656  16.332 -0.2113  0.0017  0.0674
 8325TIP3    H146466   4.620   5.670  16.415  1.2857 -0.8291 -0.6244
 8325TIP3    H246467   4.580   5.739  16.286 -2.7114  1.0913  1.5679
 8326TIP3   OH246468   3.427   4.104  15.323  0.7436 -0.7282 -0.7474
 8326TIP3    H146469   3.383   4.126  15.241 -0.3759 -0.8021 -0.1783
 8326TIP3    H246470   3.355   4.091  15.386  1.6315  1.0955  0.6839
 8327TIP3   OH246471   2.284   6.513   2.892 -0.2918  0.0277  0.1698
 8327TIP3    H146472   2.338   6.578   2.848  0.8964  0.9863  2.9137
 8327TIP3    H246473   2.220   6.565   2.942 -1.9319 -1.0342 -0.7855
 8328TIP3   OH246474   3.054   1.285   5.581 -0.2983  0.6329 -0.5323
 8328TIP3    H146475   3.138   1.319   5.551  0.6177 -0.0009  1.2487
 8328TIP3    H246476   3.025   1.226   5.511  1.0607  0.3391 -0.8547
 8329TIP3   OH246477   0.785   2.477  12.796 -0.0468 -0.6048 -0.0651
 8329TIP3    H146478   0.840   2.399  12.782  1.9290  1.0048 -1.8117
 8329TIP3    H246479   0.845   2.550  12.781 -1.7336  1.2703  2.0822
 8330TIP3   OH246480   3.933   3.593   5.408  0.0510 -0.0769 -0.1660
 8330TIP3    H146481   4.021   3.623   5.383 -0.1077  0.5870  0.0604
 8330TIP3    H246482   3.949   3.509   5.453  0.5798  0.0918 -0.0291
 8331TIP3   OH246483   4.531   5.690   1.813 -0.2880  0.2646 -0.0412
 8331TIP3    H146484   4.597   5.662   1.749 -0.2492 -3.0837  1.3552
 8331TIP3    H246485   4.476   5.752   1.766  4.3137  3.8345 -1.0228
 8332TIP3   OH246486   3.363   0.440   2.986  0.2150  0.0764  0.4326
 8332TIP3    H146487   3.385   0.359   3.033  2.2428 -0.5231 -1.4555
 8332TIP3    H246488   3.382   0.510   3.049 -2.2665 -0.8970  2.3412
 8333TIP3   OH246489   0.645   3.455   5.100 -0.8114 -0.0718 -0.4506
 8333TIP3    H146490   0.680   3.423   5.017  0.5696 -0.8614  0.4170
 8333TIP3    H246491   0.605   3.378   5.140  1.6011 -0.5323  1.1743
 8334TIP3   OH246492   6.629   3.094   3.213  0.5637 -0.1085  0.1887
 8334TIP3    H146493   6.711   3.119   3.257  0.7870 -0.1497 -0.2047
 8334TIP3    H246494   6.612   3.004   3.243  0.5870 -0.0513  0.3771
 8335TIP3   OH246495   6.769   1.697  16.877  0.2476  0.2277  0.0218
 8335TIP3    H146496   6.776   1.602  16.887  2.8389  0.2365 -1.3931
 8335TIP3    H246497   6.833   1.732  16.939  0.4985  0.9918 -0.6688
 8336TIP3   OH246498   0.062   0.899  15.362  0.3656 -0.5531  0.1518
 8336TIP3    H146499   0.044   0.900  15.455  0.4890 -0.8583  0.1799
 8336TIP3    H246500   0.012   0.825  15.328  0.9459 -0.9300  0.1065
 8337TIP3   OH246501   6.544   6.175  13.155 -0.0567  0.2934 -0.1246
 8337TIP3    H146502   6.613   6.115  13.127 -0.1119  0.2672 -0.2084
 8337TIP3    H246503   6.463   6.132  13.127  0.0207  1.8187 -2.9189
 8338TIP3   OH246504   0.926   5.023  14.273 -0.0987 -0.2172  0.8547
 8338TIP3    H146505   0.911   4.994  14.184  1.3612  1.7759 -0.0806
 8338TIP3    H246506   0.889   4.954  14.328 -2.5625 -0.6513 -1.2848
 8339TIP3   OH246507   3.156   1.198   2.198 -0.0190  0.3109  0.3143
 8339TIP3    H146508   3.209   1.271   2.229  0.1153 -0.0293  0.8935
 8339TIP3    H246509   3.206   1.162   2.125 -0.2653  1.0267 -0.2121
 8340TIP3   OH246510   0.078   1.957   0.059  0.0264 -0.3405 -0.1761
 8340TIP3    H146511   0.038   1.941   0.144  0.1672  0.0314 -0.0413
 8340TIP3    H246512   0.073   1.872   0.014 -1.8747 -0.0486 -0.5680
 8341TIP3   OH246513   3.713   4.479   1.675 -0.1072  0.2577  0.0499
 8341TIP3    H146514   3.728   4.390   1.641  1.2888  0.4312  0.1665
 8341TIP3    H246515   3.785   4.493   1.736  1.0789  2.3907 -1.8016
 8342TIP3   OH246516   2.517   3.536   0.761 -0.2533  0.1958  0.0993
 8342TIP3    H146517   2.504   3.458   0.707 -0.9287 -0.3820  1.0851
 8342TIP3    H246518   2.607   3.528   0.793  0.2172  0.6388 -1.0730
 8343TIP3   OH246519   6.591   2.939  12.064 -0.2868 -0.1252 -0.1542
 8343TIP3    H146520   6.531   2.985  12.122  0.2643  1.5689 -0.8929
 8343TIP3    H246521   6.610   2.857  12.109 -0.5577  0.7672  1.6392
 8344TIP3   OH246522   4.178   0.465  13.027 -0.0131 -0.8204 -0.6652
 8344TIP3    H146523   4.183   0.506  12.940 -0.8128  0.3410 -0.1633
 8344TIP3    H246524   4.213   0.531  13.087 -0.0704 -1.3716 -0.0219
 8345TIP3   OH246525   1.374   0.459   3.300  0.1924 -0.0759 -0.1567
 8345TIP3    H146526   1.328   0.465   3.216  0.4083  0.4699 -0.2351
 8345TIP3    H246527   1.374   0.365   3.320  1.3669 -0.3759 -1.4494
 8346TIP3   OH246528   6.268   3.728   6.159  0.0662  0.0076  0.4997
 8346TIP3    H146529   6.178   3.706   6.138  0.5543 -2.9451  1.2679
 8346TIP3    H246530   6.319   3.697   6.084  0.5121  1.2303  0.2769
 8347TIP3   OH246531   6.265   4.937  16.941  0.1504  0.5413 -0.3849
 8347TIP3    H146532   6.188   4.895  16.979 -0.5249  0.9223 -1.2927
 8347TIP3    H246533   6.340   4.890  16.977 -0.5593 -0.7945 -0.6315
 8348TIP3   OH246534   3.060   1.594   1.683 -0.3696  0.6567  0.2489
 8348TIP3    H146535   3.144   1.550   1.668  0.1272  1.8447 -0.6097
 8348TIP3    H246536   2.994   1.527   1.665  0.3652  0.3556 -1.4745
 8349TIP3   OH246537   1.028   0.066  12.207  0.0854  0.7846  0.4663
 8349TIP3    H146538   1.119   0.038  12.209 -0.0853  0.2262  0.7863
 8349TIP3    H246539   1.009   0.080  12.115  0.1155 -0.3972  0.2689
 8350TIP3   OH246540   1.532   5.234  16.101  0.1550  0.1163  0.0791
 8350TIP3    H146541   1.495   5.319  16.126  2.8748  0.9144  1.5098
 8350TIP3    H246542   1.583   5.206  16.177  0.5445 -2.1080 -0.9494
 8351TIP3   OH246543   3.375   3.930   0.518  0.0117 -0.0975 -0.1982
 8351TIP3    H146544   3.352   3.841   0.545 -0.1759 -0.5340 -1.7549
 8351TIP3    H246545   3.293   3.979   0.526 -0.2281 -0.4091 -0.7303
 8352TIP3   OH246546   4.005   5.330  12.445 -0.1737  0.1056  0.4993
 8352TIP3    H146547   3.919   5.299  12.419  1.0958 -2.5241 -0.7483
 8352TIP3    H246548   4.004   5.424  12.426 -2.3264 -0.1361 -0.6844
 8353TIP3   OH246549   6.809   6.287  15.700  0.2653 -0.0267 -0.3622
 8353TIP3    H146550   6.719   6.286  15.668 -0.0557 -0.8802  0.5591
 8353TIP3    H246551   6.849   6.208  15.662 -0.2293 -1.2590  1.6326
 8354TIP3   OH246552   2.695   0.563   3.105  0.6911 -0.2820 -0.1248
 8354TIP3    H146553   2.679   0.523   3.191  0.4727 -0.0239 -0.0425
 8354TIP3    H246554   2.610   0.600   3.081  1.0961  0.8545  0.1759
 8355TIP3   OH246555   6.383   0.310   6.415 -0.0130  0.0818  0.5948
 8355TIP3    H146556   6.429   0.373   6.469  1.7239 -0.5272 -0.1470
 8355TIP3    H246557   6.450   0.249   6.386 -1.7342 -2.5417  1.8556
 8356TIP3   OH246558   5.309   6.513   1.340 -0.3358 -0.1118  0.2418
 8356TIP3    H146559   5.217   6.495   1.359 -0.7486 -1.0729 -2.3288
 8356TIP3    H246560   5.349   6.426   1.335  0.4698  0.2562  0.3573
 8357TIP3   OH246561   3.789   4.274  13.705  0.2971 -0.0261 -0.1284
 8357TIP3    H146562   3.743   4.354  13.678  2.5827  0.7794 -1.8070
 8357TIP3    H246563   3.777   4.214  13.630  1.3374 -0.0720 -0.2608
 8358TIP3   OH246564   6.698   1.447  10.320 -0.9741  0.6701 -0.2531
 8358TIP3    H146565   6.606   1.443  10.295 -0.5289 -1.8981 -1.6710
 8358TIP3    H246566   6.745   1.457  10.238  0.0340  2.0875  0.4723
 8359TIP3   OH246567   2.975   6.421   5.486 -0.1640 -0.3302  0.2596
 8359TIP3    H146568   2.913   6.379   5.426  0.3045  0.1463 -0.5637
 8359TIP3    H246569   3.050   6.362   5.488  0.6139  0.6029 -1.1208
 8360TIP3   OH246570   3.236   1.110   4.271  0.0860  0.0618 -0.1475
 8360TIP3    H146571   3.262   1.049   4.202 -0.5198  0.3868 -0.6698
 8360TIP3    H246572   3.277   1.075   4.351 -0.4477 -1.1486 -0.3937
 8361TIP3   OH246573   5.900   1.618   2.818  0.0960 -0.4442  0.1949
 8361TIP3    H146574   5.818   1.666   2.819  0.2581 -0.1098  3.1467
 8361TIP3    H246575   5.878   1.531   2.785 -1.1967  0.0401 -0.2156
 8362TIP3   OH246576   3.319   2.976  11.784  0.3329 -0.4602 -0.1851
 8362TIP3    H146577   3.292   3.067  11.794 -0.0464 -0.8051  2.2003
 8362TIP3    H246578   3.366   2.974  11.701 -1.0840  1.5609 -1.0723
 8363TIP3   OH246579   2.301   5.284   0.410 -0.5314 -0.3300  0.1013
 8363TIP3    H146580   2.297   5.223   0.337 -1.2711  0.0821 -0.2084
 8363TIP3    H246581   2.216   5.277   0.452  0.7050 -2.2839  2.3480
 8364TIP3   OH246582   3.106   0.135   3.537 -0.5309  0.4281  0.3164
 8364TIP3    H146583   3.021   0.158   3.575 -0.5268  0.0542  0.5477
 8364TIP3    H246584   3.167   0.138   3.610 -0.3096  0.8672  0.1186
 8365TIP3   OH246585   3.406   0.242  11.371  0.2708  0.0252 -1.0861
 8365TIP3    H146586   3.426   0.150  11.389  2.6498  0.8487  0.7517
 8365TIP3    H246587   3.329   0.239  11.314 -0.5428 -3.0481  0.0817
 8366TIP3   OH246588   1.234   1.407   1.242  0.0477  0.4903  0.6076
 8366TIP3    H146589   1.193   1.416   1.328  1.6715  0.6494  1.4065
 8366TIP3    H246590   1.225   1.314   1.222  0.3608  0.2917  1.3380
 8367TIP3   OH246591   4.379   0.551   2.679  0.0331 -0.6916 -0.0643
 8367TIP3    H146592   4.444   0.490   2.714 -0.5517 -0.5127  1.3680
 8367TIP3    H246593   4.331   0.581   2.756  0.0203  1.2407 -0.8086
 8368TIP3   OH246594   2.096   3.969   6.701  0.1796 -0.1713 -0.1817
 8368TIP3    H146595   2.035   4.004   6.765  0.9114  1.1334 -0.1900
 8368TIP3    H246596   2.109   3.878   6.727 -1.0648 -0.2090  0.3388
 8369TIP3   OH246597   1.560   3.210   2.214  0.0034 -0.0262 -0.0884
 8369TIP3    H146598   1.565   3.118   2.189  0.6779  0.3768 -1.4805
 8369TIP3    H246599   1.563   3.209   2.310  0.1055 -1.4424 -0.1021
 8370TIP3   OH246600   5.742   2.191   5.287 -0.0234 -0.2365 -0.4265
 8370TIP3    H146601   5.670   2.251   5.268  0.8470  0.3579 -1.8979
 8370TIP3    H246602   5.790   2.233   5.358  0.2012  0.4906 -1.0030
 8371TIP3   OH246603   6.044   4.620   3.523  0.9751 -0.0244  1.2004
 8371TIP3    H146604   6.134   4.591   3.512  0.3558 -1.6199  0.1996
 8371TIP3    H246605   5.998   4.590   3.445 -0.3597  1.0744  1.5271
 8372TIP3   OH246606   0.546   2.360   5.605 -0.4853  0.3293 -0.0874
 8372TIP3    H146607   0.553   2.298   5.678 -0.0501  0.0309 -0.3821
 8372TIP3    H246608   0.553   2.447   5.646 -0.9894  0.1850  0.3102
 8373TIP3   OH246609   3.654   5.985   2.380  0.1000 -0.3571  0.4654
 8373TIP3    H146610   3.709   6.039   2.437  0.3848  0.2890 -0.4168
 8373TIP3    H246611   3.564   6.009   2.403  0.2374  1.0551 -0.4606
 8374TIP3   OH246612   4.164   5.708   2.982  0.2699 -0.1695  0.3471
 8374TIP3    H146613   4.134   5.786   2.936  2.9216  1.0632  0.5981
 8374TIP3    H246614   4.230   5.740   3.043  0.5999 -2.4763  1.2560
 8375TIP3   OH246615   5.468   2.113  15.604 -0.0053 -0.7618  0.2344
 8375TIP3    H146616   5.545   2.153  15.563  0.7014 -0.6008  1.6884
 8375TIP3    H246617   5.471   2.021  15.578  0.2053 -0.5755 -0.4045
 8376TIP3   OH246618   1.739   1.324  12.116 -0.2118 -0.3354 -0.2591
 8376TIP3    H146619   1.811   1.311  12.055 -0.0523 -0.2845 -0.0809
 8376TIP3    H246620   1.781   1.347  12.199 -0.4482  0.1671 -0.2740
 8377TIP3   OH246621   3.699   3.033  12.224  0.1014  0.2741  0.7916
 8377TIP3    H146622   3.636   2.995  12.286 -1.0846  0.8118 -0.0684
 8377TIP3    H246623   3.759   2.961  12.204 -1.6400 -0.9518 -0.1916
 8378TIP3   OH246624   0.170   0.447  12.828 -0.2808  0.2041  0.1569
 8378TIP3    H146625   0.112   0.523  12.831 -0.7994 -0.2136  0.6649
 8378TIP3    H246626   0.116   0.377  12.789 -0.4920 -0.5072  1.6995
 8379TIP3   OH246627   0.363   2.519  12.927  0.2791  0.1494  0.2482
 8379TIP3    H146628   0.331   2.459  12.859  1.7964 -0.4337  0.0146
 8379TIP3    H246629   0.458   2.508  12.924  0.3255 -0.4399  2.9804
 8380TIP3   OH246630   6.693   3.272  11.473 -1.0626 -0.0971  0.2691
 8380TIP3    H146631   6.678   3.178  11.468  0.2838 -0.3772  1.1011
 8380TIP3    H246632   6.745   3.293  11.395 -1.0994 -0.1006  0.2437
 8381TIP3   OH246633   5.957   3.410   0.348  0.0548 -0.2178 -0.4816
 8381TIP3    H146634   6.021   3.396   0.418 -1.1625  2.2100  1.1635
 8381TIP3    H246635   6.004   3.387   0.268  3.1232  1.8160  0.6581
 8382TIP3   OH246636   4.860   1.679  14.231 -0.3903  0.1692 -0.7738
 8382TIP3    H146637   4.929   1.616  14.251 -0.6424 -0.2262 -1.1342
 8382TIP3    H246638   4.809   1.685  14.312  1.8389  2.7825  0.5324
 8383TIP3   OH246639   4.816   0.212   1.072 -0.0119  0.5627  0.4755
 8383TIP3    H146640   4.722   0.217   1.087 -0.1322  1.3587 -0.5000
 8383TIP3    H246641   4.827   0.238   0.980  1.2356  1.2872  0.8288
 8384TIP3   OH246642   0.069   6.729   2.221  0.1013 -0.3243  0.4772
 8384TIP3    H146643   0.082   6.651   2.168  1.1949 -0.8546  1.5139
 8384TIP3    H246644   0.086   6.802   2.160  2.7092 -0.9378  0.4105
 8385TIP3   OH246645   4.267   3.649  11.415  0.6797  0.2526 -0.9774
 8385TIP3    H146646   4.173   3.649  11.396  0.6142  1.8058 -0.7574
 8385TIP3    H246647   4.308   3.642  11.329  0.3739 -0.7436 -1.0534
 8386TIP3   OH246648   4.001   4.604  10.939  0.0357  0.4824 -0.0981
 8386TIP3    H146649   3.940   4.535  10.911 -1.1328  0.7582  1.6683
 8386TIP3    H246650   4.066   4.608  10.869 -1.2341 -0.7479 -1.3936
 8387TIP3   OH246651   2.510   2.790   5.783  0.0533  0.2258  0.1886
 8387TIP3    H146652   2.451   2.786   5.707  0.7011  1.3813 -0.3925
 8387TIP3    H246653   2.576   2.854   5.758  0.8979 -0.1972  1.3085
 8388TIP3   OH246654   0.675   2.881   1.635 -0.0915  0.3679  0.3636
 8388TIP3    H146655   0.696   2.952   1.573  1.5902 -0.9652 -0.6387
 8388TIP3    H246656   0.706   2.802   1.591 -2.9932 -1.1606  0.9567
 8389TIP3   OH246657   6.491   2.679  12.818 -0.3602  0.3463 -0.1248
 8389TIP3    H146658   6.508   2.772  12.835 -0.8127  0.4849 -0.4436
 8389TIP3    H246659   6.523   2.665  12.729 -1.1149  0.4076 -0.4095
 8390TIP3   OH246660   1.541   2.466  13.318  0.1965  0.0069  0.1808
 8390TIP3    H146661   1.517   2.522  13.244 -0.1890  1.8136  1.6660
 8390TIP3    H246662   1.474   2.397  13.318 -1.5371  1.6452  0.6223
 8391TIP3   OH246663   0.497   4.235  12.589  0.0275  0.4380 -0.2657
 8391TIP3    H146664   0.558   4.162  12.598  3.2832  3.3472  3.2094
 8391TIP3    H246665   0.538   4.292  12.525  0.1243  1.5742  0.7860
 8392TIP3   OH246666   6.039   2.609  12.907  0.6770 -0.2165 -0.0500
 8392TIP3    H146667   6.021   2.699  12.933 -0.1069 -0.4227  0.1484
 8392TIP3    H246668   5.996   2.555  12.973 -0.3307 -0.7336 -1.0913
 8393TIP3   OH246669   0.113   2.798   1.071 -0.6213  0.2857  0.5205
 8393TIP3    H146670   0.042   2.780   1.134  0.7634  0.6709  2.2437
 8393TIP3    H246671   0.107   2.893   1.056  0.2975  0.5330  1.6483
 8394TIP3   OH246672   1.879   0.621  13.874  0.6735  0.1941 -0.1832
 8394TIP3    H146673   1.880   0.710  13.907  0.0232 -0.2881  1.1763
 8394TIP3    H246674   1.821   0.574  13.934  1.0412 -1.1440 -0.8593
 8395TIP3   OH246675   3.705   2.196   4.353 -0.3310 -0.2659 -1.0689
 8395TIP3    H146676   3.644   2.262   4.321  1.8907  1.9197 -0.8488
 8395TIP3    H246677   3.713   2.134   4.281 -3.2677 -0.9608 -0.8764
 8396TIP3   OH246678   1.721   1.575  12.388  0.3563 -0.2946 -0.1313
 8396TIP3    H146679   1.670   1.611  12.461  0.5968  0.2719 -0.2417
 8396TIP3    H246680   1.726   1.481  12.407 -0.8197 -0.3683 -0.1805
 8397TIP3   OH246681   5.776   2.372  13.392 -0.2521  0.2488 -0.0069
 8397TIP3    H146682   5.722   2.451  13.398 -1.1094 -0.2491 -0.9701
 8397TIP3    H246683   5.781   2.340  13.482  0.3048  1.5256  0.4333
 8398TIP3   OH246684   2.901   0.023   0.668 -0.2151  0.5592 -0.3939
 8398TIP3    H146685   2.932  -0.008   0.753 -0.4503  1.2771 -0.0348
 8398TIP3    H246686   2.974   0.073   0.632  0.7388 -1.7187 -1.6882
 8399TIP3   OH246687   6.607   2.041  15.604 -0.6253  0.1449  0.2329
 8399TIP3    H146688   6.584   2.065  15.515 -2.2006 -0.5585  0.4390
 8399TIP3    H246689   6.636   1.950  15.598  0.5005  0.4993  0.2417
 8400TIP3   OH246690   4.510   0.599   3.414  0.4146 -0.1408 -0.4735
 8400TIP3    H146691   4.497   0.506   3.394  0.8615 -0.1952 -0.5232
 8400TIP3    H246692   4.530   0.600   3.508 -2.2284  0.1646  0.1292
 8401TIP3   OH246693   1.454   0.210  14.828 -0.1184  0.5339  0.0823
 8401TIP3    H146694   1.427   0.169  14.745  2.9547  0.0890 -0.7606
 8401TIP3    H246695   1.409   0.294  14.829  0.1752  0.7664 -2.3166
 8402TIP3   OH246696   0.346   4.123  16.308  0.1504  0.3670 -0.4166
 8402TIP3    H146697   0.402   4.165  16.242  2.5245  0.6453  1.6947
 8402TIP3    H246698   0.367   4.168  16.389 -1.3960 -1.1858  0.8871
 8403TIP3   OH246699   5.410   3.707  13.045 -0.0234  0.2363 -0.2761
 8403TIP3    H146700   5.478   3.775  13.045  1.1603 -0.8962  1.3564
 8403TIP3    H246701   5.458   3.625  13.057 -1.6107 -0.6857 -0.0679
 8404TIP3   OH246702   3.397   1.533  16.858  0.6855 -0.0460 -0.3272
 8404TIP3    H146703   3.336   1.460  16.868  0.2141  0.4916  0.9320
 8404TIP3    H246704   3.347   1.609  16.889  1.4310  0.6739 -0.8839
 8405TIP3   OH246705   4.040   6.721   2.009  0.4081 -0.2783  0.3969
 8405TIP3    H146706   3.993   6.706   2.091  0.9565  0.0710  0.7794
 8405TIP3    H246707   4.108   6.785   2.032 -0.3779  0.9740 -0.6615
 8406TIP3   OH246708   1.372   5.994  13.373 -0.5079 -0.2439 -0.1196
 8406TIP3    H146709   1.407   5.916  13.329  0.5616 -0.3265  0.8670
 8406TIP3    H246710   1.375   6.062  13.305 -0.6520 -0.8412 -0.7363
 8407TIP3   OH246711   5.809   5.279  17.211  0.4234 -0.4821  0.2281
 8407TIP3    H146712   5.768   5.214  17.267  0.0732  0.1361  0.6945
 8407TIP3    H246713   5.852   5.340  17.271  1.0223 -0.4610 -0.2163
 8408TIP3   OH246714   5.539   6.688  15.651 -0.5476 -0.0066  0.3741
 8408TIP3    H146715   5.575   6.745  15.583  3.4921 -2.0085  0.6823
 8408TIP3    H246716   5.502   6.748  15.716  0.4519  2.1304 -0.9834
 8409TIP3   OH246717   2.423   6.472   1.324 -0.3535 -0.3971 -0.2823
 8409TIP3    H146718   2.455   6.391   1.285  1.2750 -0.2253  0.6806
 8409TIP3    H246719   2.475   6.484   1.403 -0.0959  1.9502 -0.7513
 8410TIP3   OH246720   0.284   3.611   3.021  0.2316 -0.1979  0.1814
 8410TIP3    H146721   0.204   3.654   2.991  0.8688  0.3906 -0.7193
 8410TIP3    H246722   0.349   3.682   3.023  1.1561 -1.0033 -0.7981
 8411TIP3   OH246723   3.689   0.670   5.472 -0.5998  0.3491 -0.6187
 8411TIP3    H146724   3.614   0.678   5.531 -0.0853  0.8411 -0.0244
 8411TIP3    H246725   3.654   0.686   5.385 -1.7000 -1.9980 -0.6532
 8412TIP3   OH246726   2.760   1.082  14.044 -0.0305 -0.4107  0.0651
 8412TIP3    H146727   2.687   1.039  14.087  0.5959 -0.9971  0.5532
 8412TIP3    H246728   2.804   1.130  14.114 -0.4640  0.6782 -0.3912
 8413TIP3   OH246729   3.655   6.184  14.926 -0.1608 -0.4503 -0.0057
 8413TIP3    H146730   3.626   6.150  14.841  1.7029  1.5248 -1.4919
 8413TIP3    H246731   3.649   6.279  14.917  2.5398 -0.1242  1.1329
 8414TIP3   OH246732   2.470   5.032   0.539 -0.1123  0.1239  0.1231
 8414TIP3    H146733   2.502   5.042   0.449 -1.0643  2.0114 -0.0244
 8414TIP3    H246734   2.470   5.121   0.574 -2.1222 -0.2696  1.1746
 8415TIP3   OH246735   5.201   5.434  12.827  0.2006  0.6414 -0.6217
 8415TIP3    H146736   5.207   5.527  12.805 -0.2413  0.9801  0.6056
 8415TIP3    H246737   5.120   5.427  12.877  0.3183 -0.3815 -0.5639
 8416TIP3   OH246738   5.246   6.761  13.601 -0.0325 -0.3540  0.0443
 8416TIP3    H146739   5.289   6.821  13.662  2.8872 -0.6692 -1.6147
 8416TIP3    H246740   5.295   6.771  13.519 -2.9817 -0.9723 -1.8617
 8417TIP3   OH246741   4.547   3.094  15.791  0.1341  0.0342 -0.3013
 8417TIP3    H146742   4.630   3.125  15.828 -0.5119  2.8203 -1.0583
 8417TIP3    H246743   4.542   3.136  15.705 -0.9538 -2.0204 -1.2748
 8418TIP3   OH246744   4.091   1.265   6.286 -0.3792 -0.0648  0.0086
 8418TIP3    H146745   4.007   1.230   6.317 -0.0910 -0.0388  0.8236
 8418TIP3    H246746   4.076   1.360   6.277 -0.9002 -0.2571 -1.3701
 8419TIP3   OH246747   0.429   1.094  13.237 -0.3138  0.2470 -0.3001
 8419TIP3    H146748   0.355   1.086  13.177 -0.5859  0.3358  0.0229
 8419TIP3    H246749   0.395   1.146  13.310 -0.5462 -1.4818  0.8380
 8420TIP3   OH246750   3.066   2.277  12.153  0.2770  0.0613  0.0709
 8420TIP3    H146751   3.029   2.189  12.166  0.0092  0.0191 -0.9352
 8420TIP3    H246752   3.023   2.331  12.219 -1.5632  0.0030 -1.0488
 8421TIP3   OH246753   6.679   1.003   3.602 -0.1443 -0.7891 -0.1885
 8421TIP3    H146754   6.654   1.072   3.663 -1.1411 -2.1807  0.9963
 8421TIP3    H246755   6.770   1.023   3.580  0.0672  0.0215  1.3559
 8422TIP3   OH246756   6.368   1.114   4.764 -0.0072  0.2735  0.1711
 8422TIP3    H146757   6.357   1.047   4.696 -2.4561  1.7419 -0.9608
 8422TIP3    H246758   6.462   1.119   4.779  0.4473 -1.0844 -2.1017
 8423TIP3   OH246759   3.220   3.193  13.910 -0.9047  0.4599 -0.5917
 8423TIP3    H146760   3.160   3.235  13.848  1.2069  0.3404 -2.7985
 8423TIP3    H246761   3.299   3.176  13.859  1.1574  0.9242  2.3261
 8424TIP3   OH246762   2.966   2.153  12.641  0.0172 -0.3821 -0.0473
 8424TIP3    H146763   2.982   2.181  12.731  0.7582 -1.7242  0.2646
 8424TIP3    H246764   3.029   2.202  12.589  0.1247 -0.1833  0.2669
 8425TIP3   OH246765   0.455   1.527   5.742 -0.0243 -0.0602  0.4608
 8425TIP3    H146766   0.386   1.546   5.678  0.3980  2.0238  0.6112
 8425TIP3    H246767   0.535   1.522   5.690  0.3729  1.9754  0.8341
 8426TIP3   OH246768   2.632   2.262  11.947  0.3742  0.2188 -0.5387
 8426TIP3    H146769   2.565   2.268  11.878  1.3424  0.5185 -1.4712
 8426TIP3    H246770   2.619   2.175  11.985  0.7317 -0.5286 -2.0653
 8427TIP3   OH246771   5.803   0.672   2.775 -0.7851 -0.9706  0.7141
 8427TIP3    H146772   5.892   0.644   2.796 -0.4377 -0.8737 -0.5434
 8427TIP3    H246773   5.751   0.592   2.780 -0.6544 -0.9985  1.6150
 8428TIP3   OH246774   0.940   3.853   5.094 -0.9460  0.5981  0.3027
 8428TIP3    H146775   0.956   3.946   5.083 -1.3908  0.4311 -2.1110
 8428TIP3    H246776   0.850   3.840   5.062 -0.9467 -0.6239  0.7678
 8429TIP3   OH246777   6.530   1.297  11.681  0.1088 -0.5371 -0.2387
 8429TIP3    H146778   6.528   1.279  11.587 -3.8375  1.3905 -0.6507
 8429TIP3    H246779   6.539   1.392  11.686  0.0041 -0.6130  1.3503
 8430TIP3   OH246780   6.036   4.378   0.363  0.7011  0.1100 -0.0727
 8430TIP3    H146781   5.972   4.327   0.411 -1.0116  0.3634 -1.9780
 8430TIP3    H246782   6.029   4.467   0.399  1.4584 -0.3178  1.1231
 8431TIP3   OH246783   6.592   1.055   1.274 -0.0491 -0.4679  0.4439
 8431TIP3    H146784   6.680   1.021   1.264 -0.5676 -1.4507 -0.9460
 8431TIP3    H246785   6.581   1.069   1.368  1.3696 -0.9006  0.6698
 8432TIP3   OH246786   1.321   1.868  15.283 -0.2877 -0.1325 -0.4849
 8432TIP3    H146787   1.326   1.922  15.362  0.5856  0.2815 -0.8226
 8432TIP3    H246788   1.323   1.778  15.316  2.4976  0.0136 -0.1506
 8433TIP3   OH246789   5.000   0.471  12.188 -0.1255 -0.2476 -0.2296
 8433TIP3    H146790   4.958   0.432  12.112 -1.9497  1.3521 -0.0995
 8433TIP3    H246791   5.018   0.561  12.162 -0.2904  0.1703  1.0485
 8434TIP3   OH246792   4.503   2.324   6.375 -0.4105  0.1621 -0.2291
 8434TIP3    H146793   4.580   2.374   6.349 -0.6690  0.7476  0.1172
 8434TIP3    H246794   4.491   2.346   6.468  0.1549 -1.4299  0.2389
 8435TIP3   OH246795   4.807   6.157   2.183 -0.1038  0.0017 -0.2679
 8435TIP3    H146796   4.862   6.107   2.123  0.6763  0.7095 -0.1648
 8435TIP3    H246797   4.846   6.245   2.182 -1.3879  0.5724 -0.3793
 8436TIP3   OH246798   3.528   5.050  16.582 -0.6894  0.3020 -0.0165
 8436TIP3    H146799   3.440   5.042  16.620 -0.0511 -1.5186  1.1379
 8436TIP3    H246800   3.514   5.043  16.487 -2.0170  2.3097 -0.0030
 8437TIP3   OH246801   3.910   5.254   4.665  0.2729  0.1596  0.7640
 8437TIP3    H146802   3.999   5.267   4.699  0.6140  3.0957 -1.0412
 8437TIP3    H246803   3.918   5.270   4.571 -1.8110 -1.5686  0.2568
 8438TIP3   OH246804   1.576   2.948  12.202 -0.1485  0.2096  0.1344
 8438TIP3    H146805   1.568   3.043  12.199 -1.5564  0.1254  0.5979
 8438TIP3    H246806   1.512   2.916  12.138  0.3977 -0.4341 -0.1057
 8439TIP3   OH246807   2.786   4.069   4.537 -0.5617 -0.1782  0.1809
 8439TIP3    H146808   2.881   4.075   4.544 -0.4324 -2.4331  0.7186
 8439TIP3    H246809   2.759   4.152   4.498  1.6684  0.2477 -0.4884
 8440TIP3   OH246810   0.022   4.769  15.411 -0.4230 -0.4097  0.3341
 8440TIP3    H146811   0.059   4.714  15.480  0.6160  0.1313  0.2261
 8440TIP3    H246812   0.080   4.754  15.335 -0.3126  0.5773  0.2128
 8441TIP3   OH246813   0.236   4.273   0.515 -0.1903  0.0763  0.1039
 8441TIP3    H146814   0.279   4.218   0.580  1.7477  1.8769  0.3811
 8441TIP3    H246815   0.143   4.253   0.524  0.1781 -0.5625  2.6140
 8442TIP3   OH246816   2.017   0.311  15.010 -0.1998 -0.2390  0.5256
 8442TIP3    H146817   2.016   0.404  15.032 -1.3519  0.0638 -0.7603
 8442TIP3    H246818   1.925   0.286  15.005  0.0895 -1.2055 -0.1108
 8443TIP3   OH246819   2.402   6.650   4.555 -0.1447 -0.3174 -0.1224
 8443TIP3    H146820   2.402   6.582   4.488 -0.4120 -1.3444  0.9246
 8443TIP3    H246821   2.315   6.689   4.550  0.7531  1.6035 -2.3532
 8444TIP3   OH246822   4.289   1.589  15.775  0.0221  0.1774  0.3914
 8444TIP3    H146823   4.203   1.627  15.793  0.0287 -0.0269  0.8831
 8444TIP3    H246824   4.335   1.593  15.859  0.9870  1.5181 -0.1821
 8445TIP3   OH246825   2.706   3.959   2.133  0.2446  0.3545  0.0096
 8445TIP3    H146826   2.787   3.969   2.083  0.8026  0.8378  0.9875
 8445TIP3    H246827   2.734   3.961   2.224 -0.6103 -1.9273  0.3378
 8446TIP3   OH246828   5.715   2.541  11.457  0.1902  0.4688  0.1066
 8446TIP3    H146829   5.757   2.566  11.374  0.6355 -0.4720  0.0438
 8446TIP3    H246830   5.690   2.449  11.444 -0.1358  0.4519  0.8591
 8447TIP3   OH246831   4.248   5.259   0.727  0.7745  0.2009  0.1739
 8447TIP3    H146832   4.162   5.275   0.767  0.6604  0.8670 -0.3251
 8447TIP3    H246833   4.307   5.317   0.775  0.6443  0.9716 -0.5814
 8448TIP3   OH246834   5.853   4.314   4.981  0.1627  0.9671 -0.1269
 8448TIP3    H146835   5.802   4.276   4.910 -0.2798 -0.6630  1.0292
 8448TIP3    H246836   5.859   4.407   4.959  0.0729  0.4919 -2.2986
 8449TIP3   OH246837   1.267   3.130   5.729  0.4927  0.0731 -0.0370
 8449TIP3    H146838   1.199   3.121   5.797  0.7008  3.8282  0.8272
 8449TIP3    H246839   1.323   3.054   5.740 -1.8985 -1.5666  1.2079
 8450TIP3   OH246840   0.251   5.828  10.813  0.1538 -0.3153 -0.8894
 8450TIP3    H146841   0.271   5.805  10.904 -0.2353 -0.2803 -0.7931
 8450TIP3    H246842   0.222   5.919  10.816  3.0811  0.6974 -1.4623
 8451TIP3   OH246843   4.628   1.889  13.294 -0.3295  0.4888 -0.1273
 8451TIP3    H146844   4.586   1.881  13.208 -0.4103  1.7004 -0.2000
 8451TIP3    H246845   4.588   1.820  13.347 -0.1500 -0.3832 -1.1154
 8452TIP3   OH246846   5.212   2.096   4.287 -0.1707  0.2198 -0.0654
 8452TIP3    H146847   5.192   2.065   4.375  0.3460 -1.1592 -0.4128
 8452TIP3    H246848   5.143   2.060   4.232  0.6964 -0.7569 -0.5487
 8453TIP3   OH246849   5.922   4.064   6.028  0.1766 -0.1626  0.1508
 8453TIP3    H146850   6.011   4.098   6.017  0.0990  0.1663  0.5511
 8453TIP3    H246851   5.867   4.141   6.040 -0.3906 -0.2667 -1.5272
 8454TIP3   OH246852   5.779   4.277  13.395 -0.1910 -0.4715 -0.6511
 8454TIP3    H146853   5.695   4.313  13.425 -0.3676  0.4869 -2.1895
 8454TIP3    H246854   5.824   4.249  13.474 -1.5944 -0.1530  0.2715
 8455TIP3   OH246855   0.882   2.269   5.725  0.2431 -0.0951 -0.1063
 8455TIP3    H146856   0.798   2.242   5.762  0.0805 -1.1194 -1.1716
 8455TIP3    H246857   0.937   2.190   5.732  0.3196 -0.2001 -1.6783
 8456TIP3   OH246858   3.445   6.177   2.742  0.5739  0.2016  0.2414
 8456TIP3    H146859   3.514   6.244   2.742 -0.1241  1.0139 -2.7108
 8456TIP3    H246860   3.402   6.187   2.827  0.7487  3.2814  0.0290
 8457TIP3   OH246861   0.276   0.918  16.087 -0.1303  0.3565  0.3643
 8457TIP3    H146862   0.313   0.863  16.018 -0.2344  0.3216  0.3370
 8457TIP3    H246863   0.194   0.876  16.110 -0.6118  0.9535 -0.2369
 8458TIP3   OH246864   1.434   3.699   1.092 -0.1314  0.5256  0.3334
 8458TIP3    H146865   1.510   3.655   1.130  0.0602  1.0809  0.5982
 8458TIP3    H246866   1.425   3.780   1.142 -0.3711  0.8812 -0.2713
 8459TIP3   OH246867   5.804   2.436  14.969 -0.7823  0.1222 -0.0184
 8459TIP3    H146868   5.802   2.445  14.874  3.3353 -1.8102 -0.3709
 8459TIP3    H246869   5.857   2.510  14.999 -1.9488  0.6487  0.8013
 8460TIP3   OH246870   3.771   2.479  16.418  0.1809 -0.1237 -0.1601
 8460TIP3    H146871   3.813   2.546  16.364 -0.4651  0.2615 -0.1761
 8460TIP3    H246872   3.818   2.483  16.502  0.0086  0.4817 -0.0939
 8461TIP3   OH246873   5.718   2.633   1.304 -0.5019  0.4625  0.0536
 8461TIP3    H146874   5.668   2.595   1.232  1.2999 -0.4031 -0.7680
 8461TIP3    H246875   5.736   2.723   1.276 -1.7145  0.8340  0.4287
 8462TIP3   OH246876   6.372   2.079  13.814 -0.3047 -0.2850 -0.4467
 8462TIP3    H146877   6.467   2.085  13.829 -0.4538 -0.9538  0.8936
 8462TIP3    H246878   6.342   2.017  13.880 -1.6737 -0.1574 -0.9353
 8463TIP3   OH246879   5.399   3.480  12.886 -0.4113 -0.1915 -0.8511
 8463TIP3    H146880   5.482   3.454  12.927 -0.8810 -0.5603 -0.1168
 8463TIP3    H246881   5.419   3.486  12.793 -0.2799 -3.3087 -1.0811
 8464TIP3   OH246882   5.809   0.400  11.469 -0.4277 -0.2269 -0.5494
 8464TIP3    H146883   5.745   0.461  11.506 -0.6110 -0.0511 -1.1521
 8464TIP3    H246884   5.875   0.456  11.430 -0.6842 -0.4113 -1.2572
 8465TIP3   OH246885   5.622   6.529   1.472 -0.2399 -0.5679 -0.0149
 8465TIP3    H146886   5.590   6.506   1.560 -0.5338  1.8703  0.5655
 8465TIP3    H246887   5.716   6.541   1.483 -0.1661 -1.0063 -0.1893
 8466TIP3   OH246888   0.678   2.000   0.874  0.3330 -0.2562 -0.3633
 8466TIP3    H146889   0.716   1.954   0.799  0.3261 -1.2554  0.2407
 8466TIP3    H246890   0.586   1.974   0.874  0.2548  0.0108 -0.2003
 8467TIP3   OH246891   5.842   6.187  13.681 -0.4690  0.5091  0.1576
 8467TIP3    H146892   5.805   6.256  13.625  0.7801 -0.6588 -2.2094
 8467TIP3    H246893   5.928   6.221  13.706  0.3301 -0.3339 -1.3717
 8468TIP3   OH246894   6.171   6.433  15.497 -0.2461  0.0356 -0.3553
 8468TIP3    H146895   6.206   6.507  15.545 -0.4917  1.4417 -2.2821
 8468TIP3    H246896   6.077   6.450  15.491 -0.5074 -1.1056  0.3333
 8469TIP3   OH246897   0.843   2.391   0.842 -0.3481  0.1571 -0.3583
 8469TIP3    H146898   0.810   2.470   0.884  1.9356  0.1893  1.4858
 8469TIP3    H246899   0.829   2.322   0.907  0.3757 -0.3825 -0.7747
 8470TIP3   OH246900   0.600   4.733  11.862 -0.1270  0.1688 -0.3530
 8470TIP3    H146901   0.518   4.726  11.813  0.1416 -1.2522 -0.6304
 8470TIP3    H246902   0.665   4.689  11.807  0.3866 -0.5562  0.8075
 8471TIP3   OH246903   3.091   5.117  11.792 -0.0580 -0.1892 -0.4028
 8471TIP3    H146904   3.169   5.155  11.752  0.0574  0.0283  0.0249
 8471TIP3    H246905   3.121   5.083  11.876 -0.5472  0.4512  0.0434
 8472TIP3   OH246906   5.555   5.883   5.913 -0.2387  0.1773  0.1760
 8472TIP3    H146907   5.515   5.958   5.869 -1.2722 -0.8487 -0.6590
 8472TIP3    H246908   5.540   5.899   6.006 -3.9838 -0.9002 -0.1601
 8473TIP3   OH246909   4.287   5.972   0.181  0.2074 -0.1915 -0.1609
 8473TIP3    H146910   4.339   5.896   0.204  0.0954 -0.6673 -1.4232
 8473TIP3    H246911   4.346   6.046   0.192 -0.1148 -0.2948  2.4643
 8474TIP3   OH246912   2.050   0.100   3.568  0.2116  0.0162  0.5207
 8474TIP3    H146913   2.045   0.006   3.586  0.6464 -0.8234 -3.3312
 8474TIP3    H246914   2.138   0.113   3.532 -1.2578  1.1144 -2.8411
 8475TIP3   OH246915   2.031   6.736   6.088  0.6087 -0.5886 -0.0917
 8475TIP3    H146916   1.972   6.672   6.049  2.7051 -1.3917 -2.0320
 8475TIP3    H246917   2.048   6.702   6.176 -1.6099 -0.4530  0.4139
 8476TIP3   OH246918   3.741   3.980  12.049  0.2286 -0.3691 -0.3910
 8476TIP3    H146919   3.822   3.951  12.091  1.3698  0.8314 -1.7057
 8476TIP3    H246920   3.736   3.930  11.968 -0.0685 -0.0654 -0.5598
 8477TIP3   OH246921   2.857   2.291   5.422  0.1148  0.5107 -0.2260
 8477TIP3    H146922   2.836   2.203   5.452 -0.7246  0.7635 -0.0610
 8477TIP3    H246923   2.814   2.349   5.485 -0.3657  1.0383 -1.0245
 8478TIP3   OH246924   6.523   1.512   4.939 -0.1800  0.1006  0.2616
 8478TIP3    H146925   6.602   1.559   4.916  0.2451 -0.5672  0.3473
 8478TIP3    H246926   6.527   1.431   4.889  0.1342 -0.7954  1.6897
 8479TIP3   OH246927   4.447   0.215  16.307  0.1828 -0.2944  0.2540
 8479TIP3    H146928   4.487   0.164  16.237 -0.6176 -0.5719 -0.0112
 8479TIP3    H246929   4.458   0.306  16.279 -1.1537 -0.4527 -0.8001
 8480TIP3   OH246930   0.585   5.178  13.178 -0.8468  0.4983 -0.1774
 8480TIP3    H146931   0.585   5.204  13.086 -1.0386  0.2324 -0.2515
 8480TIP3    H246932   0.668   5.131  13.190 -1.1222 -0.0310 -0.3710
 8481TIP3   OH246933   5.604   0.645   1.728  0.2422 -0.3990  0.7142
 8481TIP3    H146934   5.543   0.581   1.692  0.0541 -0.6059  1.4061
 8481TIP3    H246935   5.567   0.668   1.813 -0.5021  1.7333 -0.1422
 8482TIP3   OH246936   0.253   0.328   5.241  0.1721 -0.0686 -0.1720
 8482TIP3    H146937   0.317   0.262   5.217 -1.0166  0.2143 -4.5728
 8482TIP3    H246938   0.280   0.406   5.193 -2.2485  0.6390 -0.4406
 8483TIP3   OH246939   6.734   4.555  14.328  0.1085  0.4761  0.8426
 8483TIP3    H146940   6.701   4.638  14.295  1.1965  1.1190  1.3586
 8483TIP3    H246941   6.790   4.578  14.402  1.4849 -0.5959  0.1761
 8484TIP3   OH246942   1.076   5.951   3.665 -0.0673  0.4610  0.0834
 8484TIP3    H146943   1.079   5.931   3.572  0.7005  0.1420  0.1764
 8484TIP3    H246944   1.097   5.868   3.708 -1.1888  0.4054  0.5600
 8485TIP3   OH246945   3.495   2.807   5.105  0.6042 -0.4841  0.3273
 8485TIP3    H146946   3.432   2.858   5.156  0.7323  0.2787 -0.2690
 8485TIP3    H246947   3.488   2.843   5.016  3.5244  1.1593  0.7187
 8486TIP3   OH246948   2.021   2.683  13.955 -0.4521  0.2889 -0.4871
 8486TIP3    H146949   2.012   2.631  14.035 -2.8515 -1.2036 -1.6796
 8486TIP3    H246950   2.029   2.619  13.885  0.4136  1.5770 -1.5913
 8487TIP3   OH246951   1.716   4.316   3.018 -0.4550 -0.1034  0.4740
 8487TIP3    H146952   1.676   4.323   2.931 -0.0519  0.7245  0.3481
 8487TIP3    H246953   1.799   4.270   3.002  0.2434  1.2184  0.2073
 8488TIP3   OH246954   1.090   2.563  11.780 -0.4732 -0.3641  0.4599
 8488TIP3    H146955   1.003   2.585  11.748  0.0745  0.5582 -0.4360
 8488TIP3    H246956   1.121   2.644  11.823 -0.2315 -0.8229  1.1636
 8489TIP3   OH246957   5.400   6.700   3.689  0.5188  0.1099  0.2537
 8489TIP3    H146958   5.454   6.662   3.758  0.0116  0.0768  0.6381
 8489TIP3    H246959   5.354   6.772   3.732  1.3213  1.0442 -0.4196
 8490TIP3   OH246960   3.488   0.417  13.612 -0.5257 -0.1886  0.0721
 8490TIP3    H146961   3.567   0.467  13.632  0.4723 -0.7547 -2.2596
 8490TIP3    H246962   3.471   0.367  13.692  1.4960 -0.0829  0.6071
 8491TIP3   OH246963   3.405   1.992   2.885 -0.0459 -0.3063 -0.7078
 8491TIP3    H146964   3.421   2.081   2.917  1.9689 -0.5448 -1.0062
 8491TIP3    H246965   3.320   1.968   2.923 -1.2360  2.1984 -1.6389
 8492TIP3   OH246966   3.029   3.368   2.781  0.5624 -0.0188 -0.5792
 8492TIP3    H146967   2.992   3.303   2.720 -2.6898  2.1138 -0.9835
 8492TIP3    H246968   2.971   3.365   2.857  1.3442  1.2941  0.0850
 8493TIP3   OH246969   2.281   6.807   2.508  0.2189  0.1816  0.1865
 8493TIP3    H146970   2.211   6.743   2.495  1.9253 -1.7661  0.4060
 8493TIP3    H246971   2.321   6.817   2.422  0.6417  0.1634  0.3806
 8494TIP3   OH246972   5.082   2.577   5.207 -0.2564  0.6779  0.0981
 8494TIP3    H146973   5.116   2.641   5.145 -0.7683 -1.7513 -2.8108
 8494TIP3    H246974   5.030   2.628   5.269  0.8908  3.2501 -1.0225
 8495TIP3   OH246975   5.650   3.645   4.632 -0.2914  0.1961  0.5147
 8495TIP3    H146976   5.721   3.703   4.658  1.2051 -0.4651 -1.8988
 8495TIP3    H246977   5.659   3.568   4.688 -0.2832  0.9135  1.5073
 8496TIP3   OH246978   4.278   2.130   3.237 -0.4357 -0.1976  0.0191
 8496TIP3    H146979   4.353   2.116   3.294  0.1568  0.3696 -0.6203
 8496TIP3    H246980   4.203   2.102   3.289  0.0456  0.8283  1.3001
 8497TIP3   OH246981   1.708   0.596   3.099 -0.6082 -0.2539  0.5391
 8497TIP3    H146982   1.651   0.603   3.175 -0.7652  1.7447  0.2649
 8497TIP3    H246983   1.754   0.680   3.095 -1.2807  0.0518 -2.0757
 8498TIP3   OH246984   2.566   3.249  17.247 -0.7485  0.2114 -0.2384
 8498TIP3    H146985   2.555   3.344  17.236  0.4099  0.3295 -0.4584
 8498TIP3    H246986   2.498   3.224  17.309  0.0926  1.5060  1.2628
 8499TIP3   OH246987   1.928   4.120  16.911  0.4797  0.2324  0.0660
 8499TIP3    H146988   1.836   4.094  16.921  0.3192  0.0385 -1.7033
 8499TIP3    H246989   1.931   4.163  16.825  1.8514  1.1049  0.5353
 8500TIP3   OH246990   5.177   0.164  17.189  0.7890  0.4189 -0.8430
 8500TIP3    H146991   5.186   0.148  17.283  1.1321  2.8676 -0.4191
 8500TIP3    H246992   5.264   0.189  17.160  0.7408 -0.5585 -1.8838
 8501TIP3   OH246993   0.213   4.361  11.650  0.2370 -0.7481  0.2856
 8501TIP3    H146994   0.183   4.276  11.683 -0.7138 -0.0115  1.3734
 8501TIP3    H246995   0.132   4.410  11.636  0.7784 -0.0839 -0.5073
 8502TIP3   OH246996   2.477   3.775   2.464  0.0617 -0.4466 -0.1212
 8502TIP3    H146997   2.428   3.804   2.541  0.1901 -0.3714 -0.0675
 8502TIP3    H246998   2.443   3.688   2.445 -1.1514  0.1890 -0.9837
 8503TIP3   OH246999   5.181   2.984   6.177  0.4053 -0.4057 -0.9106
 8503TIP3    H147000   5.196   3.078   6.189 -0.9125 -0.5950  2.9968
 8503TIP3    H247001   5.260   2.942   6.211 -1.0741 -0.8065  2.1953
 8504TIP3   OH247002   3.195   4.980  10.548  0.3180  0.5465  0.1461
 8504TIP3    H147003   3.255   5.006  10.478  0.9554  0.1591  0.5434
 8504TIP3    H247004   3.116   4.951  10.502  1.0780 -0.6086 -0.4550
 8505TIP3   OH247005   3.490   0.416  16.435 -0.6353 -0.1822 -0.2021
 8505TIP3    H147006   3.512   0.354  16.366 -0.9285  1.7186 -2.0404
 8505TIP3    H247007   3.571   0.466  16.449 -0.2087 -1.3670  1.7139
 8506TIP3   OH247008   4.502   1.005   0.372  0.3460 -0.0565  0.6044
 8506TIP3    H147009   4.421   1.007   0.423  0.7735  1.4528  1.2407
 8506TIP3    H247010   4.481   1.051   0.291  0.5193  0.2196  0.7139
 8507TIP3   OH247011   5.972   1.801  16.073 -0.5433 -0.1160  0.2083
 8507TIP3    H147012   6.045   1.851  16.037  0.3209 -0.3888  1.5314
 8507TIP3    H247013   5.937   1.752  15.999 -0.2102  1.0127 -0.7075
 8508TIP3   OH247014   3.861   2.721   0.262 -0.7100 -0.1694 -0.2458
 8508TIP3    H147015   3.779   2.707   0.215 -1.0493  0.4369  0.1729
 8508TIP3    H247016   3.895   2.803   0.227 -0.2478 -0.4528 -0.4660
 8509TIP3   OH247017   5.630   5.537   1.613 -0.2703 -0.1917  0.2728
 8509TIP3    H147018   5.549   5.488   1.628 -0.2435 -0.8943 -1.6514
 8509TIP3    H247019   5.698   5.470   1.609  0.0177  0.1524 -0.6606
 8510TIP3   OH247020   5.340   1.502   1.944 -0.2776  0.2863  0.4890
 8510TIP3    H147021   5.309   1.499   1.853  3.6710  1.4256 -0.9889
 8510TIP3    H247022   5.390   1.421   1.955  0.4011  0.7941  1.1968
 8511TIP3   OH247023   4.343   1.832   3.249  0.1724  0.6179 -0.5853
 8511TIP3    H147024   4.351   1.886   3.170 -1.2898  0.1230 -1.0958
 8511TIP3    H247025   4.293   1.756   3.221  1.2643 -0.4822  0.3982
 8512TIP3   OH247026   0.287   0.762  15.632  0.0829 -0.0528 -0.4325
 8512TIP3    H147027   0.249   0.718  15.708  0.4236 -0.6854 -0.6250
 8512TIP3    H247028   0.212   0.806  15.590 -0.0710  0.4857  0.3802
 8513TIP3   OH247029   1.105   0.322  12.294 -0.4239 -0.0677 -0.0865
 8513TIP3    H147030   1.058   0.247  12.259  1.3534 -1.8640  1.2892
 8513TIP3    H247031   1.177   0.337  12.231  0.6847 -1.0902  0.9182
 8514TIP3   OH247032   3.184   3.089  11.476  0.0937 -0.1110 -1.1034
 8514TIP3    H147033   3.137   3.012  11.509  2.3608 -1.1839 -0.2635
 8514TIP3    H247034   3.222   3.129  11.555  1.6263 -0.0090 -1.8782
 8515TIP3   OH247035   5.697   4.465  10.752  0.1949 -0.5240  0.3734
 8515TIP3    H147036   5.726   4.418  10.831 -0.9215  1.4870  2.0083
 8515TIP3    H247037   5.774   4.513  10.724  0.6717 -1.4458  0.0700
 8516TIP3   OH247038   2.663   2.254  14.812 -0.3113  0.2224  0.3530
 8516TIP3    H147039   2.623   2.183  14.862  0.1199  0.1942  0.6595
 8516TIP3    H247040   2.721   2.210  14.749 -2.1232  0.1681 -1.3326
 8517TIP3   OH247041   1.933   6.135   5.636  0.4125 -0.0091  0.6751
 8517TIP3    H147042   1.977   6.098   5.559 -1.2423  2.8246 -1.7116
 8517TIP3    H247043   1.965   6.225   5.641  0.7697 -0.2278  3.5932
 8518TIP3   OH247044   3.809   2.844  11.483 -0.3703 -0.0062 -0.3253
 8518TIP3    H147045   3.888   2.885  11.519  0.0062 -0.2092 -0.9089
 8518TIP3    H247046   3.836   2.755  11.462 -1.5687 -1.0652  2.3131
 8519TIP3   OH247047   1.508   2.824   3.559 -0.3677 -0.2738  0.2745
 8519TIP3    H147048   1.446   2.846   3.629  0.1080  0.8657  0.3519
 8519TIP3    H247049   1.583   2.787   3.605 -0.0224  0.5485  0.3841
 8520TIP3   OH247050   4.588   4.244  13.341  0.5108 -0.2759 -0.1186
 8520TIP3    H147051   4.637   4.176  13.295  0.9890  0.2982 -0.4795
 8520TIP3    H247052   4.555   4.301  13.271 -0.8407 -0.7561  0.1037
 8521TIP3   OH247053   2.515   3.375  14.044 -0.3222  0.4382  0.8149
 8521TIP3    H147054   2.554   3.429  13.976 -1.1170  0.0122  0.0091
 8521TIP3    H247055   2.585   3.361  14.108  0.0554  1.9002  0.7200
 8522TIP3   OH247056   2.711   5.806   5.381 -0.4743  0.3816  0.2038
 8522TIP3    H147057   2.711   5.896   5.413  0.2563  1.2426 -2.1204
 8522TIP3    H247058   2.752   5.811   5.295 -0.6201 -2.1491 -0.0486
 8523TIP3   OH247059   4.616   4.065  16.418  0.4607 -0.1026  0.5698
 8523TIP3    H147060   4.676   4.138  16.404  1.5666 -1.0223  0.3925
 8523TIP3    H247061   4.670   3.987  16.405 -0.8622 -0.9543  0.0474
 8524TIP3   OH247062   4.524   3.540   2.389  0.0042  0.0164 -0.2518
 8524TIP3    H147063   4.519   3.445   2.399 -0.4609 -0.0254 -0.8318
 8524TIP3    H247064   4.607   3.554   2.342  0.2090 -0.0794  0.0775
 8525TIP3   OH247065   6.691   3.102   0.448  0.2203 -0.8947  0.1817
 8525TIP3    H147066   6.682   3.122   0.354 -0.8130  0.0303  0.4682
 8525TIP3    H247067   6.649   3.016   0.458  0.3286 -0.9942 -0.2002
 8526TIP3   OH247068   1.243   5.307  14.579 -0.2443  0.1116  0.3622
 8526TIP3    H147069   1.274   5.307  14.670  1.5382  1.5576 -0.2318
 8526TIP3    H247070   1.297   5.372  14.535 -1.5743 -0.0801 -1.5921
 8527TIP3   OH247071   0.895   6.234  12.285 -0.3214  0.1477 -0.2381
 8527TIP3    H147072   0.838   6.257  12.359 -1.1628 -0.3332 -0.7283
 8527TIP3    H247073   0.968   6.187  12.326 -0.1063  1.0549  0.4302
 8528TIP3   OH247074   6.469   0.703   4.735  0.7146  0.1470 -0.1711
 8528TIP3    H147075   6.417   0.626   4.757  1.6767 -0.4969 -0.1199
 8528TIP3    H247076   6.481   0.749   4.818 -1.7182  1.5446 -0.5471
 8529TIP3   OH247077   3.485   1.942  14.101  0.3568  0.0768 -0.6015
 8529TIP3    H147078   3.531   1.969  14.021  0.3716  0.4432 -0.4688
 8529TIP3    H247079   3.552   1.939  14.168  0.3518 -0.2768 -0.6097
 8530TIP3   OH247080   0.302   2.373  16.128  0.0623 -0.1609  0.2717
 8530TIP3    H147081   0.274   2.353  16.039 -1.6243 -0.5498  0.8768
 8530TIP3    H247082   0.383   2.424  16.117 -0.1496 -0.1730 -1.4625
 8531TIP3   OH247083   0.155   5.067   5.199 -0.4649  0.6820  0.0120
 8531TIP3    H147084   0.108   4.992   5.236  0.6989  0.0258  0.1960
 8531TIP3    H247085   0.130   5.068   5.106 -0.0573 -0.2777 -0.1116
 8532TIP3   OH247086   5.093   2.716  14.889  0.5572  0.0814 -0.3177
 8532TIP3    H147087   5.027   2.647  14.882 -0.0345  0.5774  0.3737
 8532TIP3    H247088   5.073   2.775  14.816 -0.8508  1.1525  0.9035
 8533TIP3   OH247089   5.341   1.246  15.351  0.2331 -0.2649  0.5557
 8533TIP3    H147090   5.319   1.239  15.258 -2.8602 -0.9639  1.3111
 8533TIP3    H247091   5.257   1.253  15.396  1.7639  2.2912  3.1596
 8534TIP3   OH247092   6.260   3.634  12.286 -0.0381 -0.2710  0.2134
 8534TIP3    H147093   6.190   3.700  12.282  0.9085  0.8443  1.5639
 8534TIP3    H247094   6.304   3.640  12.201 -0.2821  0.4799  0.1401
 8535TIP3   OH247095   6.041   0.080   1.785 -0.2009 -0.0598 -0.1420
 8535TIP3    H147096   6.096   0.150   1.819  2.0755 -2.0313  0.4036
 8535TIP3    H247097   6.019   0.107   1.696  1.8476  0.6985 -0.4371
 8536TIP3   OH247098   0.340   1.714   1.018 -0.0299 -0.4836 -0.3116
 8536TIP3    H147099   0.362   1.790   0.963  1.8520  0.0261  1.1033
 8536TIP3    H247100   0.380   1.734   1.103 -2.6571 -1.3790  1.1926
 8537TIP3   OH247101   1.037   4.296   0.420  0.1471 -0.0502 -0.7436
 8537TIP3    H147102   1.094   4.338   0.484 -0.4618  1.6291 -1.2631
 8537TIP3    H247103   0.982   4.236   0.471 -0.1625  1.0809  0.2738
 8538TIP3   OH247104   0.793   0.157  12.520 -0.4907  0.1356  0.1875
 8538TIP3    H147105   0.838   0.239  12.541 -1.2146  1.3342 -2.7378
 8538TIP3    H247106   0.719   0.183  12.465 -0.1446 -2.5242 -1.6610
 8539TIP3   OH247107   3.027   3.944  11.217 -0.2881  0.2044  0.2729
 8539TIP3    H147108   2.989   4.025  11.185  0.0433 -0.1066 -0.9586
 8539TIP3    H247109   3.024   3.951  11.312 -0.8790  1.3604  0.1723
 8540TIP3   OH247110   2.523   5.406   4.005 -0.0968  0.4384 -0.3426
 8540TIP3    H147111   2.567   5.325   4.032  1.3160  1.1986 -0.2707
 8540TIP3    H247112   2.552   5.471   4.069  0.5418  1.4844 -1.6497
 8541TIP3   OH247113   1.913   0.244  13.600  0.0698  0.4690  0.4221
 8541TIP3    H147114   1.969   0.169  13.620  0.5395  0.5256 -0.6546
 8541TIP3    H247115   1.942   0.312  13.661  1.1081  0.4650 -0.0606
 8542TIP3   OH247116   5.611   4.818   5.139  0.3491  1.1150 -0.0781
 8542TIP3    H147117   5.661   4.849   5.214  1.8027  1.8555 -1.3282
 8542TIP3    H247118   5.631   4.880   5.069 -0.9209  0.3898 -1.1157
 8543TIP3   OH247119   4.764   6.602   4.634  0.1306 -0.4683  0.6326
 8543TIP3    H147120   4.695   6.578   4.572  1.0950 -1.1292 -0.1998
 8543TIP3    H247121   4.768   6.529   4.695  0.0585 -0.4133  0.7019
 8544TIP3   OH247122   3.268   1.352  15.333  0.0656 -0.4988  0.5498
 8544TIP3    H147123   3.341   1.290  15.327  0.0529 -0.2552 -3.2056
 8544TIP3    H247124   3.195   1.308  15.289 -0.7646  1.0547  0.3391
 8545TIP3   OH247125   0.052   5.900  15.801  0.2597 -0.5349  0.6845
 8545TIP3    H147126   0.105   5.887  15.880 -0.0639 -0.0059  0.9942
 8545TIP3    H247127  -0.039   5.893  15.832  0.1339 -0.3058  0.3668
 8546TIP3   OH247128   3.215   2.213   5.328  0.3249  0.1545 -0.4545
 8546TIP3    H147129   3.176   2.280   5.385 -0.3508 -1.4396  1.0260
 8546TIP3    H247130   3.291   2.182   5.377  0.7160 -0.0629 -1.1937
 8547TIP3   OH247131   2.976   4.693  15.401 -0.3774  0.2889  0.4921
 8547TIP3    H147132   2.890   4.658  15.425 -1.2356  1.3749 -0.9365
 8547TIP3    H247133   2.992   4.764  15.463  0.7103 -1.6261  2.4625
 8548TIP3   OH247134   3.559   0.112  15.948  0.4423  0.5237  0.0982
 8548TIP3    H147135   3.558   0.204  15.975 -0.7906  0.4204  0.4442
 8548TIP3    H247136   3.485   0.073  15.995  0.7912 -0.5785 -0.2668
 8549TIP3   OH247137   6.590   4.102   3.787 -0.5147 -0.2222 -0.7329
 8549TIP3    H147138   6.575   4.015   3.750  0.3737 -1.2450  1.2796
 8549TIP3    H247139   6.508   4.123   3.833 -0.2697 -0.5352 -0.1528
 8550TIP3   OH247140   3.730   0.316   1.948  0.3766 -0.8605  0.1212
 8550TIP3    H147141   3.720   0.410   1.939  0.9526 -0.9764 -1.8083
 8550TIP3    H247142   3.770   0.304   2.034  2.7939  0.8132 -0.7341
 8551TIP3   OH247143   5.605   1.349  16.357  0.0354 -0.4743  0.4399
 8551TIP3    H147144   5.604   1.291  16.282  1.4409  0.4124 -0.2875
 8551TIP3    H247145   5.540   1.416  16.337 -1.5675 -1.7432  1.2695
 8552TIP3   OH247146   5.503   1.127  16.005  0.1101 -0.4871  0.0027
 8552TIP3    H147147   5.417   1.166  16.023  0.1995 -0.6263  0.7469
 8552TIP3    H247148   5.487   1.066  15.933 -0.1113  0.6105 -0.8911
 8553TIP3   OH247149   3.495   0.961  12.233  0.2580  0.3909 -0.1982
 8553TIP3    H147150   3.528   1.042  12.272  0.6386  0.5041 -0.7550
 8553TIP3    H247151   3.463   0.910  12.308  0.9812  0.6052  0.2631
 8554TIP3   OH247152   4.393   2.076  13.384 -0.0805 -0.6558 -0.0242
 8554TIP3    H147153   4.458   2.116  13.326 -0.4905 -0.3843 -0.2958
 8554TIP3    H247154   4.310   2.114  13.356 -0.2988 -0.6433  0.6384
 8555TIP3   OH247155   2.674   3.982   4.202 -0.0483 -0.1737  0.4094
 8555TIP3    H147156   2.630   4.068   4.207 -0.6986 -0.5133  0.6453
 8555TIP3    H247157   2.602   3.919   4.207  0.2342 -0.7264 -2.0173
 8556TIP3   OH247158   6.750   3.649   3.268  0.2713 -0.5567 -0.4898
 8556TIP3    H147159   6.673   3.692   3.231  0.8408  2.2088  1.4586
 8556TIP3    H247160   6.718   3.607   3.348  0.7529  0.4613  0.2394
 8557TIP3   OH247161   0.020   2.221  11.713 -0.2752 -0.2089 -0.2684
 8557TIP3    H147162  -0.001   2.175  11.632 -1.0442 -0.0292 -0.1706
 8557TIP3    H247163   0.051   2.153  11.772  2.2203 -0.0932 -1.3459
 8558TIP3   OH247164   4.171   6.322  11.070  0.3619 -0.3806  0.3710
 8558TIP3    H147165   4.246   6.318  11.129 -1.3619 -1.4166  2.5649
 8558TIP3    H247166   4.117   6.246  11.093 -0.5035 -0.6550 -2.3610
 8559TIP3   OH247167   1.266   0.076   3.931  0.2585  0.2415  0.2050
 8559TIP3    H147168   1.350   0.104   3.967  1.0712 -2.2991  0.3494
 8559TIP3    H247169   1.285  -0.005   3.884 -2.0811 -0.2962  0.0982
 8560TIP3   OH247170   1.940   6.164   3.808  0.3240 -0.2650 -0.2181
 8560TIP3    H147171   1.901   6.139   3.724  1.2713  0.7690 -0.9854
 8560TIP3    H247172   1.928   6.087   3.863 -2.3420 -0.1493 -0.5665
 8561TIP3   OH247173   0.795   0.359   2.515 -0.4132 -0.2242 -0.1370
 8561TIP3    H147174   0.768   0.279   2.561  0.1128  0.0460  0.6522
 8561TIP3    H247175   0.721   0.380   2.458 -1.0358 -0.6271  0.5060
 8562TIP3   OH247176   4.326   3.961   0.975  0.0795 -0.6824 -0.6343
 8562TIP3    H147177   4.291   4.047   0.997  0.0389 -0.8148 -0.1714
 8562TIP3    H247178   4.345   3.966   0.882 -1.7334 -0.7949 -1.0407
 8563TIP3   OH247179   0.314   1.351  11.278 -0.2742 -0.0362  0.1307
 8563TIP3    H147180   0.300   1.342  11.372  0.4709 -2.2327  0.0352
 8563TIP3    H247181   0.358   1.436  11.268  0.8353 -0.4070  1.8688
 8564TIP3   OH247182   0.111   4.460  15.911  0.1516 -0.3918 -0.4988
 8564TIP3    H147183   0.108   4.399  15.985 -0.0455  0.3575  0.1132
 8564TIP3    H247184   0.142   4.542  15.948 -1.9014  0.5651 -0.8361
 8565TIP3   OH247185   1.139   0.860  15.593 -0.1623 -0.1620 -0.9360
 8565TIP3    H147186   1.065   0.915  15.619  0.3187 -0.1825  0.5250
 8565TIP3    H247187   1.132   0.854  15.497 -0.9529  1.3928 -0.9955
 8566TIP3   OH247188   4.302   4.320  13.535  0.0570 -0.4044  0.3557
 8566TIP3    H147189   4.290   4.254  13.466  1.2514 -2.2489  1.8344
 8566TIP3    H247190   4.383   4.293  13.579  0.3177  1.8184  1.3013
 8567TIP3   OH247191   3.361   3.823  13.242  0.7197  0.6066  0.1244
 8567TIP3    H147192   3.278   3.816  13.288  1.4178  0.1673  1.3288
 8567TIP3    H247193   3.345   3.888  13.174 -0.9463 -0.3467 -0.4216
 8568TIP3   OH247194   5.776   0.214  10.795 -0.3097 -0.1036  0.2657
 8568TIP3    H147195   5.733   0.255  10.869  0.7300 -1.4717  1.6640
 8568TIP3    H247196   5.866   0.245  10.799 -0.2722 -0.1059 -0.4868
 8569TIP3   OH247197   6.311   6.182  10.371  0.5335 -0.3343  0.0159
 8569TIP3    H147198   6.390   6.203  10.323 -0.8959 -1.2166 -2.8371
 8569TIP3    H247199   6.295   6.090  10.352 -0.0511 -0.7516  2.2914
 8570TIP3   OH247200   5.065   6.226  17.264 -0.0080  0.5419 -0.3575
 8570TIP3    H147201   5.038   6.310  17.300  0.7593  1.0438 -0.9426
 8570TIP3    H247202   5.112   6.248  17.183  3.2366 -0.2260  1.2624
 8571TIP3   OH247203   4.276   2.474  12.193 -0.3476 -0.3704  0.1950
 8571TIP3    H147204   4.259   2.406  12.257  0.2491  0.1929  0.9516
 8571TIP3    H247205   4.224   2.549  12.223 -1.5043 -0.6667 -0.9744
 8572TIP3   OH247206   4.594   5.124  16.468 -0.6396  0.5616  0.4298
 8572TIP3    H147207   4.511   5.077  16.477 -0.3359 -0.3837 -1.3712
 8572TIP3    H247208   4.581   5.206  16.516 -3.1492  1.0912 -1.0747
 8573TIP3   OH247209   5.918   3.084   4.667  0.1888  0.1682  0.2122
 8573TIP3    H147210   5.852   3.031   4.712  1.0025 -0.9234  0.1288
 8573TIP3    H247211   5.945   3.149   4.732  0.0348 -0.2453  0.6935
 8574TIP3   OH247212   4.799   2.592  13.962  0.2385  0.4642  0.3403
 8574TIP3    H147213   4.765   2.598  14.051  1.0174 -1.6993  0.8141
 8574TIP3    H247214   4.725   2.559  13.910 -0.0111  1.0663  0.3101
 8575TIP3   OH247215   5.922   6.409   1.596 -0.3201  0.1628  0.5755
 8575TIP3    H147216   5.926   6.504   1.589 -1.7434  0.2359  0.6656
 8575TIP3    H247217   6.014   6.382   1.604  0.0939  1.5199  0.5485
 8576TIP3   OH247218   2.096   5.640   6.237  0.1094 -0.1085  0.0047
 8576TIP3    H147219   2.143   5.573   6.287  1.0872  0.4218 -0.1915
 8576TIP3    H247220   2.145   5.720   6.252 -1.4061  0.7117  0.7346
 8577TIP3   OH247221   2.495   3.546  16.871 -0.0405  0.4397  0.0038
 8577TIP3    H147222   2.541   3.587  16.797  0.4399  1.0657  0.6292
 8577TIP3    H247223   2.516   3.603  16.945 -0.8755  0.0580  0.5288
 8578TIP3   OH247224   0.215   1.730   2.779 -0.3243  0.2928  0.2730
 8578TIP3    H147225   0.246   1.811   2.738 -0.6582 -0.0135 -0.6200
 8578TIP3    H247226   0.166   1.758   2.856 -2.8314  1.1374 -1.5526
 8579TIP3   OH247227   6.313   3.938  16.055 -0.4719  0.2713 -0.1567
 8579TIP3    H147228   6.396   3.974  16.025 -0.6726  1.5963  0.8109
 8579TIP3    H247229   6.308   3.851  16.015  0.8674  0.6075 -1.0857
 8580TIP3   OH247230   5.653   5.724  15.438 -0.1176 -0.1414  0.1696
 8580TIP3    H147231   5.587   5.790  15.419  0.5375  0.1951 -1.0324
 8580TIP3    H247232   5.734   5.774  15.450  0.6664 -0.7935 -2.1537
 8581TIP3   OH247233   2.345   0.138  15.504  0.5790 -0.0037 -0.0529
 8581TIP3    H147234   2.374   0.198  15.572  2.1431 -1.3933  0.5702
 8581TIP3    H247235   2.372   0.179  15.422  0.9190  0.5334  0.3267
 8582TIP3   OH247236   5.485   6.520  13.226 -0.3745  0.0111  0.3586
 8582TIP3    H147237   5.559   6.578  13.246  0.5454 -1.2777  0.7179
 8582TIP3    H247238   5.479   6.520  13.131 -0.4499  0.7784  0.3595
 8583TIP3   OH247239   6.160   2.031  12.878 -0.1794  0.3313 -0.1109
 8583TIP3    H147240   6.214   1.967  12.925 -0.0102 -0.2703 -1.1128
 8583TIP3    H247241   6.150   1.994  12.790 -0.9657  1.1739 -0.3838
 8584TIP3   OH247242   6.287   4.631  15.981 -0.1845 -0.1124  0.3181
 8584TIP3    H147243   6.196   4.606  15.997 -0.4157  0.2338 -0.4508
 8584TIP3    H247244   6.283   4.696  15.911  0.7763 -1.3792 -0.9488
 8585TIP3   OH247245   2.846   0.288  17.050  0.2386  0.4611  0.1560
 8585TIP3    H147246   2.856   0.329  16.964 -0.1320 -0.9064 -0.5618
 8585TIP3    H247247   2.796   0.351  17.101  3.1112  2.6550  0.3803
 8586TIP3   OH247248   1.889   3.456   2.272  0.1704  0.2114 -0.6429
 8586TIP3    H147249   1.920   3.537   2.232 -1.7897  1.1056 -0.3956
 8586TIP3    H247250   1.825   3.484   2.337 -0.2937 -1.5197 -0.3319
 8587TIP3   OH247251   6.464   4.786   2.775  0.1202 -0.1632  0.0933
 8587TIP3    H147252   6.476   4.740   2.691  1.1414  0.2938 -0.0189
 8587TIP3    H247253   6.481   4.878   2.754  1.3119 -0.1677  0.9921
 8588TIP3   OH247254   6.553   0.369  13.287  0.3740 -0.4355  0.2589
 8588TIP3    H147255   6.498   0.364  13.209 -0.8130 -2.2915  1.1588
 8588TIP3    H247256   6.643   0.365  13.254 -0.1301 -1.9388 -0.9830
 8589TIP3   OH247257   3.471   4.146   3.944 -0.1411  0.4884  0.3863
 8589TIP3    H147258   3.565   4.143   3.927 -0.3079  0.9329 -0.6419
 8589TIP3    H247259   3.437   4.206   3.878 -1.3328 -0.7516 -0.1499
 8590TIP3   OH247260   3.782   1.219   2.248 -0.1755 -0.2333  0.1263
 8590TIP3    H147261   3.854   1.211   2.186  0.9506  0.7804  1.2671
 8590TIP3    H247262   3.790   1.307   2.283 -1.3555 -0.4711  1.0305
 8591TIP3   OH247263   2.341   0.517  11.426  0.2376 -0.2665 -0.2497
 8591TIP3    H147264   2.321   0.487  11.337 -1.1431 -0.1749  0.0151
 8591TIP3    H247265   2.374   0.607  11.413 -0.5092 -0.0409 -0.6292
 8592TIP3   OH247266   6.691   0.688  13.126 -0.0484 -0.3141 -0.6806
 8592TIP3    H147267   6.600   0.662  13.113 -0.6011  1.6257 -0.9623
 8592TIP3    H247268   6.714   0.655  13.213 -1.3309 -0.0258 -0.2213
 8593TIP3   OH247269   5.992   3.752  13.650  0.0526  0.4099 -0.0143
 8593TIP3    H147270   5.999   3.749  13.745  0.4868 -1.4558 -0.0829
 8593TIP3    H247271   6.060   3.813  13.622  0.6627  0.0954  0.7910
 8594TIP3   OH247272   2.495   1.510  12.024 -0.5850  0.2177 -0.0504
 8594TIP3    H147273   2.471   1.563  11.948  1.2263  1.6673  0.3347
 8594TIP3    H247274   2.411   1.490  12.067 -1.2894  3.6010  0.2979
 8595TIP3   OH247275   2.136   4.263  11.691  0.0888  0.3202 -0.5910
 8595TIP3    H147276   2.106   4.351  11.714  0.8550  0.2942  0.5672
 8595TIP3    H247277   2.222   4.276  11.651 -0.5400  0.2258 -2.0103
 8596TIP3   OH247278   4.733   2.620  13.217  0.3782 -0.0259 -0.1836
 8596TIP3    H147279   4.739   2.527  13.195 -1.5823 -0.8992  2.7449
 8596TIP3    H247280   4.805   2.635  13.278 -0.4058 -0.0645  0.7591
 8597TIP3   OH247281   1.384   0.566  12.436 -0.4688  0.4460 -0.2572
 8597TIP3    H147282   1.359   0.615  12.514 -0.0070  0.6344 -0.2279
 8597TIP3    H247283   1.376   0.629  12.364  1.9970  1.1358  0.0297
 8598TIP3   OH247284   0.205   4.807   2.802 -0.0208  0.2922 -0.0934
 8598TIP3    H147285   0.181   4.877   2.742 -0.6923 -0.9469 -1.3095
 8598TIP3    H247286   0.128   4.749   2.802  1.6023 -1.9105 -1.3246
 8599TIP3   OH247287   1.823   6.458  10.882  0.1267 -0.0459 -0.5071
 8599TIP3    H147288   1.879   6.401  10.828 -0.3509  0.1272 -1.1924
 8599TIP3    H247289   1.734   6.431  10.861 -0.0618 -0.0844  0.3260
 8600TIP3   OH247290   3.145   3.292   4.225 -0.3299 -0.4374  0.2925
 8600TIP3    H147291   3.185   3.376   4.203  0.5172 -0.9297 -0.0575
 8600TIP3    H247292   3.145   3.243   4.143  0.1864 -1.1937  0.7377
 8601TIP3   OH247293   6.362   2.674  13.812  0.2804  0.2612  0.3629
 8601TIP3    H147294   6.319   2.631  13.886 -0.3026 -0.5751 -0.4478
 8601TIP3    H247295   6.431   2.613  13.786 -0.3986 -0.0881 -0.6463
 8602TIP3   OH247296   5.445   2.098   2.758  0.5657  0.7660 -0.0650
 8602TIP3    H147297   5.369   2.149   2.786  0.1977 -0.5856  1.4903
 8602TIP3    H247298   5.447   2.110   2.663 -1.9592  0.3674 -0.2199
 8603TIP3   OH247299   4.239   3.138  12.196  0.0874  0.0312 -0.6397
 8603TIP3    H147300   4.156   3.097  12.219  0.7584 -1.0114 -0.0188
 8603TIP3    H247301   4.225   3.173  12.108 -1.0742  0.0804 -0.4456
 8604TIP3   OH247302   0.494   6.332   1.924  0.5017 -0.6789 -0.5141
 8604TIP3    H147303   0.566   6.343   1.862 -0.1028  1.9334 -0.8232
 8604TIP3    H247304   0.464   6.421   1.942 -2.2658 -1.6601  0.0713
 8605TIP3   OH247305   5.211   3.365   5.432  0.1594  0.1215 -0.3270
 8605TIP3    H147306   5.204   3.451   5.392  0.9334  0.6718  0.7026
 8605TIP3    H247307   5.169   3.374   5.518 -0.1178 -0.6293 -0.3786
 8606TIP3   OH247308   6.678   1.067   4.280  0.4110  0.4509  0.1242
 8606TIP3    H147309   6.763   1.028   4.265  0.1694  0.0690 -0.2513
 8606TIP3    H247310   6.685   1.155   4.243  0.2634  0.0058 -0.9577
 8607TIP3   OH247311   2.311   3.997  11.406 -0.0339 -0.3343 -0.0997
 8607TIP3    H147312   2.255   3.920  11.395 -0.2901 -0.3853  1.4203
 8607TIP3    H247313   2.263   4.068  11.363 -2.1350 -0.0071  2.6212
 8608TIP3   OH247314   1.630   3.933   2.227 -0.3903  0.3324 -0.4621
 8608TIP3    H147315   1.567   3.895   2.288 -1.5059  1.5390 -0.8435
 8608TIP3    H247316   1.678   3.996   2.280 -0.4732  0.4410 -0.5159
 8609TIP3   OH247317   2.572   2.291   6.574 -0.2185  1.1416  0.3348
 8609TIP3    H147318   2.549   2.321   6.662 -1.1135 -0.4387  0.6493
 8609TIP3    H247319   2.490   2.260   6.536  0.5484 -0.1983 -0.2590
 8610TIP3   OH247320   2.605   2.492   5.009  0.2409  0.0011 -0.4082
 8610TIP3    H147321   2.622   2.460   4.921 -0.9953 -2.1609  0.1002
 8610TIP3    H247322   2.573   2.581   4.997  0.2602 -0.2120 -2.1307
 8611TIP3   OH247323   4.285   4.310   5.420  0.5336 -0.4853  0.2905
 8611TIP3    H147324   4.242   4.371   5.479 -0.8667 -0.1110 -1.0863
 8611TIP3    H247325   4.309   4.236   5.475 -0.5255 -0.0386  1.3766
 8612TIP3   OH247326   2.604   5.373  13.990  0.3703  0.2351  0.1809
 8612TIP3    H147327   2.509   5.380  13.980  0.4971 -1.4551 -2.9508
 8612TIP3    H247328   2.617   5.294  14.041  0.1004  0.5442  0.7337
 8613TIP3   OH247329   1.218   1.006   4.857 -0.6176 -0.3858 -0.2387
 8613TIP3    H147330   1.208   0.919   4.895 -0.3888  0.0487  0.8422
 8613TIP3    H247331   1.179   0.999   4.769 -1.8275 -1.2064  0.3511
 8614TIP3   OH247332   5.441   0.518  10.950  0.2201  0.6806 -0.0869
 8614TIP3    H147333   5.476   0.605  10.969 -0.3022  1.0466 -0.8143
 8614TIP3    H247334   5.383   0.531  10.875  0.6956 -0.4223 -0.6512
 8615TIP3   OH247335   5.022   5.518   5.843  0.4123  0.1767  0.1634
 8615TIP3    H147336   5.040   5.536   5.935  0.4805  0.0247  0.1803
 8615TIP3    H247337   5.087   5.452   5.818 -1.0654 -1.4484  0.6019
 8616TIP3   OH247338   3.368   2.217  15.399 -0.3612  0.4350 -0.0643
 8616TIP3    H147339   3.297   2.280  15.413  0.1691  1.4049 -1.5920
 8616TIP3    H247340   3.348   2.177  15.314  1.5880  1.6883 -1.1744
 8617TIP3   OH247341   2.319   4.007   2.543  0.0173  0.1941 -0.3062
 8617TIP3    H147342   2.397   4.063   2.549 -0.0951  0.3008  0.1748
 8617TIP3    H247343   2.256   4.060   2.494 -0.1967  0.6167  0.4169
 8618TIP3   OH247344   5.478   5.163   3.366 -0.0502 -0.0732 -0.0191
 8618TIP3    H147345   5.416   5.091   3.369  0.0403 -0.1674 -0.3483
 8618TIP3    H247346   5.442   5.223   3.300 -0.6320  0.6561  0.9405
 8619TIP3   OH247347   0.788   5.323   2.855  0.2480 -0.7214  0.4451
 8619TIP3    H147348   0.815   5.296   2.766  0.2596 -0.7959  0.4707
 8619TIP3    H247349   0.747   5.244   2.891  0.6531 -0.8256  0.6721
 8620TIP3   OH247350   4.927   5.413  15.391  0.0720 -0.1579  0.4683
 8620TIP3    H147351   4.858   5.352  15.416  0.9102 -1.6974 -0.9101
 8620TIP3    H247352   4.881   5.496  15.375 -1.3734 -0.9857  0.2091
 8621TIP3   OH247353   0.316   3.643  11.302  0.5258 -0.5568  0.1535
 8621TIP3    H147354   0.270   3.704  11.245  1.4054 -0.8985 -0.9440
 8621TIP3    H247355   0.256   3.626  11.374 -0.2005  0.6575 -0.1659
 8622TIP3   OH247356   0.796   1.327  13.173 -0.0443 -0.2081 -0.0781
 8622TIP3    H147357   0.807   1.419  13.151 -2.3157 -0.1592 -1.2441
 8622TIP3    H247358   0.797   1.282  13.088 -0.7467 -1.0179  0.3282
 8623TIP3   OH247359   3.251   5.821  12.613  0.1245 -0.4029 -0.6233
 8623TIP3    H147360   3.235   5.847  12.523  0.3007  0.1611 -0.4962
 8623TIP3    H247361   3.307   5.890  12.649  0.8317 -1.1064 -0.3529
 8624TIP3   OH247362   2.908   1.144   5.380  0.4359  0.2916  0.1860
 8624TIP3    H147363   2.832   1.192   5.348 -1.4047 -1.2249  2.1754
 8624TIP3    H247364   2.922   1.076   5.314  0.1668  0.6584 -0.2550
 8625TIP3   OH247365   5.437   2.977   6.298 -0.5337  0.5628  0.4488
 8625TIP3    H147366   5.487   2.951   6.375  2.3310  0.8889 -1.2339
 8625TIP3    H247367   5.433   3.072   6.302 -2.1348  0.4818  1.2193
 8626TIP3   OH247368   4.270   2.300  13.152  0.3500 -0.9696  0.3042
 8626TIP3    H147369   4.360   2.269  13.167  0.6497  0.1469  0.8691
 8626TIP3    H247370   4.217   2.248  13.213  0.7651 -0.8253  0.7922
 8627TIP3   OH247371   1.347   2.646   0.345  0.1534  0.2012 -0.6846
 8627TIP3    H147372   1.298   2.605   0.274  0.6061 -0.6564 -0.5103
 8627TIP3    H247373   1.429   2.598   0.349  0.6077  0.9833 -0.3225
 8628TIP3   OH247374   1.270   1.155  17.198 -0.3919 -0.1748 -0.1772
 8628TIP3    H147375   1.298   1.132  17.109 -0.0297 -0.1123 -0.0789
 8628TIP3    H247376   1.196   1.215  17.185  0.4280  0.7843 -0.4478
 8629TIP3   OH247377   2.106   0.568   5.623  0.1917  0.1533 -0.3632
 8629TIP3    H147378   2.109   0.647   5.677  0.5345 -0.4057  0.4455
 8629TIP3    H247379   2.185   0.520   5.645 -0.8003 -1.1961  0.3689
 8630TIP3   OH247380   0.280   5.223   5.402  0.1931  0.7056  0.0202
 8630TIP3    H147381   0.226   5.171   5.342 -0.0288  0.8592  0.0854
 8630TIP3    H247382   0.336   5.275   5.344  1.1634 -0.3926 -0.0279
 8631TIP3   OH247383   4.315   2.302  15.169  0.0697 -0.2512  0.4282
 8631TIP3    H147384   4.273   2.327  15.086  1.8210  0.7017 -0.2133
 8631TIP3    H247385   4.369   2.227  15.146  0.3838 -0.1212  0.7460
 8632TIP3   OH247386   2.305   1.268  14.043  0.0881 -0.4680  0.4842
 8632TIP3    H147387   2.394   1.303  14.051  0.1875 -0.9095  1.3383
 8632TIP3    H247388   2.249   1.346  14.044  0.2803 -0.3183  2.7689
 8633TIP3   OH247389   3.800   4.083  14.303 -0.7280  0.0071 -0.3035
 8633TIP3    H147390   3.711   4.079  14.337  0.1106  0.2687  1.9642
 8633TIP3    H247391   3.841   4.002  14.332  0.2550  0.6329  0.0921
 8634TIP3   OH247392   3.986   2.333  13.037 -0.6294  0.3567 -0.3829
 8634TIP3    H147393   3.974   2.417  12.992 -1.9130  1.2464  1.5459
 8634TIP3    H247394   4.063   2.348  13.093  1.1767 -0.8564 -2.4367
 8635TIP3   OH247395   1.169   0.122  12.545 -0.7685 -0.0672  0.1402
 8635TIP3    H147396   1.224   0.120  12.623  1.4982 -0.7610 -1.4172
 8635TIP3    H247397   1.139   0.212  12.539  3.4516  1.3509 -1.1370
 8636TIP3   OH247398   2.640   4.693  12.554 -0.0457  0.4971  0.0925
 8636TIP3    H147399   2.707   4.756  12.579  1.0627 -0.1315 -1.2148
 8636TIP3    H247400   2.572   4.745  12.511 -0.8563  1.2592  2.2782
 8637TIP3   OH247401   3.938   2.508  12.350 -0.0389 -0.1252  0.1001
 8637TIP3    H147402   3.992   2.586  12.340 -0.1959 -0.2889 -2.1358
 8637TIP3    H247403   3.880   2.508  12.274 -2.0049 -0.9069  1.5334
 8638TIP3   OH247404   6.431   5.992  16.726  0.2374  0.0845  0.2111
 8638TIP3    H147405   6.402   5.964  16.639  0.5224 -0.3607  0.2601
 8638TIP3    H247406   6.362   5.963  16.785  0.6360 -0.7333  0.2879
 8639TIP3   OH247407   4.867   4.940   1.665 -0.1569  0.6048  0.2651
 8639TIP3    H147408   4.835   4.916   1.752  1.5095  2.0135  1.3012
 8639TIP3    H247409   4.809   5.010   1.636 -0.1233  0.7995  0.6683
 8640TIP3   OH247410   3.624   6.409   2.498  0.0505  0.2560  0.0382
 8640TIP3    H147411   3.530   6.422   2.514 -0.3944 -1.3086 -1.1456
 8640TIP3    H247412   3.666   6.484   2.540 -1.5807 -0.0079  2.2380
 8641TIP3   OH247413   3.971   0.868  12.503 -0.4892  0.3973  0.6917
 8641TIP3    H147414   3.956   0.825  12.587  2.3239  0.5998  1.3623
 8641TIP3    H247415   3.947   0.960  12.518  0.3053  0.5007  1.3953
 8642TIP3   OH247416   6.222   4.579  12.008  0.0051 -0.5895 -0.0771
 8642TIP3    H147417   6.279   4.631  12.065 -1.8688  1.3076  0.1252
 8642TIP3    H247418   6.249   4.488  12.023  2.6429  0.2269  0.3468
 8643TIP3   OH247419   1.474   1.034  13.255  0.5035  0.0659 -0.1219
 8643TIP3    H147420   1.483   1.002  13.165  2.6933 -0.6526  0.3181
 8643TIP3    H247421   1.391   1.080  13.256  0.2030 -0.3705 -2.3878
 8644TIP3   OH247422   1.517   3.200   6.865 -1.0771 -0.1819  0.1388
 8644TIP3    H147423   1.454   3.144   6.911  0.7628 -1.5689  1.0038
 8644TIP3    H247424   1.533   3.155   6.782  1.0411 -1.4158  1.1868
 8645TIP3   OH247425   1.731   4.178   1.803 -0.0057 -0.0786  0.1573
 8645TIP3    H147426   1.686   4.150   1.724  0.6683  0.8603 -0.5709
 8645TIP3    H247427   1.800   4.237   1.772  0.0912  0.5138  1.4663
 8646TIP3   OH247428   5.542   2.490   0.700  0.2340 -0.3525 -0.0288
 8646TIP3    H147429   5.532   2.396   0.719  0.8130 -0.3122  0.4883
 8646TIP3    H247430   5.580   2.492   0.612  2.9952 -0.6940  1.0956
 8647TIP3   OH247431   3.229   5.691  11.610 -0.5669  0.0367  0.1633
 8647TIP3    H147432   3.277   5.761  11.655  0.1552 -0.2147 -0.1912
 8647TIP3    H247433   3.219   5.623  11.676 -0.6076  0.1759  0.3005
 8648TIP3   OH247434   4.987   2.773   0.116 -0.1812  0.0453 -1.0219
 8648TIP3    H147435   5.043   2.748   0.190 -1.2606  2.3222  0.6358
 8648TIP3    H247436   5.006   2.866   0.103 -2.6703  0.5639 -1.1891
 8649TIP3   OH247437   4.792   0.773  14.928 -0.2511 -0.1759 -0.7272
 8649TIP3    H147438   4.856   0.734  14.988  0.3929 -0.2895 -1.4629
 8649TIP3    H247439   4.708   0.764  14.972  0.5343  2.1202  1.2980
 8650TIP3   OH247440   0.546   2.187   4.193 -0.0153 -0.4546  0.1505
 8650TIP3    H147441   0.603   2.199   4.117  0.0271 -0.4672  0.1810
 8650TIP3    H247442   0.594   2.227   4.265 -0.6182  0.6993 -0.0751
 8651TIP3   OH247443   0.464   0.823   3.562  0.0598 -0.3018  0.0336
 8651TIP3    H147444   0.543   0.775   3.538  0.7439  1.0422 -0.4265
 8651TIP3    H247445   0.448   0.799   3.653  0.5672 -1.1644 -0.1018
 8652TIP3   OH247446   6.282   3.337   3.738  0.3042 -0.8137 -0.3872
 8652TIP3    H147447   6.213   3.311   3.678  1.5601 -0.7000 -1.9317
 8652TIP3    H247448   6.257   3.425   3.766 -1.7532 -1.9767  1.5104
 8653TIP3   OH247449   0.144   3.777  15.652  0.1231  0.7543  0.1489
 8653TIP3    H147450   0.199   3.699  15.643 -0.0924  0.3927  1.8991
 8653TIP3    H247451   0.176   3.836  15.584  2.0416  0.1784  0.5178
 8654TIP3   OH247452   5.613   0.358  15.134 -0.3380  0.4853 -0.6465
 8654TIP3    H147453   5.520   0.364  15.154 -0.3884 -0.1898 -0.6777
 8654TIP3    H247454   5.657   0.378  15.217 -0.4826  2.5967 -1.0666
 8655TIP3   OH247455   4.257   3.670  10.807  0.6450  0.3740  0.1711
 8655TIP3    H147456   4.246   3.668  10.712 -0.8809  0.2771  0.3281
 8655TIP3    H247457   4.349   3.692  10.821  1.1895 -0.8295 -1.3359
 8656TIP3   OH247458   0.895   2.836  13.433 -0.5683 -0.2411  0.2849
 8656TIP3    H147459   0.909   2.781  13.356  0.8066  0.3309  0.1043
 8656TIP3    H247460   0.978   2.832  13.480 -0.6395  1.2314  0.5508
 8657TIP3   OH247461   0.498   5.262  10.825  0.3618  0.1449  0.1796
 8657TIP3    H147462   0.546   5.338  10.856  0.2285  0.3836 -0.1910
 8657TIP3    H247463   0.406   5.286  10.832  0.2928 -0.3171  0.9007
 8658TIP3   OH247464   3.709   6.528  13.453  0.2138  0.2156  0.4899
 8658TIP3    H147465   3.646   6.458  13.438  0.3641  0.1981 -0.0677
 8658TIP3    H247466   3.784   6.505  13.398  0.6946  0.2493  1.1273
 8659TIP3   OH247467   3.034   2.052   3.768  0.1579 -0.3839  0.0888
 8659TIP3    H147468   3.110   1.996   3.754  1.5841  1.6469 -0.5408
 8659TIP3    H247469   3.050   2.093   3.853 -1.3403 -1.6406  0.9867
 8660TIP3   OH247470   1.336   2.889   1.465  0.8349 -0.4961  0.0838
 8660TIP3    H147471   1.389   2.813   1.441  1.0268 -0.3117 -0.0950
 8660TIP3    H247472   1.296   2.866   1.548 -0.2630 -1.3638 -0.6770
 8661TIP3   OH247473   5.405   3.075  17.088 -0.2110  0.4584 -0.1260
 8661TIP3    H147474   5.485   3.120  17.059  0.0331  1.2316  1.6347
 8661TIP3    H247475   5.417   2.984  17.061  2.0790  0.1813  1.6313
 8662TIP3   OH247476   1.617   5.661  13.304  0.5984 -0.2355 -0.1288
 8662TIP3    H147477   1.600   5.730  13.239  0.6503 -0.5644 -0.4933
 8662TIP3    H247478   1.693   5.692  13.352 -0.1608  0.5772  0.5733
 8663TIP3   OH247479   4.040   1.273  16.570  0.0704  0.4498  0.0485
 8663TIP3    H147480   4.011   1.202  16.513 -0.6770  1.0023 -0.2585
 8663TIP3    H247481   4.072   1.229  16.649  0.5403 -0.2829 -0.5473
 8664TIP3   OH247482   2.784   2.855  14.663 -0.0667 -0.0689 -0.3826
 8664TIP3    H147483   2.752   2.938  14.629  0.4602  0.5924  0.7158
 8664TIP3    H247484   2.876   2.853  14.637 -0.4702 -1.0429 -1.7870
 8665TIP3   OH247485   4.988   0.683  16.093 -0.2911  0.1301 -0.4408
 8665TIP3    H147486   4.957   0.773  16.099 -1.4312 -0.2857  0.1352
 8665TIP3    H247487   5.026   0.666  16.179 -0.1436  0.0326 -0.5260
 8666TIP3   OH247488   5.905   5.500  16.848 -0.4983 -0.1434 -0.0151
 8666TIP3    H147489   5.809   5.497  16.854 -0.6851  1.1474 -1.7135
 8666TIP3    H247490   5.935   5.494  16.938 -2.1626 -1.2139  0.4911
 8667TIP3   OH247491   2.999   6.710   6.355  0.0747 -0.2063 -0.4195
 8667TIP3    H147492   3.085   6.694   6.317  0.4758 -0.8214  0.7345
 8667TIP3    H247493   2.945   6.639   6.322 -0.0593  0.2861 -1.2995
 8668TIP3   OH247494   1.823   5.826   5.436 -0.4484  0.2338  0.1211
 8668TIP3    H147495   1.916   5.816   5.414 -0.8146 -0.8182 -0.9897
 8668TIP3    H247496   1.786   5.872   5.360 -0.2387  3.5239  1.9374
 8669TIP3   OH247497   0.717   3.889  16.231  0.2919  0.1530 -0.1879
 8669TIP3    H147498   0.640   3.928  16.188 -0.6629 -0.5587  0.8756
 8669TIP3    H247499   0.761   3.840  16.161 -0.7146 -0.1736 -0.5987
 8670TIP3   OH247500   2.449   2.625  16.956 -0.3230 -0.1402  0.3855
 8670TIP3    H147501   2.485   2.537  16.946  0.5558  0.1619  0.8453
 8670TIP3    H247502   2.468   2.648  17.047 -1.6136  0.0547  0.6144
 8671TIP3   OH247503   4.984   5.044  15.939  0.5664  0.0331 -0.2728
 8671TIP3    H147504   4.984   5.041  15.844  1.6396 -0.5090 -0.2606
 8671TIP3    H247505   5.070   5.012  15.964 -0.7226 -2.6656  0.9680
 8672TIP3   OH247506   0.645   3.499   2.124  0.1114  0.2168 -0.1045
 8672TIP3    H147507   0.576   3.433   2.115  1.2722 -1.1069  0.4313
 8672TIP3    H247508   0.609   3.566   2.182 -0.4561 -0.8425  0.7750
 8673TIP3   OH247509   1.400   2.829  10.938  0.8709 -0.0548 -0.1736
 8673TIP3    H147510   1.358   2.772  11.003  3.8900 -3.6105 -1.1746
 8673TIP3    H247511   1.362   2.801  10.854  2.4614 -0.7646 -0.6818
 8674TIP3   OH247512   5.597   4.554   5.206  0.1178  0.7920  0.1003
 8674TIP3    H147513   5.558   4.637   5.177 -1.1979 -0.1404 -0.8173
 8674TIP3    H247514   5.602   4.562   5.302 -2.7512  0.7571  0.2869
 8675TIP3   OH247515   0.602   3.870   5.855  0.0871  0.2130  0.3399
 8675TIP3    H147516   0.545   3.809   5.809  0.8336  0.0684 -0.3946
 8675TIP3    H247517   0.544   3.912   5.919 -0.9576  0.4351 -0.7291
 8676TIP3   OH247518   0.281   6.716  14.706 -0.2936  0.7207 -0.0457
 8676TIP3    H147519   0.374   6.722  14.727  0.2253 -1.6920 -1.4949
 8676TIP3    H247520   0.268   6.777  14.633 -0.3767  2.8102  1.6646
 8677TIP3   OH247521   4.253   1.659  11.895 -0.2838 -1.0705  0.3439
 8677TIP3    H147522   4.165   1.625  11.877 -0.6314 -0.0512  0.0086
 8677TIP3    H247523   4.251   1.685  11.987 -0.7765  0.1581  0.0063
 8678TIP3   OH247524   2.613   2.826   2.124 -0.5028  0.4800 -0.4192
 8678TIP3    H147525   2.588   2.836   2.216 -1.6080  2.5534 -0.8997
 8678TIP3    H247526   2.594   2.735   2.103 -1.0118  0.2087  1.1984
 8679TIP3   OH247527   6.713   6.072   5.933 -0.3759 -0.7286  0.4556
 8679TIP3    H147528   6.666   6.098   6.012 -0.1247  0.1245  0.3304
 8679TIP3    H247529   6.650   6.081   5.862 -0.4807 -1.0988  0.4998
 8680TIP3   OH247530   2.236   2.968   2.596  0.7649 -0.1683  0.3924
 8680TIP3    H147531   2.312   2.911   2.607  1.4729  0.5901 -0.4370
 8680TIP3    H247532   2.217   2.964   2.502 -0.1652 -0.2834  0.5844
 8681TIP3   OH247533   2.920   2.572  13.400  0.1530  0.3106 -0.2748
 8681TIP3    H147534   2.990   2.518  13.365  0.7428  1.2272 -0.5183
 8681TIP3    H247535   2.850   2.566  13.335 -0.0299 -0.6485 -0.0054
 8682TIP3   OH247536   0.514   5.753   2.311 -0.4206 -0.7518 -0.1721
 8682TIP3    H147537   0.563   5.738   2.392 -0.5247  0.2113  0.0697
 8682TIP3    H247538   0.547   5.837   2.279  0.0424 -1.4046 -1.4355
 8683TIP3   OH247539   6.475   0.540   5.930  0.4191 -0.0686  0.3010
 8683TIP3    H147540   6.474   0.622   5.880  2.8190  0.8698  1.7007
 8683TIP3    H247541   6.520   0.562   6.012 -1.6392 -2.0751  2.0146
 8684TIP3   OH247542   5.585   0.524   5.255  0.0115 -0.0243  0.0654
 8684TIP3    H147543   5.601   0.436   5.219  2.0544  0.3786 -0.0632
 8684TIP3    H247544   5.672   0.557   5.276 -0.7407  2.0128  0.0407
 8685TIP3   OH247545   6.570   1.664  12.098 -0.3486 -0.3116 -0.3754
 8685TIP3    H147546   6.480   1.633  12.099  0.0290 -1.4239  0.8996
 8685TIP3    H247547   6.593   1.674  12.191  0.4457  1.1572 -0.7113
 8686TIP3   OH247548   6.321   2.966  15.522  0.2364 -0.4499 -0.5281
 8686TIP3    H147549   6.259   2.913  15.572 -1.6425  1.9821 -0.1854
 8686TIP3    H247550   6.376   3.007  15.589  0.0861 -0.0482 -0.6484
 8687TIP3   OH247551   6.595   6.112   1.391 -0.5477 -0.1662 -0.2667
 8687TIP3    H147552   6.527   6.045   1.383  0.0469 -0.7803 -0.2313
 8687TIP3    H247553   6.630   6.121   1.302  0.9339 -1.5700  0.1459
 8688TIP3   OH247554   1.377   6.653  15.477 -0.0855  0.1811 -0.0984
 8688TIP3    H147555   1.328   6.595  15.535 -1.0232  0.9880 -0.0544
 8688TIP3    H247556   1.466   6.619  15.477 -0.5962 -1.1836  0.0057
 8689TIP3   OH247557   3.579   3.847  14.091  0.7640  0.2129  0.3075
 8689TIP3    H147558   3.636   3.861  14.166  0.7749  0.4776  0.2480
 8689TIP3    H247559   3.524   3.772  14.116  1.6952 -0.5748  0.0404
 8690TIP3   OH247560   4.078   3.998   5.598 -0.2840  0.0825 -0.7615
 8690TIP3    H147561   3.984   3.980   5.597 -0.6966  2.1719 -1.6871
 8690TIP3    H247562   4.116   3.927   5.547 -1.3369 -0.8477 -0.2770
 8691TIP3   OH247563   1.663   6.363  13.056 -0.3427 -0.2824 -0.5666
 8691TIP3    H147564   1.700   6.451  13.042 -0.3125 -0.5410 -2.2189
 8691TIP3    H247565   1.605   6.374  13.131 -0.0064  1.0526 -0.4738
 8692TIP3   OH247566   1.081   4.305   5.879  0.3516 -0.0244 -0.5349
 8692TIP3    H147567   1.093   4.210   5.871 -1.6249 -0.4829  1.3730
 8692TIP3    H247568   1.165   4.338   5.910  0.0011 -1.6629  2.2583
 8693TIP3   OH247569   4.364   5.258   2.108  0.4459 -0.2194 -0.0339
 8693TIP3    H147570   4.372   5.256   2.204 -1.4355  0.4631  0.1638
 8693TIP3    H247571   4.271   5.276   2.093  0.8904  0.5262 -1.9904
 8694TIP3   OH247572   3.458   6.777  14.757 -0.6627 -0.3891 -0.0747
 8694TIP3    H147573   3.425   6.720  14.827 -2.6085  0.4809 -0.2424
 8694TIP3    H247574   3.396   6.850  14.755  2.0170  1.9737  0.4160
 8695TIP3   OH247575   5.173   1.097   4.116 -0.4350 -1.0560  0.1957
 8695TIP3    H147576   5.176   1.131   4.027  0.6886 -0.8122  0.3131
 8695TIP3    H247577   5.252   1.133   4.158 -1.4624 -0.3499  1.5856
 8696TIP3   OH247578   6.248   3.800   4.900 -0.0474  0.0262 -0.0618
 8696TIP3    H147579   6.288   3.831   4.981 -1.7090  0.5484  0.5589
 8696TIP3    H247580   6.211   3.878   4.859 -0.8131 -0.5256 -0.4265
 8697TIP3   OH247581   3.121   4.957  14.192 -0.4714 -0.5755  0.1895
 8697TIP3    H147582   3.034   4.951  14.230  0.7853 -0.1392  3.3145
 8697TIP3    H247583   3.157   5.038  14.228  2.2128 -2.1568  1.1870
 8698TIP3   OH247584   4.424   1.733  15.566 -0.2347 -0.3422 -0.3698
 8698TIP3    H147585   4.406   1.647  15.604 -1.2140 -0.4416 -1.0240
 8698TIP3    H247586   4.340   1.779  15.572 -0.2569 -0.1612 -1.8520
 8699TIP3   OH247587   0.416   0.728  13.445  0.4006  0.0831  0.0405
 8699TIP3    H147588   0.381   0.788  13.511 -0.8142  0.9227 -1.3233
 8699TIP3    H247589   0.343   0.669  13.426  0.0995  1.0116 -1.8580
 8700TIP3   OH247590   4.073   1.203   1.503 -0.3116 -0.6738  0.1828
 8700TIP3    H147591   4.169   1.202   1.506 -0.3387  0.4715  2.0142
 8700TIP3    H247592   4.052   1.173   1.414  1.7400 -0.6758 -0.3376
 8701TIP3   OH247593   4.747   4.598  11.068  0.0781 -0.2159 -0.2203
 8701TIP3    H147594   4.737   4.692  11.058  1.1039  0.2504  2.6585
 8701TIP3    H247595   4.791   4.569  10.988  0.0774  1.7847 -0.9618
 8702TIP3   OH247596   5.409   6.791  13.380 -0.4438 -0.2286 -0.2347
 8702TIP3    H147597   5.376   6.846  13.309 -0.4061  0.8454  0.5615
 8702TIP3    H247598   5.494   6.829  13.403 -0.3025 -0.7719  0.1496
 8703TIP3   OH247599   2.725   2.152  12.829  0.3853 -0.1199 -0.1634
 8703TIP3    H147600   2.759   2.107  12.907  1.3618 -0.2158 -0.6318
 8703TIP3    H247601   2.681   2.229  12.864  1.9663  0.5437  0.4296
 8704TIP3   OH247602   0.976   5.759   1.770 -0.3284 -0.0701 -0.1012
 8704TIP3    H147603   0.978   5.852   1.792  0.2947  0.2827 -1.6247
 8704TIP3    H247604   0.995   5.755   1.676 -1.2975 -1.6706 -0.2601
 8705TIP3   OH247605   1.055   6.340   5.584 -0.0117  0.0795  0.3051
 8705TIP3    H147606   1.074   6.295   5.667 -0.7326 -1.2718 -0.2411
 8705TIP3    H247607   1.127   6.401   5.573 -0.7402  1.4725  2.7498
 8706TIP3   OH247608   2.392   5.224  15.313 -0.2301 -0.3132  0.2957
 8706TIP3    H147609   2.352   5.200  15.396 -0.2218  0.2801  0.4676
 8706TIP3    H247610   2.322   5.265  15.263  0.6079  2.3748  1.2799
 8707TIP3   OH247611   2.337   1.589   3.923 -0.0620 -0.2119 -0.0292
 8707TIP3    H147612   2.406   1.647   3.891 -0.4783  0.0910 -0.3797
 8707TIP3    H247613   2.262   1.647   3.939 -1.2013 -0.9383 -2.4527
 8708TIP3   OH247614   6.219   0.983   3.879 -0.3771  0.0770  0.1969
 8708TIP3    H147615   6.248   0.931   3.954  0.9455  0.1563 -0.2410
 8708TIP3    H247616   6.228   0.923   3.805 -0.8359  0.2772 -0.0155
 8709TIP3   OH247617   0.689   0.770  12.779  0.3737  0.7561  0.4545
 8709TIP3    H147618   0.657   0.785  12.690  1.3279 -1.1116 -0.2167
 8709TIP3    H247619   0.613   0.785  12.835 -1.3756 -2.3902 -1.0088
 8710TIP3   OH247620   4.922   4.422   4.821  0.2305  0.2939 -0.5579
 8710TIP3    H147621   4.966   4.362   4.761  1.7738 -0.0310  0.8778
 8710TIP3    H247622   4.857   4.367   4.866  1.2512 -0.1799  0.3450
 8711TIP3   OH247623   1.198   3.674   6.562  0.1264 -0.7694 -0.1237
 8711TIP3    H147624   1.120   3.648   6.611  0.2276 -2.4712 -0.8382
 8711TIP3    H247625   1.218   3.762   6.595 -1.9523 -0.3840  0.2169
 8712TIP3   OH247626   5.518   6.518  15.234 -0.3161 -0.3387 -0.6909
 8712TIP3    H147627   5.467   6.520  15.153 -0.2538 -2.9590 -0.8338
 8712TIP3    H247628   5.474   6.454  15.289  1.6636 -1.1923 -0.0431
 8713TIP3   OH247629   3.399   2.375   2.912 -0.0213  0.5190  0.1084
 8713TIP3    H147630   3.306   2.352   2.909  0.3004 -0.7059 -0.5172
 8713TIP3    H247631   3.418   2.410   2.825  0.3077 -0.0265 -0.0395
 8714TIP3   OH247632   5.788   5.855   4.509 -0.3764 -0.0248  0.1006
 8714TIP3    H147633   5.855   5.844   4.442  1.5268  1.3981  1.7111
 8714TIP3    H247634   5.715   5.896   4.464  0.4417 -0.1030 -1.3360
 8715TIP3   OH247635   5.046   0.576   2.757  0.4338  0.1428 -0.8649
 8715TIP3    H147636   4.981   0.645   2.775  0.4896  0.0676 -0.3724
 8715TIP3    H247637   4.996   0.494   2.763  0.8922 -0.0072  1.0333
 8716TIP3   OH247638   3.229   3.725  16.402 -0.2044  0.0779  0.3262
 8716TIP3    H147639   3.309   3.721  16.455 -0.0841 -0.1078  0.1284
 8716TIP3    H247640   3.160   3.696  16.460 -0.3859  1.8013  1.0026
 8717TIP3   OH247641   5.462   6.323  14.628  0.6315  0.5690 -0.0100
 8717TIP3    H147642   5.529   6.386  14.600  1.6865  0.0076  1.2102
 8717TIP3    H247643   5.490   6.240  14.588  1.2226  0.1253  1.3021
 8718TIP3   OH247644   5.113   4.658  11.293 -0.5233  0.4247 -0.3329
 8718TIP3    H147645   5.059   4.579  11.283 -1.0542  0.7024  0.3075
 8718TIP3    H247646   5.202   4.624  11.301 -0.6729 -0.0765 -0.7391
 8719TIP3   OH247647   4.508   4.888   5.704 -0.0745 -0.3423 -0.6449
 8719TIP3    H147648   4.571   4.821   5.678  0.8309 -0.0736  0.8024
 8719TIP3    H247649   4.494   4.941   5.626  2.2702  0.2011 -0.7186
 8720TIP3   OH247650   3.380   6.787   1.804 -0.1511 -0.3232 -0.3216
 8720TIP3    H147651   3.325   6.729   1.857  0.8766 -0.1121  1.0127
 8720TIP3    H247652   3.344   6.874   1.817  0.6397 -0.1523  0.7466
 8721TIP3   OH247653   2.120   1.729  14.754  0.2082 -0.4893 -0.0573
 8721TIP3    H147654   2.092   1.820  14.745  0.0711 -0.4997  0.2656
 8721TIP3    H247655   2.214   1.735  14.770  0.3302 -0.4389 -0.7482
 8722TIP3   OH247656   5.902   5.606   5.906 -0.5602 -0.6929 -0.3058
 8722TIP3    H147657   5.984   5.596   5.857  0.4887 -1.1977  1.5029
 8722TIP3    H247658   5.858   5.521   5.897  0.4435 -1.3873  0.9985
 8723TIP3   OH247659   2.495   5.791   1.549 -0.0053  0.4143 -0.7313
 8723TIP3    H147660   2.457   5.820   1.631 -1.8211  0.1869 -1.4710
 8723TIP3    H247661   2.531   5.704   1.568  0.9589  1.0119  0.2004
 8724TIP3   OH247662   5.410   0.313  16.802  0.2149 -0.5528 -0.3453
 8724TIP3    H147663   5.330   0.363  16.784 -0.4535 -1.2957  0.5378
 8724TIP3    H247664   5.426   0.264  16.722  0.0936  0.0273 -0.7276
 8725TIP3   OH247665   4.562   1.521   4.979  0.0031 -0.1313 -0.0125
 8725TIP3    H147666   4.644   1.477   5.003 -0.0599 -0.6275 -0.6713
 8725TIP3    H247667   4.494   1.463   5.014 -0.0800 -0.5396 -0.8365
 8726TIP3   OH247668   3.261   5.860   3.203 -0.0785 -0.4958 -0.5355
 8726TIP3    H147669   3.286   5.772   3.174  0.5782  0.0967 -1.8127
 8726TIP3    H247670   3.343   5.911   3.199 -0.4008  0.1160  0.4364
 8727TIP3   OH247671   5.178   0.839   4.652  0.7549  0.0060  0.2042
 8727TIP3    H147672   5.189   0.842   4.557 -1.6664 -2.0239 -0.1848
 8727TIP3    H247673   5.257   0.795   4.684  0.4877 -1.5185 -1.1381
 8728TIP3   OH247674   2.772   5.898  11.925  0.1276 -0.1136  0.2724
 8728TIP3    H147675   2.760   5.821  11.980  0.8130  0.0023  0.5948
 8728TIP3    H247676   2.797   5.968  11.986  2.6022 -0.3985 -0.3411
 8729TIP3   OH247677   0.567   4.577  15.882 -0.1095 -0.0976 -0.0289
 8729TIP3    H147678   0.516   4.554  15.959  0.1123 -1.3120 -0.2337
 8729TIP3    H247679   0.550   4.507  15.819 -1.2431  1.5013 -1.5547
 8730TIP3   OH247680   0.838   6.607   4.112 -1.2328  0.2994  0.3459
 8730TIP3    H147681   0.865   6.662   4.039 -1.7373 -1.4867 -1.2150
 8730TIP3    H247682   0.799   6.668   4.175 -0.9354  1.8231 -0.9288
 8731TIP3   OH247683   6.724   0.312  13.872  0.2297 -0.2315  0.1371
 8731TIP3    H147684   6.668   0.384  13.843 -0.7798  0.1755  2.9412
 8731TIP3    H247685   6.813   0.345  13.865 -0.0870  0.4786 -0.6546
 8732TIP3   OH247686   3.275   1.292  12.960 -0.4492  0.0190 -0.2072
 8732TIP3    H147687   3.248   1.259  12.874 -1.4980 -0.3861  0.2706
 8732TIP3    H247688   3.289   1.213  13.013 -0.5970  0.2829  0.2286
 8733TIP3   OH247689   1.147   4.468   0.595 -0.3819  0.2519  0.1115
 8733TIP3    H147690   1.238   4.495   0.610 -0.5908  2.0520 -1.5534
 8733TIP3    H247691   1.098   4.510   0.665  0.1000 -1.0220  1.2290
 8734TIP3   OH247692   5.336   5.691   1.067  0.0423  1.1759 -0.4952
 8734TIP3    H147693   5.281   5.647   1.002 -3.4202  1.3790  2.1511
 8734TIP3    H247694   5.383   5.619   1.110  1.2710  0.9244 -2.1979
 8735TIP3   OH247695   4.720   3.948  11.447 -0.1617 -0.6844 -0.0590
 8735TIP3    H147696   4.767   3.972  11.368 -0.1665 -0.1837  0.0877
 8735TIP3    H247697   4.643   3.901  11.416 -0.2479 -0.3469 -0.3639
 8736TIP3   OH247698   2.049   0.467  13.414  0.0780 -0.3082 -0.0093
 8736TIP3    H147699   2.058   0.484  13.320 -0.1412  1.9092  0.3470
 8736TIP3    H247700   1.956   0.449  13.426 -0.1687  0.9448  0.0096
 8737TIP3   OH247701   1.658   5.931  12.480 -0.4916 -0.5610  0.6583
 8737TIP3    H147702   1.669   5.851  12.429 -0.2963 -0.0996 -0.0346
 8737TIP3    H247703   1.684   5.907  12.569  1.6344 -0.6958  0.0109
 8738TIP3   OH247704   3.383   3.498   3.472  0.3386  0.6170 -0.0374
 8738TIP3    H147705   3.457   3.540   3.517 -1.1419  1.2710  1.8467
 8738TIP3    H247706   3.420   3.419   3.434  1.8569  0.5584  1.5061
 8739TIP3   OH247707   3.588   3.873   0.806 -0.4744 -0.3073  0.2912
 8739TIP3    H147708   3.517   3.936   0.819  2.1368  2.7282  0.4444
 8739TIP3    H247709   3.621   3.855   0.895 -0.2663 -0.7761  0.1247
 8740TIP3   OH247710   3.312   0.760   3.857 -0.2456 -0.7014 -0.2837
 8740TIP3    H147711   3.353   0.753   3.770  2.2476 -1.8577  0.9141
 8740TIP3    H247712   3.280   0.671   3.876  0.1504 -0.7060  0.3916
 8741TIP3   OH247713   1.763   5.170   0.778  0.3517 -0.0161  0.2644
 8741TIP3    H147714   1.760   5.265   0.791  1.3746  0.0749 -0.1319
 8741TIP3    H247715   1.842   5.142   0.824 -0.2675 -0.7660  0.9014
 8742TIP3   OH247716   5.884   6.636  11.714  0.1726 -0.1307  0.2604
 8742TIP3    H147717   5.803   6.595  11.684  0.5639 -1.3106  0.7824
 8742TIP3    H247718   5.951   6.570  11.699  0.6193 -0.1747  2.2586
 8743TIP3   OH247719   5.664   2.378  16.897  0.3618 -0.0429  0.1345
 8743TIP3    H147720   5.681   2.292  16.934 -0.6918 -1.1256 -1.7833
 8743TIP3    H247721   5.573   2.397  16.922  1.2653  1.4655  2.3367
 8744TIP3   OH247722   1.347   2.174   4.337 -0.6859  0.3212  0.0314
 8744TIP3    H147723   1.261   2.214   4.331 -0.0128  1.7634 -0.1737
 8744TIP3    H247724   1.405   2.234   4.290  0.2853 -1.0684 -0.5937
 8745TIP3   OH247725   4.106   3.896  14.306  0.3728 -0.1306  0.3531
 8745TIP3    H147726   4.174   3.950  14.345  1.4052 -1.6203  0.6588
 8745TIP3    H247727   4.135   3.882  14.215 -1.4976  2.4528 -0.7188
 8746TIP3   OH247728   5.857   3.726  15.099  0.3181  0.7503 -0.1127
 8746TIP3    H147729   5.805   3.645  15.103 -0.2528  1.0736 -0.8968
 8746TIP3    H247730   5.837   3.771  15.181 -0.2994  0.6516 -0.2054
 8747TIP3   OH247731   2.470   3.584  12.884 -0.6052  0.2905  0.5309
 8747TIP3    H147732   2.402   3.566  12.949  0.2119 -0.4070  1.1921
 8747TIP3    H247733   2.421   3.613  12.806 -1.8317 -2.4846  0.1955
 8748TIP3   OH247734   6.422   5.891  11.461  0.3577 -0.3278 -0.2406
 8748TIP3    H147735   6.440   5.881  11.367 -0.8608 -1.2678 -0.3785
 8748TIP3    H247736   6.452   5.809  11.500  1.8927  0.4965  0.3653
 8749TIP3   OH247737   0.297   5.653  13.018  0.2592 -0.5301 -0.0111
 8749TIP3    H147738   0.351   5.674  12.942  0.0186  0.8548  0.1896
 8749TIP3    H247739   0.324   5.717  13.084 -1.4131 -0.0286  0.1864
 8750TIP3   OH247740   1.715   6.585   4.808 -0.3308 -0.0376  0.2051
 8750TIP3    H147741   1.743   6.503   4.849 -0.4303 -0.5595 -0.7515
 8750TIP3    H247742   1.666   6.630   4.877  2.4020  0.6882  1.7491
 8751TIP3   OH247743   5.435   3.836   4.640  0.1261  0.2385  0.1915
 8751TIP3    H147744   5.369   3.769   4.656 -0.9105 -0.0039 -4.3410
 8751TIP3    H247745   5.518   3.793   4.658 -0.7651 -0.4986  2.6930
 8752TIP3   OH247746   3.961   1.177  12.220  0.3046  0.3860 -0.1584
 8752TIP3    H147747   4.041   1.169  12.168  0.5275 -1.2155  0.4063
 8752TIP3    H247748   3.978   1.125  12.298 -1.0664  0.5135  0.2325
 8753TIP3   OH247749   4.747   1.053  14.917  0.5849  0.1645  0.9372
 8753TIP3    H147750   4.770   0.960  14.907  0.6229  0.3222 -0.5409
 8753TIP3    H247751   4.696   1.056  14.998 -0.1944 -1.2883  0.5217
 8754TIP3   OH247752   3.269   0.762  16.312  0.0442 -0.0351  0.1570
 8754TIP3    H147753   3.239   0.742  16.223  0.7515  0.9605 -0.3191
 8754TIP3    H247754   3.255   0.681  16.361  0.2075 -0.7875 -1.0161
 8755TIP3   OH247755   4.062   1.740  11.233  0.6978  0.2861  0.1104
 8755TIP3    H147756   4.009   1.690  11.296  0.6319  1.0379  0.6596
 8755TIP3    H247757   4.111   1.802  11.287  2.4167 -0.6370 -0.3651
 8756TIP3   OH247758   5.527   6.413  11.530  0.6336  0.2687  0.4524
 8756TIP3    H147759   5.598   6.408  11.594  0.4805 -1.5340  0.5078
 8756TIP3    H247760   5.486   6.327  11.532 -0.3365  0.6629 -0.9862
 8757TIP3   OH247761   0.606   5.263   6.665  0.2188  0.4026  0.1483
 8757TIP3    H147762   0.697   5.253   6.637  0.8267  2.9890  1.0946
 8757TIP3    H247763   0.555   5.227   6.593  1.9369  0.3786 -1.0822
 8758TIP3   OH247764   5.172   4.690  16.044 -0.2791  0.1922  0.5651
 8758TIP3    H147765   5.173   4.671  15.950 -1.3556 -0.5915  0.6951
 8758TIP3    H247766   5.194   4.783  16.051 -2.7205  0.8910 -0.6391
 8759TIP3   OH247767   5.855   4.535   1.042 -0.1604  0.4006  0.0358
 8759TIP3    H147768   5.777   4.501   0.998 -1.1472 -0.1535  2.1360
 8759TIP3    H247769   5.827   4.550   1.132  2.6759 -1.6969  1.3518
 8760TIP3   OH247770   4.814   5.138  12.605  0.5794  0.0392  0.0010
 8760TIP3    H147771   4.847   5.179  12.525  0.3563 -0.7481 -0.5043
 8760TIP3    H247772   4.843   5.047  12.599 -0.3002 -0.2685  0.3385
 8761TIP3   OH247773   5.333   6.576   3.288  0.2036 -0.2479 -0.0201
 8761TIP3    H147774   5.257   6.545   3.238  0.8353 -0.5731 -0.7741
 8761TIP3    H247775   5.396   6.504   3.283 -0.1057 -0.7245  2.1025
 8762TIP3   OH247776   3.280   4.877   3.045 -0.0235 -0.6521 -0.2691
 8762TIP3    H147777   3.212   4.839   2.989  1.0060 -1.3503 -1.0768
 8762TIP3    H247778   3.362   4.856   3.000  0.6499  1.4123 -0.0606
 8763TIP3   OH247779   1.276   1.313  11.085 -0.4829  0.3306  0.5675
 8763TIP3    H147780   1.334   1.389  11.073  0.9170 -0.7193  0.5107
 8763TIP3    H247781   1.201   1.331  11.029 -0.8965  2.3949  1.7295
 8764TIP3   OH247782   2.577   1.192   2.889 -0.3040  0.1130  0.4272
 8764TIP3    H147783   2.544   1.105   2.913 -0.2834  0.1010  0.4121
 8764TIP3    H247784   2.502   1.236   2.848 -0.1247 -0.1294 -0.1565
 8765TIP3   OH247785   1.030   5.747  11.517  0.0324 -0.1145 -0.1853
 8765TIP3    H147786   1.110   5.800  11.524 -0.9150  1.0528  2.0876
 8765TIP3    H247787   1.041   5.679  11.583 -0.0062 -1.1519 -1.2177
 8766TIP3   OH247788   5.194   5.743   5.620  0.4195 -0.3069 -0.0099
 8766TIP3    H147789   5.211   5.750   5.526  0.6486  0.6873  0.0970
 8766TIP3    H247790   5.169   5.651   5.633 -0.6741 -0.2117 -1.2187
 8767TIP3   OH247791   1.584   3.563   0.065  0.9500 -0.1552  0.4013
 8767TIP3    H147792   1.564   3.530  -0.023  0.9204 -1.5467  0.9288
 8767TIP3    H247793   1.527   3.640   0.074  0.5485 -0.3237 -0.5925
 8768TIP3   OH247794   4.774   4.139   3.344 -0.4320  0.2355 -0.2528
 8768TIP3    H147795   4.782   4.226   3.305 -1.8987 -0.5682 -2.4222
 8768TIP3    H247796   4.834   4.084   3.294  0.1365 -0.1359  0.8013
 8769TIP3   OH247797   1.910   0.309   3.749 -0.1866 -0.0221  0.6216
 8769TIP3    H147798   1.914   0.405   3.752 -1.4236  0.0023  1.4491
 8769TIP3    H247799   1.928   0.287   3.657 -0.9894  1.0537  0.2024
 8770TIP3   OH247800   5.476   5.885  15.930  0.0812  0.4058 -0.0733
 8770TIP3    H147801   5.491   5.924  15.844 -0.5466  0.3069 -0.2285
 8770TIP3    H247802   5.426   5.951  15.978 -0.5076  0.0183 -0.1526
 8771TIP3   OH247803   2.088   2.048  15.450 -0.1022 -0.4278  0.1473
 8771TIP3    H147804   2.161   2.058  15.511  0.8906  2.3226 -1.4208
 8771TIP3    H247805   2.131   2.034  15.365 -1.2158  4.3687 -1.3614
 8772TIP3   OH247806   2.162   5.542  15.378  0.5982 -0.1659 -0.7912
 8772TIP3    H147807   2.142   5.476  15.311 -2.5886  1.4137 -1.4912
 8772TIP3    H247808   2.102   5.522  15.449  2.0351 -0.0959  0.4637
 8773TIP3   OH247809   1.930   1.747   2.559  0.5462  0.8800  0.0130
 8773TIP3    H147810   1.840   1.714   2.561  0.0155  2.0786 -2.7256
 8773TIP3    H247811   1.979   1.684   2.612 -1.9042  0.3295  1.7542
 8774TIP3   OH247812   3.611   5.321  12.851  0.0633 -0.2074  0.8321
 8774TIP3    H147813   3.682   5.299  12.911  1.0817  1.9432  0.4423
 8774TIP3    H247814   3.551   5.374  12.904  0.5889  1.0610  0.1810
 8775TIP3   OH247815   0.276   1.635  13.205 -0.2065 -0.2355 -0.1388
 8775TIP3    H147816   0.288   1.610  13.297  1.5613 -0.0165 -0.2770
 8775TIP3    H247817   0.199   1.692  13.205  0.6082  0.9131  1.4549
 8776TIP3   OH247818   0.252   2.558   2.115 -0.3886  0.0599 -0.7758
 8776TIP3    H147819   0.158   2.569   2.131 -0.3702  0.6440 -1.0509
 8776TIP3    H247820   0.291   2.555   2.202 -0.4312  1.9361 -0.6782
 8777TIP3   OH247821   0.270   0.783   3.086 -0.5374  0.1959  0.5894
 8777TIP3    H147822   0.284   0.719   3.156  1.7306 -0.1604 -0.1377
 8777TIP3    H247823   0.319   0.748   3.011 -1.8431  1.2222 -0.7885
 8778TIP3   OH247824   5.449   6.439   4.462 -0.5773  0.1647  0.2873
 8778TIP3    H147825   5.450   6.402   4.374  1.4914 -0.4570  0.5233
 8778TIP3    H247826   5.385   6.510   4.458 -2.0860 -1.2340 -1.1121
 8779TIP3   OH247827   5.569   1.189  14.657  0.0732  0.4686  0.2795
 8779TIP3    H147828   5.512   1.252  14.613  0.4570  1.3132  0.9622
 8779TIP3    H247829   5.638   1.171  14.593 -0.1909  0.5271 -0.0245
 8780TIP3   OH247830   0.973   3.311  14.023 -0.1445 -0.4059  0.2267
 8780TIP3    H147831   1.042   3.359  13.977  0.2580 -1.7119 -0.5649
 8780TIP3    H247832   0.983   3.336  14.115  0.9901 -0.1064  0.0258
 8781TIP3   OH247833   3.983   0.768   2.733  0.1634 -0.2102 -0.0982
 8781TIP3    H147834   3.950   0.826   2.664  0.2289  0.8787  0.7625
 8781TIP3    H247835   3.926   0.786   2.808  0.4001 -1.0191  0.2755
 8782TIP3   OH247836   3.155   3.740   5.409 -0.1922  0.2350  0.1275
 8782TIP3    H147837   3.122   3.711   5.324  3.6806  0.6505 -1.6210
 8782TIP3    H247838   3.137   3.834   5.412  0.7225  0.4523 -0.8025
 8783TIP3   OH247839   1.983   3.971   3.395  0.1545  0.1321 -0.0646
 8783TIP3    H147840   2.019   3.935   3.477  0.8227 -0.1322 -0.4682
 8783TIP3    H247841   1.956   4.060   3.418  2.0336  0.7083  0.0154
 8784TIP3   OH247842   6.014   6.115  12.660 -0.4259  0.2441 -0.4923
 8784TIP3    H147843   6.092   6.152  12.618  0.8306 -0.8641  0.8266
 8784TIP3    H247844   6.029   6.128  12.754 -1.7323 -0.1660 -0.2249
 8785TIP3   OH247845   5.697   4.597   4.961 -0.0281  0.0944  0.0639
 8785TIP3    H147846   5.680   4.582   5.054  3.6395  1.4230  1.0352
 8785TIP3    H247847   5.711   4.691   4.954  1.1896 -0.1803 -1.5431
 8786TIP3   OH247848   0.761   2.090   3.213 -0.0275 -0.8331  0.2438
 8786TIP3    H147849   0.771   2.007   3.260 -0.2748 -0.5558  0.7892
 8786TIP3    H247850   0.669   2.094   3.190  0.0256 -0.8032  0.0305
 8787TIP3   OH247851   3.587   5.386  11.812  0.9220 -0.4445 -0.4045
 8787TIP3    H147852   3.593   5.449  11.884  0.9822 -2.7700  1.6885
 8787TIP3    H247853   3.570   5.440  11.735  2.2738  2.2516  1.0807
 8788TIP3   OH247854   4.874   6.370   5.719  0.4102 -0.1851  0.7989
 8788TIP3    H147855   4.876   6.328   5.633  1.1913  4.0394 -1.3621
 8788TIP3    H247856   4.785   6.403   5.727 -0.1504 -1.9647  2.4243
 8789TIP3   OH247857   1.028   4.475   2.566 -0.0595 -0.2047 -0.4348
 8789TIP3    H147858   0.955   4.511   2.616 -0.1441  0.5022 -1.0700
 8789TIP3    H247859   1.106   4.511   2.608  0.0281 -2.3628  1.3768
 8790TIP3   OH247860   5.248   4.959  16.042 -0.4886  0.1115  0.1108
 8790TIP3    H147861   5.319   4.989  15.984  0.7683 -0.6670  1.2092
 8790TIP3    H247862   5.290   4.947  16.127 -1.7026 -1.4177  0.5213
 8791TIP3   OH247863   4.916   3.232  14.207  0.0098 -0.6634 -0.2310
 8791TIP3    H147864   4.932   3.189  14.291 -1.4365  0.3436  0.5805
 8791TIP3    H247865   4.821   3.243  14.202  0.2181  0.9992 -1.1234
 8792TIP3   OH247866   6.669   4.592   1.023  0.2534 -0.3356 -0.2105
 8792TIP3    H147867   6.654   4.506   0.984 -1.3081  0.2424 -0.9555
 8792TIP3    H247868   6.635   4.585   1.112 -0.1502 -0.4208 -0.3679
 8793TIP3   OH247869   4.996   4.760  11.872 -0.0276 -0.2422 -0.3445
 8793TIP3    H147870   4.912   4.786  11.834 -0.1648  0.5756  0.4802
 8793TIP3    H247871   5.057   4.761  11.798 -0.1622  1.9098 -0.4803
 8794TIP3   OH247872   2.866   2.992  16.384 -0.3881 -0.3299  0.0925
 8794TIP3    H147873   2.779   3.016  16.416 -0.1026  2.4621 -1.0149
 8794TIP3    H247874   2.923   2.996  16.461 -0.6258  1.2718  0.1955
 8795TIP3   OH247875   5.679   6.440   2.824  0.1488  0.8757  0.1160
 8795TIP3    H147876   5.634   6.495   2.888 -1.0990  1.9376 -1.6203
 8795TIP3    H247877   5.757   6.490   2.799  0.7898  0.3318  0.9877
 8796TIP3   OH247878   4.607   2.903  14.821  0.6248 -0.1756 -0.1867
 8796TIP3    H147879   4.613   2.981  14.765  0.9741 -1.0716 -1.4412
 8796TIP3    H247880   4.584   2.937  14.907  0.8075  1.3211 -0.7005
 8797TIP3   OH247881   4.772   1.661  14.796 -0.3992 -0.7541 -0.3075
 8797TIP3    H147882   4.837   1.721  14.761 -0.3438 -1.6635 -1.8029
 8797TIP3    H247883   4.787   1.579  14.749 -1.4593 -1.4915  0.6128
 8798TIP3   OH247884   4.802   0.022   4.393  0.3865 -0.0853  0.3149
 8798TIP3    H147885   4.730  -0.026   4.434 -0.5479  0.2354 -0.9231
 8798TIP3    H247886   4.811   0.101   4.447  0.4782 -0.6072  1.0679
 8799TIP3   OH247887   4.296   0.679  13.196 -0.3040 -0.0756  0.6141
 8799TIP3    H147888   4.378   0.631  13.190 -0.3472  0.0530 -1.3205
 8799TIP3    H247889   4.273   0.675  13.289  1.7555 -0.3120  1.1538
 8800TIP3   OH247890   0.322   5.799   5.604 -0.3330  0.6046  0.1141
 8800TIP3    H147891   0.265   5.819   5.530 -1.7692  0.9938  1.3059
 8800TIP3    H247892   0.284   5.720   5.644  1.5515 -0.7602 -0.6948
 8801TIP3   OH247893   4.759   2.777   3.355  0.2503 -0.1996 -0.3683
 8801TIP3    H147894   4.669   2.745   3.345 -0.3676  1.6559 -0.8983
 8801TIP3    H247895   4.799   2.762   3.269 -0.1690  0.8284 -0.7490
 8802TIP3   OH247896   0.636   3.954   5.534  0.4962  0.0237  0.0654
 8802TIP3    H147897   0.646   3.865   5.567 -2.5669 -0.1707  0.6047
 8802TIP3    H247898   0.677   4.010   5.600  1.3979 -0.8761  0.2763
 8803TIP3   OH247899   3.846   3.615  13.651 -0.1282 -0.0459 -0.2353
 8803TIP3    H147900   3.926   3.632  13.600 -0.8386  0.9622 -1.0422
 8803TIP3    H247901   3.835   3.693  13.704  0.2866 -0.8574  1.0713
 8804TIP3   OH247902   0.226   1.510   3.249  0.0968  0.4107 -0.0853
 8804TIP3    H147903   0.221   1.453   3.172 -1.5917  0.3837  0.0124
 8804TIP3    H247904   0.307   1.559   3.238  1.4593 -1.8532 -0.2687
 8805TIP3   OH247905   3.813   0.832  15.772 -0.4750  0.0544 -0.4445
 8805TIP3    H147906   3.745   0.892  15.742 -1.4864 -0.6431  0.4320
 8805TIP3    H247907   3.893   0.884  15.770 -1.2246  1.2319 -0.3527
 8806TIP3   OH247908   3.216   1.453   0.777  0.0563 -0.3155  0.3652
 8806TIP3    H147909   3.155   1.398   0.825 -0.0391 -0.6118 -0.0896
 8806TIP3    H247910   3.283   1.477   0.841  0.3236 -1.3105  0.4623
 8807TIP3   OH247911   2.471   1.042  16.173  0.0485 -0.4544 -0.1524
 8807TIP3    H147912   2.519   1.092  16.107  0.2196 -0.7734 -0.2681
 8807TIP3    H247913   2.385   1.026  16.133 -0.2455  0.3330  0.1521
 8808TIP3   OH247914   1.040   5.682   0.767  0.0198  0.1952 -0.3262
 8808TIP3    H147915   0.997   5.701   0.684  1.1080 -1.3301 -1.2548
 8808TIP3    H247916   1.025   5.588   0.781  1.1689  0.1137  0.4378
 8809TIP3   OH247917   4.992   5.606   2.869 -0.7440 -0.2660  0.2022
 8809TIP3    H147918   4.953   5.690   2.843  1.1222  0.6246  0.1575
 8809TIP3    H247919   4.981   5.550   2.793 -1.9699 -0.0584  0.2131
 8810TIP3   OH247920   1.770   4.612   0.317 -0.0556  0.2748  0.1180
 8810TIP3    H147921   1.847   4.666   0.336 -0.4658  0.7795  0.3342
 8810TIP3    H247922   1.768   4.547   0.387  1.7842 -1.4977 -1.4085
 8811TIP3   OH247923   0.026   5.733  13.167 -0.2151 -0.4433 -0.3588
 8811TIP3    H147924  -0.002   5.677  13.240  0.2913 -0.9416 -0.5420
 8811TIP3    H247925   0.118   5.752  13.185 -0.5986  1.0012  0.1142
 8812TIP3   OH247926   5.315   3.973   3.350 -0.1956 -0.7435 -0.0005
 8812TIP3    H147927   5.323   3.995   3.257  0.1907 -0.0672  0.1814
 8812TIP3    H247928   5.266   4.046   3.387 -0.8903 -1.3222  0.2137
 8813TIP3   OH247929   4.327   3.246  13.636 -0.1724  0.5696 -0.4317
 8813TIP3    H147930   4.379   3.281  13.564  0.5058  2.1448  0.8013
 8813TIP3    H247931   4.390   3.201  13.693 -0.5719  0.0875 -0.3578
 8814TIP3   OH247932   5.068   6.770  11.920 -0.4600 -0.1718 -0.0333
 8814TIP3    H147933   5.081   6.753  12.013  0.6156  1.4036  0.1300
 8814TIP3    H247934   4.973   6.760  11.907 -0.5461 -0.9074  1.1194
 8815TIP3   OH247935   2.096   0.887   4.974  0.2088 -0.0643 -0.1839
 8815TIP3    H147936   2.147   0.814   4.941  0.4865  0.3545 -0.6708
 8815TIP3    H247937   2.158   0.939   5.025  0.1328  0.1133 -0.2714
 8816TIP3   OH247938   0.030   2.855  17.063  0.4342  0.1519 -0.2810
 8816TIP3    H147939   0.085   2.885  17.136 -0.2518 -1.6689  1.0412
 8816TIP3    H247940   0.066   2.769  17.040 -0.5886 -0.1597 -0.7519
 8817TIP3   OH247941   3.203   1.853  12.235  0.5185  0.4757  0.8222
 8817TIP3    H147942   3.290   1.860  12.195 -1.1333  2.4391 -2.6734
 8817TIP3    H247943   3.205   1.917  12.306  2.4397 -0.7114  1.9036
 8818TIP3   OH247944   1.446   4.881  14.790 -0.6056 -0.6705  0.1112
 8818TIP3    H147945   1.392   4.844  14.860 -3.0878 -0.5591 -1.6882
 8818TIP3    H247946   1.534   4.848  14.808 -0.8743  0.4812  4.0775
 8819TIP3   OH247947   4.517   0.077   1.672  0.6914  0.5454  0.3981
 8819TIP3    H147948   4.512   0.147   1.738 -0.3441  0.7919  0.0626
 8819TIP3    H247949   4.534  -0.002   1.723 -0.3483  0.6965  0.9958
 8820TIP3   OH247950   4.687   0.588   1.289  0.1319  0.0031  0.3431
 8820TIP3    H147951   4.687   0.610   1.196 -0.6032  2.1607  0.8141
 8820TIP3    H247952   4.775   0.555   1.306  0.1917 -0.6695 -1.1622
 8821TIP3   OH247953   0.146   3.470   0.305 -0.1982  0.9601 -0.2319
 8821TIP3    H147954   0.136   3.493   0.397 -0.7918 -1.7249  0.4153
 8821TIP3    H247955   0.229   3.510   0.279 -0.3311  2.2554  1.2960
 8822TIP3   OH247956   4.552   4.569  15.579 -0.6525  0.4311 -0.8628
 8822TIP3    H147957   4.608   4.491  15.571 -0.8704  0.2022 -0.2273
 8822TIP3    H247958   4.536   4.597  15.489 -1.7576 -1.1125 -1.1776
 8823TIP3   OH247959   2.884   2.706   4.109 -0.1575 -0.1244  0.1432
 8823TIP3    H147960   2.941   2.765   4.060  1.0196  0.1997  1.8445
 8823TIP3    H247961   2.801   2.707   4.061  0.5635  1.1387 -1.1190
 8824TIP3   OH247962   3.088   6.127  13.380 -0.0560 -0.1381 -0.0561
 8824TIP3    H147963   3.057   6.089  13.462  3.4489 -2.6432  0.2561
 8824TIP3    H247964   3.184   6.123  13.387  0.3416 -2.0318 -4.9240
 8825TIP3   OH247965   0.502   1.956   5.919 -0.2084  0.5051 -0.2133
 8825TIP3    H147966   0.410   1.972   5.898 -0.4044  0.1027  0.3221
 8825TIP3    H247967   0.505   1.959   6.015 -0.1215 -1.9522 -0.1159
 8826TIP3   OH247968   5.726   3.975   0.959  0.3615  0.1820  0.6877
 8826TIP3    H147969   5.796   4.025   1.000  0.1675 -0.5141  1.8938
 8826TIP3    H247970   5.665   4.040   0.926 -0.0650  0.7617  2.5452
 8827TIP3   OH247971   1.580   1.501   3.482  0.1927  0.2055  0.9237
 8827TIP3    H147972   1.575   1.494   3.577  1.1164  0.8445  1.0223
 8827TIP3    H247973   1.651   1.562   3.466 -0.6945  0.9741 -0.1648
 8828TIP3   OH247974   4.600   1.820   6.683 -0.7210 -0.2693  0.2638
 8828TIP3    H147975   4.662   1.792   6.616 -1.2538 -0.0763 -0.3122
 8828TIP3    H247976   4.646   1.806   6.766 -0.6602 -2.0384 -0.0508
 8829TIP3   OH247977   6.430   0.974  11.984 -0.0178  0.0984 -0.1657
 8829TIP3    H147978   6.481   0.894  11.974 -0.8894 -0.3868 -0.8688
 8829TIP3    H247979   6.340   0.948  11.963 -0.8004  0.6246  2.2553
 8830TIP3   OH247980   6.389   0.211   1.212 -0.1882 -0.3776 -0.4591
 8830TIP3    H147981   6.381   0.303   1.240 -2.2769 -0.3733 -0.9836
 8830TIP3    H247982   6.389   0.161   1.294  0.3575  0.0407 -0.1969
 8831TIP3   OH247983   2.669   3.377  10.810  0.2770  0.2553  0.3292
 8831TIP3    H147984   2.637   3.398  10.898  0.2837  0.7487  0.2147
 8831TIP3    H247985   2.656   3.282  10.802  2.1772 -0.1603  1.6466
 8832TIP3   OH247986   6.189   2.939   0.977 -0.1919 -0.1899 -0.3451
 8832TIP3    H147987   6.135   3.011   1.009 -1.1013 -0.2030 -1.8256
 8832TIP3    H247988   6.131   2.889   0.919  1.7640  0.5152 -2.9931
 8833TIP3   OH247989   3.893   2.919   2.679  0.0254 -0.3877 -0.2018
 8833TIP3    H147990   3.812   2.896   2.725  0.4025  1.1880  1.3316
 8833TIP3    H247991   3.930   2.835   2.652 -1.9842 -1.1376 -0.7190
 8834TIP3   OH247992   2.268   4.034   3.647 -0.1184 -0.2328 -0.4453
 8834TIP3    H147993   2.344   4.021   3.704 -0.5417 -1.1362 -0.0805
 8834TIP3    H247994   2.275   3.966   3.581  0.5359  1.0064 -1.6724
 8835TIP3   OH247995   4.371   1.483  14.691  0.1874 -0.3916 -0.6502
 8835TIP3    H147996   4.430   1.550  14.726 -1.9161  0.3803  1.5290
 8835TIP3    H247997   4.374   1.413  14.755  0.8683 -1.5662 -1.9471
 8836TIP3   OH247998   3.082   2.756   2.172 -0.2125  0.3282 -0.5159
 8836TIP3    H147999   3.049   2.760   2.261 -0.0367  3.4210 -0.5280
 8836TIP3    H248000   3.004   2.764   2.117 -0.2145 -0.4816 -0.6336
 8837TIP3   OH248001   2.646   6.579  16.427 -0.4115 -0.2898 -0.0107
 8837TIP3    H148002   2.566   6.554  16.380 -0.6134  0.1294  0.1113
 8837TIP3    H248003   2.628   6.556  16.518 -0.3109 -0.3909 -0.0173
 8838TIP3   OH248004   4.166   1.889   1.499 -0.2414  0.7407  0.1011
 8838TIP3    H148005   4.138   1.907   1.409 -0.4780  1.8038  0.3758
 8838TIP3    H248006   4.085   1.887   1.550 -0.2111 -1.0939  0.0987
 8839TIP3   OH248007   0.231   3.741  10.827  0.1046 -0.4970  0.0154
 8839TIP3    H148008   0.181   3.682  10.771 -0.9344  1.1016 -0.7801
 8839TIP3    H248009   0.312   3.758  10.779 -0.1707 -0.2365 -0.3576
 8840TIP3   OH248010   6.066   0.960   6.103  0.2448 -0.7258 -0.3103
 8840TIP3    H148011   6.126   1.004   6.043 -0.4269  1.1823  0.4096
 8840TIP3    H248012   6.053   0.873   6.063 -0.8874  0.7926 -3.4241
 8841TIP3   OH248013   4.924   3.788  11.575 -0.0035 -0.4525  0.6200
 8841TIP3    H148014   4.867   3.771  11.649  0.0571 -1.9030  0.3486
 8841TIP3    H248015   4.875   3.848  11.519 -0.1663  0.4124  1.6789
 8842TIP3   OH248016   4.457   4.695   3.466  0.4464  0.4071 -0.1727
 8842TIP3    H148017   4.372   4.696   3.511  0.5905 -0.0403  0.1116
 8842TIP3    H248018   4.472   4.787   3.441  0.4570  0.6886  0.8587
 8843TIP3   OH248019   1.046   6.375   0.133 -0.5133  0.2488  0.2059
 8843TIP3    H148020   0.978   6.434   0.100 -2.1293 -1.4920  0.3046
 8843TIP3    H248021   1.031   6.293   0.086  0.9033 -0.4580  0.9548
 8844TIP3   OH248022   0.027   2.666   2.734 -0.6385 -0.0469  0.2616
 8844TIP3    H148023   0.058   2.613   2.660 -1.9061  0.3885 -0.5967
 8844TIP3    H248024   0.097   2.729   2.749 -1.2133  1.1300 -1.8543
 8845TIP3   OH248025   5.687   1.653   2.238  0.1623  0.3618  0.3630
 8845TIP3    H148026   5.668   1.746   2.229  0.0802  0.4368  1.2834
 8845TIP3    H248027   5.690   1.638   2.332  0.0306 -0.5986  0.2189
 8846TIP3   OH248028   1.155   2.610  10.481  0.2634  0.2858 -0.2301
 8846TIP3    H148029   1.087   2.645  10.424  0.2148  0.1141 -0.2804
 8846TIP3    H248030   1.166   2.519  10.452 -1.7316 -0.6621  1.8572
 8847TIP3   OH248031   1.716   4.715  15.209 -0.0611 -0.2702 -0.1635
 8847TIP3    H148032   1.775   4.760  15.148  1.2137 -0.7124  0.7304
 8847TIP3    H248033   1.641   4.773  15.217  1.1850  1.3069  0.3150
 8848TIP3   OH248034   0.172   5.175  16.440  0.2757 -0.4906  0.2672
 8848TIP3    H148035   0.136   5.253  16.398 -0.7460 -0.7537  0.6420
 8848TIP3    H248036   0.260   5.201  16.469  0.4086  0.1369 -0.7106
 8849TIP3   OH248037   2.584   3.023  15.976 -0.0600  0.6102  0.4644
 8849TIP3    H148038   2.667   3.056  16.008 -0.8932  1.8774  1.3740
 8849TIP3    H248039   2.566   2.946  16.030  1.4023 -0.7826 -0.9845
 8850TIP3   OH248040   1.239   3.427  16.780  0.4125 -0.5723  0.0239
 8850TIP3    H148041   1.261   3.472  16.699  0.6514 -2.0196 -0.7208
 8850TIP3    H248042   1.323   3.398  16.816  0.3575  0.5254  1.0722
 8851TIP3   OH248043   2.294   5.919  11.764 -0.3069  0.2038  0.1021
 8851TIP3    H148044   2.260   5.846  11.712 -0.6627  0.2124  0.3236
 8851TIP3    H248045   2.351   5.878  11.829  0.1619  0.1944 -0.3141
 8852TIP3   OH248046   4.081   0.831  16.437 -0.6824  0.3065 -0.3141
 8852TIP3    H148047   4.010   0.895  16.428  0.3670  1.4038 -0.8738
 8852TIP3    H248048   4.111   0.815  16.348 -0.1593 -0.0814 -0.0716
 8853TIP3   OH248049   3.381   4.440   1.565 -0.1876 -0.7085  0.4464
 8853TIP3    H148050   3.295   4.468   1.533 -0.0539 -0.1817  0.5549
 8853TIP3    H248051   3.431   4.521   1.576  0.4361 -1.0428  0.0686
 8854TIP3   OH248052   6.224   6.118  16.162 -0.1647 -0.1398 -0.5480
 8854TIP3    H148053   6.178   6.035  16.175  0.2719 -0.4219 -0.7643
 8854TIP3    H248054   6.245   6.148  16.250  0.0036 -0.4495 -0.4815
 8855TIP3   OH248055   4.566   0.803  13.234 -0.4542 -0.7813 -0.1631
 8855TIP3    H148056   4.619   0.794  13.155 -1.3798 -1.0465 -0.7669
 8855TIP3    H248057   4.564   0.715  13.272 -1.6471 -1.0979 -0.9271
 8856TIP3   OH248058   2.503   4.412   3.573 -0.2239 -0.2225  0.4134
 8856TIP3    H148059   2.531   4.329   3.534 -0.7726  0.0300 -0.5263
 8856TIP3    H248060   2.413   4.424   3.543 -0.3616  0.4042  1.0635
 8857TIP3   OH248061   1.370   4.595  12.857  0.1054 -0.2123  0.2283
 8857TIP3    H148062   1.427   4.671  12.869 -0.7730  0.7831 -1.7071
 8857TIP3    H248063   1.284   4.632  12.839 -0.0154 -1.6286 -2.2936
 8858TIP3   OH248064   4.375   0.081   4.963 -0.4352  0.0083 -0.2590
 8858TIP3    H148065   4.319   0.063   5.039 -2.5434  0.4043 -1.6796
 8858TIP3    H248066   4.460   0.105   5.001 -1.2243 -0.5811  1.9406
 8859TIP3   OH248067   6.260   4.634  11.306 -0.0697 -0.5081  0.0796
 8859TIP3    H148068   6.343   4.618  11.352  0.9702  1.5714 -1.0126
 8859TIP3    H248069   6.204   4.561  11.333  1.0854 -0.3418  3.2344
 8860TIP3   OH248070   6.458   2.155   4.494 -0.1106  0.9710  0.2304
 8860TIP3    H148071   6.408   2.129   4.571  0.2982  1.9949  0.8484
 8860TIP3    H248072   6.518   2.082   4.478 -2.1855 -0.5394 -0.8699
 8861TIP3   OH248073   2.179   5.988  12.526 -0.1522 -0.2145 -0.0687
 8861TIP3    H148074   2.084   5.986  12.522 -0.2582  2.3806  0.0696
 8861TIP3    H248075   2.203   6.070  12.481  1.8563  0.3529  1.9382
 8862TIP3   OH248076   2.222   6.203   1.395  0.5700 -0.0442 -0.1444
 8862TIP3    H148077   2.194   6.294   1.381  1.7159  0.4228  0.5357
 8862TIP3    H248078   2.267   6.179   1.314  1.1932  0.3510  0.0847
 8863TIP3   OH248079   2.031   6.611  12.212  0.5989 -0.0137 -0.2493
 8863TIP3    H148080   2.037   6.515  12.203 -0.9351 -0.1844  0.4044
 8863TIP3    H248081   2.027   6.625  12.307  0.3970  0.6713 -0.3588
 8864TIP3   OH248082   4.154   0.292   3.247  0.3911  0.1393  0.0446
 8864TIP3    H148083   4.061   0.306   3.233  0.3482 -0.1849  0.0052
 8864TIP3    H248084   4.159   0.228   3.318  0.5374 -1.5594 -1.4513
 8865TIP3   OH248085   4.116   2.153  13.349 -0.0043 -0.1745 -0.1628
 8865TIP3    H148086   4.075   2.228  13.393  0.9948 -1.3052  2.8557
 8865TIP3    H248087   4.077   2.077  13.392  1.8268 -1.3217 -0.4956
 8866TIP3   OH248088   2.534   0.795   5.163  0.4031 -0.1313 -0.9546
 8866TIP3    H148089   2.473   0.721   5.160 -0.5281  0.6077 -0.4962
 8866TIP3    H248090   2.502   0.849   5.235  0.4476  1.2731 -1.9797
 8867TIP3   OH248091   4.229   0.175   1.932  0.3169 -0.0228  0.2586
 8867TIP3    H148092   4.168   0.221   1.875 -2.2107 -0.7683  2.3020
 8867TIP3    H248093   4.198   0.192   2.021  1.5611 -2.4895  1.2169
 8868TIP3   OH248094   3.175   6.066  11.969 -0.3261  0.3770  0.5155
 8868TIP3    H148095   3.136   6.007  12.032 -1.1986  0.6662  0.2536
 8868TIP3    H248096   3.259   6.026  11.947 -1.6055 -1.6453 -0.8959
 8869TIP3   OH248097   1.327   5.277  14.316  0.6582 -0.2176  0.2641
 8869TIP3    H148098   1.378   5.250  14.392  2.0601 -3.0551 -1.6023
 8869TIP3    H248099   1.364   5.362  14.291 -0.6368  1.3507  3.4067
 8870TIP3   OH248100   3.765   0.958   1.897  0.3758  0.2217  0.5468
 8870TIP3    H148101   3.786   1.050   1.883  0.2412  0.1839  0.0706
 8870TIP3    H248102   3.838   0.924   1.948  0.3177  0.6460  0.9115
 8871TIP3   OH248103   3.004   5.102   5.053 -0.1192  0.2536  0.3755
 8871TIP3    H148104   2.935   5.043   5.023  2.2422 -2.2303 -0.4938
 8871TIP3    H248105   2.983   5.119   5.144 -1.3886 -1.2080  0.3827
 8872TIP3   OH248106   3.772   4.942   2.979  0.1912  0.2890  0.7080
 8872TIP3    H148107   3.852   4.987   3.005  0.9572 -0.9703  0.5362
 8872TIP3    H248108   3.739   4.994   2.906  1.1194  0.5327  0.4532
 8873TIP3   OH248109   4.800   6.170  16.210 -0.2903 -0.2613  0.0292
 8873TIP3    H148110   4.862   6.243  16.211 -0.9722  0.3442  2.0496
 8873TIP3    H248111   4.739   6.190  16.281  0.0351 -3.2598  1.2405
 8874TIP3   OH248112   4.429   3.016  15.224  0.0021  0.1854  0.0042
 8874TIP3    H148113   4.408   3.108  15.208 -0.5768 -0.0061 -0.3545
 8874TIP3    H248114   4.510   3.001  15.175 -0.1598  0.3820 -0.3288
 8875TIP3   OH248115   3.753   4.362  17.228  0.4503  0.2479  0.4524
 8875TIP3    H148116   3.719   4.451  17.241  0.0806 -0.1041  2.0455
 8875TIP3    H248117   3.685   4.317  17.179 -0.0665  0.4098  1.0102
 8876TIP3   OH248118   4.649   1.270   4.592  0.2624  0.6899  0.3680
 8876TIP3    H148119   4.601   1.340   4.636 -1.0655 -0.1752  0.3280
 8876TIP3    H248120   4.647   1.197   4.655 -2.2584 -0.7995 -1.3493
 8877TIP3   OH248121   3.249   2.384   1.530  0.5261 -1.0647  0.6677
 8877TIP3    H148122   3.191   2.319   1.569 -0.6435  0.9401  2.3513
 8877TIP3    H248123   3.315   2.402   1.597  1.3153 -1.0786 -0.0806
 8878TIP3   OH248124   5.732   1.126  12.831  0.2775  0.5026  0.1451
 8878TIP3    H148125   5.640   1.123  12.859 -0.0845  0.4901 -1.0431
 8878TIP3    H248126   5.744   1.047  12.779  0.9641  0.5067  0.2916
 8879TIP3   OH248127   1.022   3.589   4.869  0.1959 -0.4294  0.3687
 8879TIP3    H148128   1.071   3.660   4.910 -1.6752  0.6234  0.8471
 8879TIP3    H248129   1.089   3.526   4.843  1.7912  0.9460  1.0167
 8880TIP3   OH248130   4.038   2.987  12.371  0.4215  0.4090 -0.1370
 8880TIP3    H148131   4.068   2.986  12.462  1.0431  0.6597 -0.3339
 8880TIP3    H248132   3.956   2.938  12.372  1.1655 -0.8531  0.3095
 8881TIP3   OH248133   2.972   2.193  15.468  0.0286  0.5881 -0.3539
 8881TIP3    H148134   2.881   2.168  15.484  0.6639 -0.6847  1.4119
 8881TIP3    H248135   3.012   2.115  15.429  0.5142  0.9103 -0.5084
 8882TIP3   OH248136   6.329   2.697   3.104 -0.0936  0.4047 -0.5710
 8882TIP3    H148137   6.424   2.686   3.102 -0.2392 -1.0090 -0.1765
 8882TIP3    H248138   6.307   2.694   3.197 -0.6752 -0.7377 -0.7400
 8883TIP3   OH248139   6.050   0.734  15.342  0.0347  0.6156 -0.1617
 8883TIP3    H148140   6.052   0.769  15.431  1.2468  2.6732 -0.9696
 8883TIP3    H248141   6.007   0.803  15.291 -1.7750 -1.0610 -0.9872
 8884TIP3   OH248142   3.089   6.541   1.729 -0.3507  0.0416 -0.0774
 8884TIP3    H148143   2.998   6.521   1.752 -0.0395  0.3462  1.5285
 8884TIP3    H248144   3.092   6.637   1.726  0.0152  0.0436  0.3244
 8885TIP3   OH248145   2.845   4.930  15.802 -0.5659  0.1201  0.1158
 8885TIP3    H148146   2.776   4.914  15.867  0.2384  1.0211  1.2066
 8885TIP3    H248147   2.799   4.938  15.719 -1.7280  0.1884  0.7617
 8886TIP3   OH248148   5.107   5.204  13.075 -0.4766 -0.4816 -0.1782
 8886TIP3    H148149   5.067   5.289  13.057 -0.0379 -0.0234  1.0162
 8886TIP3    H248150   5.131   5.171  12.988  2.0505  1.9372 -0.4420
 8887TIP3   OH248151   5.883   0.040  16.505  0.1086 -0.1115  0.0787
 8887TIP3    H148152   5.933   0.119  16.526  1.1429 -1.1662  1.6971
 8887TIP3    H248153   5.949  -0.029  16.497 -0.9481 -1.1941  0.5326
 8888TIP3   OH248154   3.764   4.493  11.125  0.1531 -0.2438  0.1016
 8888TIP3    H148155   3.691   4.537  11.082 -0.3523 -0.7165  0.4677
 8888TIP3    H248156   3.807   4.444  11.055  0.5241  0.5645 -0.2440
 8889TIP3   OH248157   1.103   0.068  16.506 -0.1074 -0.1670 -0.6239
 8889TIP3    H148158   1.037   0.134  16.527  0.4238  0.1742  0.0198
 8889TIP3    H248159   1.156   0.108  16.437  1.3469  0.8514  1.0378
 8890TIP3   OH248160   3.090   2.156  14.833 -0.4212 -0.8180  0.6934
 8890TIP3    H148161   3.062   2.067  14.852 -1.4607 -0.4487  0.8982
 8890TIP3    H248162   3.037   2.183  14.758  0.8066 -0.8264 -0.2032
 8891TIP3   OH248163   1.195   2.286   1.974 -0.1040 -0.6333 -0.8611
 8891TIP3    H148164   1.236   2.347   2.035 -0.2353  1.5821 -2.9358
 8891TIP3    H248165   1.267   2.258   1.916 -0.3378 -1.3329 -0.8197
 8892TIP3   OH248166   3.894   2.994   6.403  0.6898 -0.1386 -0.2825
 8892TIP3    H148167   3.970   2.944   6.432 -0.4812 -1.0264  1.3666
 8892TIP3    H248168   3.917   3.085   6.420  1.7295 -0.3268 -0.6528
 8893TIP3   OH248169   6.748   4.788   4.280 -0.8440 -0.3337  0.7143
 8893TIP3    H148170   6.671   4.818   4.231 -0.3893  0.3783  0.4346
 8893TIP3    H248171   6.747   4.693   4.270  0.0906 -0.1042 -1.9670
 8894TIP3   OH248172   3.581   4.349   4.216 -0.2684 -0.5785 -0.3991
 8894TIP3    H148173   3.655   4.289   4.214  2.4725  2.6519 -0.8428
 8894TIP3    H248174   3.532   4.325   4.294  2.6355 -1.2275  1.2977
 8895TIP3   OH248175   6.067   0.547   1.405 -0.1469  0.1168  0.4201
 8895TIP3    H148176   6.104   0.634   1.417  1.3667 -0.6595  1.4882
 8895TIP3    H248177   6.092   0.500   1.484 -0.5203 -1.4450 -0.3826
 8896TIP3   OH248178   0.552   5.774  14.614 -0.3634 -0.1280  0.6665
 8896TIP3    H148179   0.571   5.774  14.708 -3.1526  2.4145  1.3157
 8896TIP3    H248180   0.496   5.697  14.601 -0.0576 -0.4283  1.1041
 8897TIP3   OH248181   6.039   4.110   2.676  0.2397 -0.6121 -0.8220
 8897TIP3    H148182   6.129   4.101   2.707  0.1704 -1.1248 -0.7750
 8897TIP3    H248183   6.029   4.041   2.610 -0.2711 -0.8643 -0.4794
 8898TIP3   OH248184   4.889   0.057   2.535 -0.6893  0.2604 -0.5157
 8898TIP3    H148185   4.836   0.085   2.460  1.4965  0.3677 -2.0665
 8898TIP3    H248186   4.959   0.004   2.496  0.0462 -0.3051  1.5380
 8899TIP3   OH248187   3.343   0.617   3.217  0.0355  0.5610  0.1587
 8899TIP3    H148188   3.422   0.670   3.223 -0.1512  0.7266  1.2236
 8899TIP3    H248189   3.276   0.667   3.264 -0.9391  0.8398 -1.4804
 8900TIP3   OH248190   0.998   6.464  17.002  0.8272  0.6610 -0.1515
 8900TIP3    H148191   1.071   6.499  17.053  0.8186 -0.0607  0.3603
 8900TIP3    H248192   0.964   6.540  16.954 -0.1878  1.7191  2.1423
 8901TIP3   OH248193   0.144   6.691   5.113  0.2052 -0.4814  1.1588
 8901TIP3    H148194   0.220   6.720   5.063  0.0838  0.3222  1.4292
 8901TIP3    H248195   0.079   6.670   5.046 -0.2590  1.4409  0.9639
 8902TIP3   OH248196   0.740   4.023  11.448 -0.1109  0.1429  0.2700
 8902TIP3    H148197   0.681   4.036  11.373  0.0383 -1.8974 -0.2133
 8902TIP3    H248198   0.821   3.990  11.410  0.4910  0.5257  1.1998
 8903TIP3   OH248199   1.025   6.151  17.273 -0.2713  0.4365  0.2229
 8903TIP3    H148200   1.031   6.073  17.328 -0.7897 -0.5120 -1.0333
 8903TIP3    H248201   1.006   6.117  17.185 -0.4136  1.9729 -0.3572
 8904TIP3   OH248202   0.062   2.513   3.800 -0.3718  0.2180 -0.5962
 8904TIP3    H148203  -0.017   2.531   3.852 -0.7108  1.8661 -1.6308
 8904TIP3    H248204   0.125   2.579   3.830 -0.1186  0.3118 -1.3321
 8905TIP3   OH248205   3.820   1.056   0.756 -0.1857  0.7681 -0.2333
 8905TIP3    H148206   3.777   1.141   0.746  0.9246  1.8666  3.6340
 8905TIP3    H248207   3.914   1.075   0.755  0.0726 -0.2699  1.2907
 8906TIP3   OH248208   2.993   4.902   2.927  0.3196  0.3062 -0.7295
 8906TIP3    H148209   2.967   4.994   2.922  1.0323  0.5674  0.2073
 8906TIP3    H248210   3.045   4.887   2.848  0.3640  0.7655 -0.7872
 8907TIP3   OH248211   0.538   5.277   0.916 -0.3507 -0.1754  0.4047
 8907TIP3    H148212   0.593   5.282   0.838 -0.3078  0.4779  0.4757
 8907TIP3    H248213   0.464   5.223   0.890 -0.5483  0.3865 -0.2141
 8908TIP3   OH248214   1.285   0.781   0.927  0.1035 -0.2264 -0.8134
 8908TIP3    H148215   1.253   0.691   0.927  2.1157 -0.9498  0.7037
 8908TIP3    H248216   1.272   0.812   1.017 -0.2978  0.9106 -1.2452
 8909TIP3   OH248217   1.283   5.441   5.370 -0.1948  0.1001  0.4613
 8909TIP3    H148218   1.361   5.387   5.353  0.6309  1.0788  1.0986
 8909TIP3    H248219   1.286   5.457   5.464 -1.7495 -0.7244  0.6574
 8910TIP3   OH248220   5.412   5.913  15.429  0.7809  0.0980  0.6268
 8910TIP3    H148221   5.451   5.991  15.390  2.1209 -1.1420 -0.5488
 8910TIP3    H248222   5.363   5.947  15.504 -0.1266  2.2601 -0.8949
 8911TIP3   OH248223   1.229   4.338  16.477  0.1724  0.1362 -0.5110
 8911TIP3    H148224   1.270   4.389  16.547  0.4037 -0.0919 -0.4800
 8911TIP3    H248225   1.135   4.348  16.491  0.2078 -0.8765  0.5544
 8912TIP3   OH248226   0.471   1.781   1.703  0.0802 -0.0553  0.6652
 8912TIP3    H148227   0.443   1.779   1.795  0.0434 -0.0527  0.6541
 8912TIP3    H248228   0.389   1.779   1.653  0.0032  2.2334  0.6557
 8913TIP3   OH248229   4.013   4.442   0.830 -0.5049 -0.1534 -0.3584
 8913TIP3    H148230   3.954   4.405   0.895  0.0500 -0.4307 -0.0091
 8913TIP3    H248231   3.955   4.488   0.768 -1.1398 -1.0570 -0.4370
 8914TIP3   OH248232   1.652   4.663   4.806 -0.1340 -0.0953  0.3299
 8914TIP3    H148233   1.694   4.716   4.738 -0.0408  0.4714  0.8282
 8914TIP3    H248234   1.569   4.708   4.823 -1.0389 -1.3235 -0.8003
 8915TIP3   OH248235   1.697   6.115  14.052 -0.3246 -0.1649  0.3458
 8915TIP3    H148236   1.684   6.039  14.109 -1.1619  0.4120  0.9395
 8915TIP3    H248237   1.671   6.190  14.106  1.4188  0.6452  0.0956
 8916TIP3   OH248238   5.869   6.177   3.050  0.5307  0.4537 -0.5437
 8916TIP3    H148239   5.924   6.171   3.129 -0.0513  1.6611 -0.0360
 8916TIP3    H248240   5.911   6.117   2.988  1.8232  0.5630  0.1923
 8917TIP3   OH248241   3.445   0.988   0.716 -0.1077  0.3453  0.8993
 8917TIP3    H148242   3.485   0.936   0.646  0.9531  0.8177  1.1453
 8917TIP3    H248243   3.357   1.008   0.684 -0.0910 -0.5674  0.2770
 8918TIP3   OH248244   0.600   0.667  13.234  0.4680 -0.5056  0.0964
 8918TIP3    H148245   0.567   0.723  13.304  1.6756  0.5473 -0.1747
 8918TIP3    H248246   0.655   0.724  13.181 -0.1380 -1.3886 -1.5030
 8919TIP3   OH248247   5.467   3.702   3.592 -0.3675 -0.6645  0.4210
 8919TIP3    H148248   5.432   3.769   3.650  0.1288 -1.5011  1.7010
 8919TIP3    H248249   5.425   3.621   3.621  0.3586 -1.1850  0.0239
 8920TIP3   OH248250   2.263   3.403   6.410  0.6371 -0.3627  0.1412
 8920TIP3    H148251   2.354   3.379   6.396  0.7115 -1.2477  1.9926
 8920TIP3    H248252   2.215   3.320   6.410 -0.1858  0.0958 -0.8759
 8921TIP3   OH248253   2.231   3.978   5.454  0.1383  0.2973  0.4122
 8921TIP3    H148254   2.278   4.061   5.456  1.1749 -0.2218 -1.3187
 8921TIP3    H248255   2.162   3.988   5.520  1.7726  1.6039  1.9715
 8922TIP3   OH248256   6.506   3.454  14.817 -0.5435  0.1427  0.5307
 8922TIP3    H148257   6.520   3.361  14.836 -2.7236 -0.4473 -0.7022
 8922TIP3    H248258   6.463   3.489  14.896  0.2988  0.1463  1.0040
 8923TIP3   OH248259   1.559   6.065   0.686  0.2535 -0.3049  0.1088
 8923TIP3    H148260   1.648   6.092   0.667 -0.2901  0.6355 -1.1904
 8923TIP3    H248261   1.504   6.127   0.638 -1.0790 -1.6193 -0.1148
 8924TIP3   OH248262   2.160   3.167   6.373 -0.1088  0.2163  0.0793
 8924TIP3    H148263   2.232   3.113   6.340 -1.7017 -0.1958 -2.9018
 8924TIP3    H248264   2.110   3.108   6.430  0.3508 -0.2919 -0.0438
 8925TIP3   OH248265   4.688   3.013   3.472 -0.0999  0.3218 -0.3191
 8925TIP3    H148266   4.725   2.926   3.453 -0.1605  0.5223 -1.3922
 8925TIP3    H248267   4.600   2.994   3.506  0.3280 -0.0806  0.5871
 8926TIP3   OH248268   6.581   2.707   5.574  0.3536  0.1623  0.5222
 8926TIP3    H148269   6.581   2.739   5.483 -1.5965  1.0786  0.8249
 8926TIP3    H248270   6.611   2.782   5.625  1.1476 -0.2584  0.6881
 8927TIP3   OH248271   4.687   4.353   3.913  0.9020  0.8595 -0.1994
 8927TIP3    H148272   4.628   4.381   3.983  1.0557  0.4381  0.1032
 8927TIP3    H248273   4.752   4.422   3.907  0.4956  1.2258 -0.3921
 8928TIP3   OH248274   2.843   0.842   6.052 -0.1088 -0.1223  0.5194
 8928TIP3    H148275   2.775   0.872   6.112  0.7325 -0.9073  1.9212
 8928TIP3    H248276   2.910   0.803   6.110  0.6375 -1.0804 -0.9447
 8929TIP3   OH248277   0.568   2.884   4.338  0.0067  0.3209  0.2515
 8929TIP3    H148278   0.498   2.907   4.277  0.1168  0.1577  0.0611
 8929TIP3    H248279   0.639   2.852   4.282  0.0556  0.0333  0.4769
 8930TIP3   OH248280   1.890   2.740   1.551  0.1412 -0.1295 -0.0798
 8930TIP3    H148281   1.876   2.835   1.560 -0.6478 -0.3558  1.1310
 8930TIP3    H248282   1.904   2.727   1.457 -0.8043  1.0523 -0.3987
 8931TIP3   OH248283   4.060   0.608   4.909 -0.4298  0.0658  0.6948
 8931TIP3    H148284   4.051   0.547   4.836 -0.5753  0.8315  0.0570
 8931TIP3    H248285   4.034   0.558   4.986 -1.5394 -0.3810  0.0446
 8932TIP3   OH248286   5.594   4.149   6.007 -0.0376  0.7118 -0.0540
 8932TIP3    H148287   5.581   4.190   6.092  1.4409  0.2141  0.4349
 8932TIP3    H248288   5.566   4.058   6.020  1.8737  0.1690  0.4279
 8933TIP3   OH248289   6.198   0.651   4.562  0.1425 -0.3221  0.0174
 8933TIP3    H148290   6.204   0.617   4.651 -2.3345  0.0172  0.3562
 8933TIP3    H248291   6.146   0.586   4.515  0.8311 -0.1505 -0.9895
 8934TIP3   OH248292   6.267   1.524  11.986 -0.5577  0.0280 -0.6639
 8934TIP3    H148293   6.299   1.435  11.973  0.5610  0.4811 -1.0408
 8934TIP3    H248294   6.263   1.561  11.898 -1.7633  0.1055 -0.5891
 8935TIP3   OH248295   5.884   2.452   5.219  0.5103 -0.6446  0.5667
 8935TIP3    H148296   5.959   2.512   5.215  0.3304 -0.4333  0.2951
 8935TIP3    H248297   5.826   2.491   5.286  0.2738 -0.3694  0.2084
 8936TIP3   OH248298   3.222   5.599   5.714 -0.0216  0.1865  0.1809
 8936TIP3    H148299   3.218   5.614   5.620 -1.8793 -1.5732 -0.0430
 8936TIP3    H248300   3.293   5.657   5.744  2.1375 -0.8881 -2.6035
 8937TIP3   OH248301   4.153   3.152  10.604 -0.3118 -0.2814  0.2731
 8937TIP3    H148302   4.101   3.163  10.683 -0.6445  0.5671 -0.0571
 8937TIP3    H248303   4.095   3.105  10.544 -0.6010  0.3934  0.0138
 8938TIP3   OH248304   1.791   1.209  17.138 -0.0867 -0.3144  0.0664
 8938TIP3    H148305   1.858   1.141  17.134 -0.6597 -0.8252 -1.0184
 8938TIP3    H248306   1.722   1.179  17.079 -1.4805 -0.0081  1.5190
 8939TIP3   OH248307   5.866   1.098  16.935 -0.5656  0.3653 -0.1876
 8939TIP3    H148308   5.917   1.105  17.015 -0.2057  2.0095 -0.5397
 8939TIP3    H248309   5.841   1.188  16.915 -0.6025 -0.0198 -1.9416
 8940TIP3   OH248310   1.903   6.318  14.597 -0.3551 -0.3164  0.2094
 8940TIP3    H148311   1.924   6.324  14.691 -1.3399  2.6529  0.3142
 8940TIP3    H248312   1.811   6.291  14.595 -0.9339  1.5878  0.1873
 8941TIP3   OH248313   1.661   0.461   4.675  0.0784 -0.1845  0.7511
 8941TIP3    H148314   1.666   0.405   4.598 -1.4729 -1.2752  1.4057
 8941TIP3    H248315   1.684   0.548   4.644 -0.9052 -0.5456 -1.0031
 8942TIP3   OH248316   1.131   1.162   1.129  0.7496 -0.2583 -0.1066
 8942TIP3    H148317   1.037   1.175   1.142  0.9742  1.5023 -0.0892
 8942TIP3    H248318   1.140   1.135   1.038  0.3642  1.2092 -0.5819
 8943TIP3   OH248319   5.406   6.812   0.331 -0.0097 -0.0004 -0.0329
 8943TIP3    H148320   5.361   6.869   0.393 -0.6644 -1.0564  0.4636
 8943TIP3    H248321   5.403   6.725   0.371  1.7374 -0.2372 -0.3786
 8944TIP3   OH248322   1.656   0.515   5.880 -0.5481 -0.4965  0.2837
 8944TIP3    H148323   1.622   0.432   5.914 -1.1434 -0.3262  0.1010
 8944TIP3    H248324   1.715   0.490   5.810 -0.7714 -0.7629  0.1914
 8945TIP3   OH248325   1.215   0.806  16.017 -0.0520 -0.3783  0.4009
 8945TIP3    H148326   1.233   0.784  15.926 -0.7471  0.6910 -0.0028
 8945TIP3    H248327   1.193   0.723  16.058  0.8046 -0.9439 -0.2762
 8946TIP3   OH248328   5.928   1.857  10.858  0.5319  0.1535 -0.2571
 8946TIP3    H148329   5.979   1.902  10.791 -1.1968  0.7637 -1.1990
 8946TIP3    H248330   5.838   1.890  10.846  0.3750  1.1939  3.0985
 8947TIP3   OH248331   5.259   6.601   5.403 -0.0994  0.3839  0.2393
 8947TIP3    H148332   5.238   6.508   5.415 -0.8130  0.3958 -0.7837
 8947TIP3    H248333   5.220   6.644   5.479 -1.8257  0.1154 -0.4550
 8948TIP3   OH248334   0.659   2.544   5.101  0.0277 -0.4184  0.0719
 8948TIP3    H148335   0.625   2.465   5.059 -1.6934  0.1828  0.3127
 8948TIP3    H248336   0.636   2.615   5.040  2.7316 -0.2258 -0.7926
 8949TIP3   OH248337   1.413   4.248  16.091 -0.5938 -0.3913  0.2591
 8949TIP3    H148338   1.362   4.261  16.171  0.9261  0.1150  1.1668
 8949TIP3    H248339   1.465   4.170  16.108 -1.3917 -1.1871 -0.8516
 8950TIP3   OH248340   0.930   2.654   0.281 -0.2798  0.2257  0.4788
 8950TIP3    H148341   0.848   2.646   0.331 -0.5878 -1.3259 -0.2528
 8950TIP3    H248342   0.911   2.614   0.196  1.5704 -1.2392  0.7095
 8951TIP3   OH248343   0.567   1.179  13.782  0.3250 -0.3878 -0.1862
 8951TIP3    H148344   0.630   1.219  13.723 -0.0448 -0.8694 -0.9130
 8951TIP3    H248345   0.561   1.240  13.856  0.7377  0.2455 -0.6720
 8952TIP3   OH248346   0.027   2.978   2.837 -0.1385 -0.6953  0.1658
 8952TIP3    H148347  -0.042   2.991   2.772 -0.1099  0.4159  0.3455
 8952TIP3    H248348   0.108   2.998   2.790 -0.0228 -0.9567  0.2519
 8953TIP3   OH248349   2.649   6.689   3.816 -0.1582  0.3397  0.4150
 8953TIP3    H148350   2.618   6.604   3.785  1.2476  0.1915 -0.6232
 8953TIP3    H248351   2.691   6.671   3.900  0.9964 -0.1609 -0.2586
 8954TIP3   OH248352   4.914   1.558  11.297 -0.2098 -0.0140  0.8297
 8954TIP3    H148353   4.820   1.561  11.312 -0.2357  2.7872  0.2963
 8954TIP3    H248354   4.924   1.504  11.219 -1.2295 -1.5795  1.7530
 8955TIP3   OH248355   1.429   6.302  11.652  0.8269  0.1279 -0.3085
 8955TIP3    H148356   1.461   6.354  11.726 -0.8269  0.8153 -0.0661
 8955TIP3    H248357   1.361   6.246  11.689  0.0720  0.3835 -1.2834
 8956TIP3   OH248358   0.282   5.179   1.889  0.0404 -0.0231 -0.6665
 8956TIP3    H148359   0.193   5.193   1.921  1.0722  2.2223  1.4318
 8956TIP3    H248360   0.296   5.085   1.894 -2.5581 -0.5293 -2.0784
 8957TIP3   OH248361   4.934   2.659   5.401  0.5963  0.2003  0.1871
 8957TIP3    H148362   4.932   2.575   5.447 -0.9823 -0.2467 -0.6784
 8957TIP3    H248363   4.858   2.707   5.435  2.2548  1.8730  1.7166
 8958TIP3   OH248364   4.457   4.203  10.460 -0.3028 -0.2332 -0.2216
 8958TIP3    H148365   4.544   4.178  10.427  0.9221 -0.3938  2.9182
 8958TIP3    H248366   4.443   4.291  10.426  0.0240 -1.0732 -2.6793
 8959TIP3   OH248367   5.612   0.530   3.849 -0.2080  0.2906 -0.2788
 8959TIP3    H148368   5.649   0.456   3.800  0.2671  0.0962  0.3513
 8959TIP3    H248369   5.673   0.602   3.833 -0.0508  0.2259  0.0168
 8960TIP3   OH248370   4.967   5.614  14.290 -0.1112 -0.0813 -0.1193
 8960TIP3    H148371   4.918   5.662  14.357  1.1447  1.2762 -0.1452
 8960TIP3    H248372   4.998   5.535  14.334  2.0197  1.5486  1.3680
 8961TIP3   OH248373   3.697   1.819   0.501  0.3396 -0.0775 -0.2593
 8961TIP3    H148374   3.637   1.819   0.576 -1.4568  0.2613 -1.6591
 8961TIP3    H248375   3.656   1.760   0.438  1.5482  0.0840 -1.2015
 8962TIP3   OH248376   3.949   4.321   0.131 -0.1921  0.0378  0.4769
 8962TIP3    H148377   3.867   4.334   0.084  1.4725  1.3733 -2.1898
 8962TIP3    H248378   3.978   4.233   0.106 -1.7011 -1.2305  2.9589
 8963TIP3   OH248379   1.095   6.011   0.204  0.0783 -0.2684 -0.0344
 8963TIP3    H148380   1.010   5.968   0.211  0.2360 -0.4092  1.0741
 8963TIP3    H248381   1.159   5.939   0.206  0.3239 -0.0190  1.3962
 8964TIP3   OH248382   6.379   6.095   1.711  0.1034 -0.0410 -0.0674
 8964TIP3    H148383   6.449   6.033   1.689 -0.1951 -1.5265  2.9189
 8964TIP3    H248384   6.303   6.065   1.661  1.0918  0.5619 -1.9924
 8965TIP3   OH248385   6.094   6.029  10.585 -0.2634  0.3864 -0.5401
 8965TIP3    H148386   6.080   6.043  10.492  0.6729 -1.4560 -0.9890
 8965TIP3    H248387   6.168   6.085  10.608  0.4511 -0.2564 -1.2468
 8966TIP3   OH248388   4.779   3.465  13.700 -0.3587  0.2935 -0.5684
 8966TIP3    H148389   4.809   3.545  13.744  1.7767 -0.8444  0.0724
 8966TIP3    H248390   4.801   3.479  13.608 -1.0325  0.9020 -0.6482
 8967TIP3   OH248391   0.683   1.678   1.301  0.1679 -0.0515 -0.2204
 8967TIP3    H148392   0.641   1.616   1.361 -3.0922  0.2341 -2.1168
 8967TIP3    H248393   0.768   1.637   1.281 -0.6453 -2.4151  0.9305
 8968TIP3   OH248394   6.754   6.396  17.203 -0.0575 -0.1213 -1.1246
 8968TIP3    H148395   6.709   6.481  17.202  1.1685  0.5313 -1.7922
 8968TIP3    H248396   6.717   6.351  17.279 -0.6940  1.0195 -0.7399
 8969TIP3   OH248397   0.545   2.907   6.023 -0.3794  0.9290 -0.0722
 8969TIP3    H148398   0.588   2.825   6.002 -0.1689  1.0986 -0.3096
 8969TIP3    H248399   0.581   2.933   6.107 -1.8060 -0.1533  0.8946
 8970TIP3   OH248400   5.764   2.765  11.710  0.0355  0.1182 -0.1662
 8970TIP3    H148401   5.799   2.750  11.799 -0.0007  2.1150  0.1980
 8970TIP3    H248402   5.842   2.778  11.656  0.0501 -0.9585 -0.4237
 8971TIP3   OH248403   5.930   4.545   4.440 -0.1944  0.0459  0.0935
 8971TIP3    H148404   5.961   4.577   4.356 -0.8526 -1.3630 -0.6975
 8971TIP3    H248405   5.879   4.466   4.419 -0.9590  0.0814  1.7323
 8972TIP3   OH248406   0.212   4.142  15.242  0.0165  0.0085 -0.2464
 8972TIP3    H148407   0.210   4.128  15.337 -1.8195 -0.9116 -0.3961
 8972TIP3    H248408   0.276   4.078  15.210  1.0613  0.6977  0.4046
 8973TIP3   OH248409   6.247   5.169   5.566  0.4201  0.1148 -0.0195
 8973TIP3    H148410   6.173   5.178   5.626  1.6092 -0.1407  1.5044
 8973TIP3    H248411   6.294   5.092   5.597  1.7647  0.7250 -0.5039
 8974TIP3   OH248412   6.694   0.079   0.619 -1.0703 -0.2099  0.1628
 8974TIP3    H148413   6.709  -0.014   0.603  0.6314  0.1186 -0.3352
 8974TIP3    H248414   6.632   0.106   0.551 -0.5621 -0.7006 -0.4945
 8975TIP3   OH248415   5.214   4.463  13.745  0.4388  0.4233 -0.3023
 8975TIP3    H148416   5.128   4.503  13.732 -0.1508 -1.5701 -2.9547
 8975TIP3    H248417   5.274   4.517  13.694  0.7076  1.5459  1.1768
 8976TIP3   OH248418   2.760   6.206  13.599 -0.1638 -0.2514 -0.5966
 8976TIP3    H148419   2.694   6.274  13.612  0.2356  0.1979 -0.8946
 8976TIP3    H248420   2.775   6.204  13.504 -0.7334 -1.2883 -0.6799
 8977TIP3   OH248421   0.248   2.665  14.713 -0.0000 -0.4772  0.4298
 8977TIP3    H148422   0.233   2.597  14.778 -1.7105 -0.1316  0.4118
 8977TIP3    H248423   0.215   2.745  14.753 -1.5204 -0.3434 -1.0242
 8978TIP3   OH248424   1.976   0.834  12.310  0.2371 -0.1967 -0.2956
 8978TIP3    H148425   2.065   0.867  12.324  0.5305 -0.4980 -1.4186
 8978TIP3    H248426   1.944   0.884  12.234 -0.2843 -0.6067 -0.3462
 8979TIP3   OH248427   0.945   1.821   2.166  0.2895 -0.1158 -0.1348
 8979TIP3    H148428   1.040   1.815   2.171  0.3978  0.7069 -0.9887
 8979TIP3    H248429   0.924   1.907   2.203 -0.2968 -1.0609  1.8280
 8980TIP3   OH248430   2.090   5.094   1.870  0.1805  0.4559 -0.0612
 8980TIP3    H148431   2.054   5.013   1.907  0.1604  0.4841 -0.0195
 8980TIP3    H248432   2.035   5.163   1.906  0.5006  0.5304  0.2888
 8981TIP3   OH248433   2.189   4.041   5.760  0.7056 -0.1362  0.1815
 8981TIP3    H148434   2.144   3.957   5.767 -0.9070  0.6298 -0.6270
 8981TIP3    H248435   2.281   4.020   5.771  0.5042 -2.2823 -1.7676
 8982TIP3   OH248436   5.229   0.444   0.609 -0.1866  0.3528  0.3802
 8982TIP3    H148437   5.293   0.373   0.619  1.7281  2.1421  1.1210
 8982TIP3    H248438   5.184   0.448   0.693  0.4778  0.7337  0.7226
 8983TIP3   OH248439   4.236   6.169  12.338  0.1538 -0.0336 -0.2116
 8983TIP3    H148440   4.169   6.236  12.355 -1.7202 -1.1187 -2.9390
 8983TIP3    H248441   4.194   6.086  12.360  1.4608 -0.5766  0.3283
 8984TIP3   OH248442   6.639   6.403   2.384 -0.5098 -0.0641 -0.6327
 8984TIP3    H148443   6.577   6.462   2.428  1.0608  2.2227 -1.3586
 8984TIP3    H248444   6.631   6.427   2.291 -0.3879 -1.5696 -1.0417
 8985TIP3   OH248445   6.109   2.243   3.528  0.1666  0.0550 -0.2867
 8985TIP3    H148446   6.056   2.320   3.508 -1.4383  0.2643  4.2154
 8985TIP3    H248447   6.193   2.259   3.485 -1.1343  2.8791 -1.9141
 8986TIP3   OH248448   4.673   6.014   5.121  0.0239 -0.1940  0.0572
 8986TIP3    H148449   4.716   5.968   5.049  1.3465 -0.5329  1.0382
 8986TIP3    H248450   4.626   6.086   5.079  0.7582 -0.4006 -1.1452
 8987TIP3   OH248451   5.812   1.507  11.324  0.1440 -0.6811  0.3256
 8987TIP3    H148452   5.764   1.470  11.398 -0.1429 -1.1220 -0.0756
 8987TIP3    H248453   5.765   1.475  11.247 -1.1616  1.9440 -0.0320
 8988TIP3   OH248454   4.851   0.014  16.813  0.1675  0.1419  1.1862
 8988TIP3    H148455   4.856   0.009  16.908  0.8225  2.3238  1.3131
 8988TIP3    H248456   4.785   0.081  16.796  1.6816  1.4335  0.1868
 8989TIP3   OH248457   2.402   5.450  14.290 -0.2932 -0.3303 -0.3791
 8989TIP3    H148458   2.372   5.359  14.291 -0.0198 -0.4473 -2.2099
 8989TIP3    H248459   2.400   5.476  14.382 -0.0550 -2.2955  0.2134
 8990TIP3   OH248460   2.005   6.814   2.892 -0.1334  0.2099 -0.4129
 8990TIP3    H148461   1.972   6.756   2.961  1.8443 -0.5757 -0.0875
 8990TIP3    H248462   1.927   6.840   2.843 -1.2993 -1.0482  0.7216
 8991TIP3   OH248463   6.338   6.506  12.877  0.4069  0.2997  0.2449
 8991TIP3    H148464   6.355   6.519  12.970  0.1061 -0.4901  0.4084
 8991TIP3    H248465   6.317   6.594  12.844 -0.1974  0.4592  1.0575
 8992TIP3   OH248466   4.550   4.575  13.620  0.1533 -0.5222 -0.0193
 8992TIP3    H148467   4.550   4.550  13.712 -0.3511  2.6686  0.8893
 8992TIP3    H248468   4.621   4.638  13.611 -0.7531  0.3486 -1.4569
 8993TIP3   OH248469   0.811   0.980   3.437  0.4237 -0.4355 -0.0831
 8993TIP3    H148470   0.830   1.018   3.523  0.3927 -1.2239  0.2838
 8993TIP3    H248471   0.757   1.045   3.393  2.9441  1.3172 -0.6765
 8994TIP3   OH248472   4.904   4.583  16.121 -0.3817  0.0927  0.3667
 8994TIP3    H148473   4.989   4.625  16.106 -0.1635 -0.2385  0.6932
 8994TIP3    H248474   4.854   4.603  16.042  0.3173 -0.5052 -0.2387
 8995TIP3   OH248475   1.375   2.011  16.453 -0.3369  0.4418 -0.1140
 8995TIP3    H148476   1.369   1.923  16.491  3.0929  0.1067 -0.2480
 8995TIP3    H248477   1.336   2.068  16.520  3.3275 -0.4550  2.9566
 8996TIP3   OH248478   1.996   6.109  15.282 -0.0664 -0.0115 -0.2278
 8996TIP3    H148479   2.058   6.134  15.350 -0.1876  0.9338 -0.4608
 8996TIP3    H248480   2.049   6.104  15.202 -0.1732  0.2092 -0.3148
 8997TIP3   OH248481   2.157   6.575   1.921  0.1977 -0.2058 -0.0800
 8997TIP3    H148482   2.140   6.540   2.008 -0.2845 -1.4146 -0.6586
 8997TIP3    H248483   2.243   6.617   1.929  0.0784 -0.1499  1.0155
 8998TIP3   OH248484   4.262   0.608  16.342 -0.3389 -0.2067 -0.2604
 8998TIP3    H148485   4.216   0.606  16.258  0.5436  1.1793 -0.7995
 8998TIP3    H248486   4.298   0.696  16.347 -1.8874  0.3392  2.4021
 8999TIP3   OH248487   0.357   5.155   0.232  0.8432 -0.3101  0.1787
 8999TIP3    H148488   0.357   5.234   0.178  1.1998 -0.2165  0.3189
 8999TIP3    H248489   0.449   5.139   0.252  0.8001 -0.9398 -0.1144
 9000TIP3   OH248490   1.831   3.180   6.228 -0.8573 -0.7055  0.1906
 9000TIP3    H148491   1.818   3.268   6.265 -0.6051 -1.2593  1.6565
 9000TIP3    H248492   1.753   3.164   6.176 -0.5236  0.7226 -0.7931
 9001TIP3   OH248493   4.911   3.106   5.156 -0.0433  0.2157  0.6036
 9001TIP3    H148494   4.996   3.087   5.194  0.6152  1.6540 -0.1121
 9001TIP3    H248495   4.930   3.140   5.069 -1.3185  0.9058  0.5713
 9002TIP3   OH248496   4.832   0.693  14.409  0.4578 -0.0114  0.3849
 9002TIP3    H148497   4.869   0.617  14.363  0.3837  0.5457 -0.6079
 9002TIP3    H248498   4.802   0.751  14.339 -0.7259  0.3203  1.1688
 9003TIP3   OH248499   6.324   4.358  16.006 -0.6632 -0.9790 -0.3652
 9003TIP3    H148500   6.349   4.448  15.984 -0.3991 -0.8349  0.5022
 9003TIP3    H248501   6.273   4.328  15.931  3.5764 -1.8957 -3.0085
 9004TIP3   OH248502   0.482   1.652  14.058  0.2252 -0.1109  0.0364
 9004TIP3    H148503   0.490   1.620  14.148  0.1875 -0.5356 -0.1083
 9004TIP3    H248504   0.500   1.746  14.064  0.0178 -0.1004  0.5179
 9005TIP3   OH248505   4.215   5.293   3.524 -0.1691 -0.2584  0.5687
 9005TIP3    H148506   4.247   5.377   3.557 -1.0638  0.5349 -0.5540
 9005TIP3    H248507   4.214   5.236   3.601  1.1662  0.5248  1.1921
 9006TIP3   OH248508   3.777   4.860   5.301 -0.1002 -0.2023  0.6425
 9006TIP3    H148509   3.782   4.940   5.249  1.6582 -0.0990  0.9499
 9006TIP3    H248510   3.684   4.853   5.326 -0.3825  1.3651  0.0608
 9007TIP3   OH248511   6.319   0.868   4.119 -0.3970 -0.2482  0.3498
 9007TIP3    H148512   6.411   0.845   4.127 -0.0404 -0.1075 -2.7582
 9007TIP3    H248513   6.296   0.904   4.204  2.3738 -0.3892  1.2159
 9008TIP3   OH248514   1.257   4.018  12.204 -0.4632  0.1685  0.5782
 9008TIP3    H148515   1.300   3.936  12.182 -0.3250  0.3501  0.1522
 9008TIP3    H248516   1.179   4.020  12.149 -0.5942  0.2058  0.7673
 9009TIP3   OH248517   0.907   4.432  16.913  0.1447  0.4417  0.0497
 9009TIP3    H148518   0.837   4.443  16.978 -0.3028 -1.6767 -0.0132
 9009TIP3    H248519   0.962   4.362  16.949  0.8334  0.4048 -1.0565
 9010TIP3   OH248520   2.818   2.387  16.869  0.7449 -0.3565  0.1773
 9010TIP3    H148521   2.725   2.396  16.847  0.7360 -0.4690  0.1705
 9010TIP3    H248522   2.819   2.344  16.954  0.8016 -1.1556 -0.2204
 9011TIP3   OH248523   3.137   6.814   4.956  0.6836  0.1569 -0.1253
 9011TIP3    H148524   3.207   6.749   4.949  0.9995  0.5095 -0.2793
 9011TIP3    H248525   3.144   6.866   4.876  0.2270  0.1770 -0.1531
 9012TIP3   OH248526   4.971   3.387  15.183  0.2984 -0.3564 -0.0710
 9012TIP3    H148527   5.017   3.303  15.186  0.2747 -0.4592 -2.0188
 9012TIP3    H248528   4.879   3.364  15.196  0.4154 -0.5089  0.5028
 9013TIP3   OH248529   6.386   2.259  13.417 -0.2101  0.0729  0.1267
 9013TIP3    H148530   6.373   2.330  13.354  0.7141  0.0170 -0.1212
 9013TIP3    H248531   6.363   2.180  13.369 -1.1011  0.1742  0.3591
 9014TIP3   OH248532   1.361   5.892   2.349 -0.0839 -0.2948 -0.1847
 9014TIP3    H148533   1.433   5.888   2.286 -0.3368 -0.6889 -0.4562
 9014TIP3    H248534   1.284   5.863   2.299  0.0948 -2.6506  0.8476
 9015TIP3   OH248535   3.367   5.356   4.969  0.0577  0.3520  0.6123
 9015TIP3    H148536   3.428   5.283   4.964  0.0489  0.3159  1.0015
 9015TIP3    H248537   3.422   5.434   4.969 -0.0347  0.4566 -2.3696
 9016TIP3   OH248538   2.605   5.936   0.248 -0.0770  0.8357  0.3852
 9016TIP3    H148539   2.700   5.951   0.246  0.2022 -0.8760 -0.1331
 9016TIP3    H248540   2.579   5.963   0.336  0.4581  3.6622 -0.2790
 9017TIP3   OH248541   1.379   2.049  13.808  0.2945  0.1201 -0.3636
 9017TIP3    H148542   1.388   2.137  13.773  0.1047  0.2454 -0.0963
 9017TIP3    H248543   1.285   2.038  13.823  0.4889  0.4676  1.1586
 9018TIP3   OH248544   6.315   0.634  17.013  0.4180 -0.2615 -0.4508
 9018TIP3    H148545   6.243   0.683  16.972  0.9293 -0.5990 -1.7703
 9018TIP3    H248546   6.393   0.663  16.967  0.9828 -0.7985  0.1668
 9019TIP3   OH248547   0.078   2.032  14.980  0.2213  0.5568  0.0741
 9019TIP3    H148548  -0.003   2.059  15.023  0.8013  0.1477  1.4503
 9019TIP3    H248549   0.056   1.948  14.938 -0.1235  0.5631  0.2394
 9020TIP3   OH248550   4.370   6.143   3.719  0.2410  0.2201  0.2786
 9020TIP3    H148551   4.341   6.229   3.751  0.7734  0.3259  0.4967
 9020TIP3    H248552   4.411   6.103   3.796 -0.5686 -0.4816  0.3393
 9021TIP3   OH248553   5.802   4.314   5.952 -0.1261 -0.0038  0.1860
 9021TIP3    H148554   5.789   4.392   6.006 -0.8309 -0.8737  1.2927
 9021TIP3    H248555   5.721   4.264   5.962 -0.1952 -0.2524 -1.5610
 9022TIP3   OH248556   0.241   5.290   5.024  0.4880 -0.3525  0.0643
 9022TIP3    H148557   0.268   5.233   4.952  0.9411 -0.9268  0.6889
 9022TIP3    H248558   0.323   5.320   5.063  0.2690  0.9936 -0.4577
 9023TIP3   OH248559   3.854   4.658  15.598 -0.0973  0.4487  0.5213
 9023TIP3    H148560   3.918   4.592  15.570 -0.9899 -0.7623  1.2720
 9023TIP3    H248561   3.907   4.726  15.640  0.9613  0.8673 -1.4123
 9024TIP3   OH248562   0.032   1.895  12.315 -0.2739 -0.1519 -0.0776
 9024TIP3    H148563  -0.005   1.938  12.392  0.9609 -0.0804  0.4858
 9024TIP3    H248564  -0.044   1.878  12.259 -1.0932  0.4648  0.8154
 9025TIP3   OH248565   2.951   2.738   2.397 -0.5570 -0.5730 -0.4798
 9025TIP3    H148566   2.907   2.822   2.400  0.7469  0.0585  1.8248
 9025TIP3    H248567   2.913   2.688   2.469 -0.0085 -1.3093 -0.6921
 9026TIP3   OH248568   2.373   3.173  16.671  0.0961 -0.5466  0.6152
 9026TIP3    H148569   2.344   3.254  16.630  0.3588 -0.8545 -0.1919
 9026TIP3    H248570   2.396   3.197  16.761  1.2208  0.4788  0.0625
 9027TIP3   OH248571   0.489   2.920  11.489  0.1446  0.1683  0.3537
 9027TIP3    H148572   0.410   2.970  11.511  0.4447  0.4663  0.7744
 9027TIP3    H248573   0.465   2.829  11.506 -0.5786  0.1152 -0.9430
 9028TIP3   OH248574   3.064   1.857  13.902 -0.1902  0.1496  0.1597
 9028TIP3    H148575   3.053   1.938  13.853 -0.1125  1.2393  1.8892
 9028TIP3    H248576   3.158   1.839  13.897 -0.4760 -0.8891 -1.8220
 9029TIP3   OH248577   4.361   2.767  12.758 -0.2838 -0.0096  0.7603
 9029TIP3    H148578   4.376   2.859  12.738 -0.3257  0.5057  3.0062
 9029TIP3    H248579   4.349   2.764  12.853  0.4483 -2.4188  0.8210
 9030TIP3   OH248580   5.396   1.489   6.618 -0.3076 -0.6642  0.1031
 9030TIP3    H148581   5.391   1.494   6.713  1.9891 -0.0244  0.1916
 9030TIP3    H248582   5.432   1.402   6.600  0.7657 -0.1799 -0.1253
 9031TIP3   OH248583   2.910   4.901   0.936  0.3075  0.5500  0.2541
 9031TIP3    H148584   2.913   4.845   1.014  1.4199 -0.1598 -0.2876
 9031TIP3    H248585   2.944   4.845   0.866 -1.1106  1.0445 -0.8273
 9032TIP3   OH248586   4.355   5.852   1.677  0.3729 -0.0637 -0.3284
 9032TIP3    H148587   4.387   5.935   1.643  1.2216  0.3370  1.3923
 9032TIP3    H248588   4.342   5.797   1.600  2.1514  0.8370 -1.2851
 9033TIP3   OH248589   6.077   4.986  14.419  0.3813 -0.1596 -0.0017
 9033TIP3    H148590   6.083   5.056  14.484 -2.4382  0.8068 -0.7180
 9033TIP3    H248591   6.150   5.003  14.359  2.2807 -0.3566  2.1641
 9034TIP3   OH248592   5.541   2.479  15.095 -0.8091 -0.7707  0.0705
 9034TIP3    H148593   5.510   2.402  15.143  0.3534 -1.9088 -0.9725
 9034TIP3    H248594   5.634   2.464  15.082 -0.1699  1.6883  1.4172
 9035TIP3   OH248595   2.772   5.732  15.201  0.5171  0.1811  0.1491
 9035TIP3    H148596   2.839   5.665  15.212 -0.7517 -1.0245  0.6668
 9035TIP3    H248597   2.710   5.717  15.272 -0.8244  0.6493 -0.8864
 9036TIP3   OH248598   4.136   2.617  17.240  0.2948  0.1379  0.7432
 9036TIP3    H148599   4.130   2.585  17.150  0.3769 -1.4983  1.2951
 9036TIP3    H248600   4.159   2.709  17.231 -0.7487  0.2605 -0.9265
 9037TIP3   OH248601   6.253   6.436   2.712  0.1038  0.1446  0.5020
 9037TIP3    H148602   6.235   6.478   2.628  0.0653  1.1031  0.9743
 9037TIP3    H248603   6.199   6.485   2.775 -0.1622 -0.8086  1.0258
 9038TIP3   OH248604   5.237   0.962   3.456 -0.9738  0.5082  0.0571
 9038TIP3    H148605   5.291   1.040   3.443  0.7801 -0.5503  0.8672
 9038TIP3    H248606   5.180   0.984   3.530 -0.5136  1.0316  0.2582
 9039TIP3   OH248607   0.455   1.893   5.613  0.3527  0.2545  0.0270
 9039TIP3    H148608   0.441   1.987   5.600 -1.0528  0.0555  0.0804
 9039TIP3    H248609   0.485   1.886   5.704  0.6636  0.6582 -0.0369
 9040TIP3   OH248610   5.622   5.137  16.974 -0.3772  0.1598  0.9327
 9040TIP3    H148611   5.716   5.127  16.959 -0.4945  2.4911 -1.6137
 9040TIP3    H248612   5.615   5.217  17.027 -0.9212 -0.2455  1.4811
 9041TIP3   OH248613   2.170   5.991   1.557  0.2726 -0.0500 -0.1121
 9041TIP3    H148614   2.092   6.037   1.585  0.2261 -0.5779  0.6312
 9041TIP3    H248615   2.219   6.056   1.506  0.7239  1.1572  1.8168
 9042TIP3   OH248616   5.536   0.529  13.219 -0.1681  0.2640  0.1338
 9042TIP3    H148617   5.613   0.488  13.259 -0.9565 -0.9384  0.4334
 9042TIP3    H248618   5.506   0.592  13.285 -0.7843 -0.9004  0.9984
 9043TIP3   OH248619   2.830   4.810  13.033 -0.0942  0.4920  0.1901
 9043TIP3    H148620   2.807   4.903  13.025  0.8040  0.4300 -4.0412
 9043TIP3    H248621   2.748   4.767  13.059 -0.6476  2.3386  1.6235
 9044TIP3   OH248622   5.924   3.375  16.836 -0.4799  0.2190 -0.3122
 9044TIP3    H148623   5.860   3.336  16.777 -1.1652  0.4097  0.3079
 9044TIP3    H248624   5.987   3.417  16.777  0.2894 -1.8294 -0.9909
 9045TIP3   OH248625   3.695   0.057   4.644 -0.1039 -0.0773 -0.3183
 9045TIP3    H148626   3.722   0.121   4.710 -0.6182  0.8234 -0.9735
 9045TIP3    H248627   3.724   0.095   4.561 -1.4629 -0.1175 -0.8205
 9046TIP3   OH248628   2.766   2.214  15.055 -0.0097  0.1737  0.2500
 9046TIP3    H148629   2.804   2.298  15.082  2.8714 -0.6978 -0.8954
 9046TIP3    H248630   2.738   2.228  14.965 -2.2141  0.7105  0.9813
 9047TIP3   OH248631   6.199   5.890  16.851  0.1640  0.1940  0.4060
 9047TIP3    H148632   6.193   5.864  16.943 -2.9357  0.2261  0.2733
 9047TIP3    H248633   6.186   5.809  16.803 -1.3952  0.6771  0.0036
 9048TIP3   OH248634   2.622   4.649  13.041  0.4005 -0.5735  0.5313
 9048TIP3    H148635   2.595   4.664  12.951  1.3155  2.5036  0.6996
 9048TIP3    H248636   2.551   4.685  13.094  1.1411  0.2367  1.0014
 9049TIP3   OH248637   1.573   3.681   1.546 -0.0405 -0.4512  0.0048
 9049TIP3    H148638   1.508   3.622   1.584 -0.0738 -1.7701 -2.0013
 9049TIP3    H248639   1.521   3.753   1.510 -0.0956  0.2301  1.4196
 9050TIP3   OH248640   3.121   2.609   6.862  0.1785  0.0226  0.4135
 9050TIP3    H148641   3.201   2.661   6.852  0.0807  0.0094 -0.5563
 9050TIP3    H248642   3.151   2.522   6.888  0.5265 -0.1477 -0.5437
 9051TIP3   OH248643   5.516   0.719   3.442  0.5515 -0.1042  0.4656
 9051TIP3    H148644   5.537   0.749   3.530 -1.8580 -1.2645  1.4723
 9051TIP3    H248645   5.555   0.632   3.436 -2.0638 -1.4220  1.6268
 9052TIP3   OH248646   3.127   4.484   3.468 -0.4459 -0.5506  0.0155
 9052TIP3    H148647   3.056   4.489   3.532 -0.8687 -3.0335 -0.2111
 9052TIP3    H248648   3.083   4.482   3.384 -0.0153 -0.2622 -0.2178
 9053TIP3   OH248649   1.118   0.582   1.140 -0.2229  0.5131  0.0140
 9053TIP3    H148650   1.082   0.669   1.151 -0.7801  0.2645  0.1726
 9053TIP3    H248651   1.043   0.527   1.118  0.1027  0.0491  0.0428
 9054TIP3   OH248652   5.122   1.135   6.557 -0.6463  0.0114 -0.3149
 9054TIP3    H148653   5.081   1.051   6.576  0.0924 -0.4526 -0.7519
 9054TIP3    H248654   5.216   1.118   6.562 -0.4810  0.6522 -1.0434
 9055TIP3   OH248655   4.319   4.055  15.641 -0.6957 -0.0364 -0.6388
 9055TIP3    H148656   4.308   3.983  15.703 -2.1427  1.8327  1.3269
 9055TIP3    H248657   4.239   4.053  15.588 -0.4151 -0.3124 -1.0526
 9056TIP3   OH248658   5.012   5.251   2.456  0.2968 -0.0398  0.1740
 9056TIP3    H148659   5.082   5.203   2.500  0.4191  0.6538  0.7527
 9056TIP3    H248660   4.940   5.189   2.450 -0.1385  0.2001  2.4273
 9057TIP3   OH248661   4.380   3.178  16.722  0.3181  0.1853 -0.9690
 9057TIP3    H148662   4.464   3.150  16.686  0.2381 -0.1945 -0.8643
 9057TIP3    H248663   4.400   3.207  16.811  0.6298  1.7689 -1.5329
 9058TIP3   OH248664   1.098   6.064  12.668  0.1531 -0.1474  0.0718
 9058TIP3    H148665   1.179   6.036  12.711  0.7710  1.4080 -0.0230
 9058TIP3    H248666   1.083   6.152  12.702 -1.6616 -0.5279  0.3016
 9059TIP3   OH248667   2.791   3.096  14.445  0.2416  0.7050 -0.1513
 9059TIP3    H148668   2.739   3.108  14.366  0.3723  0.9788 -0.1936
 9059TIP3    H248669   2.733   3.122  14.516 -0.6095 -1.4915  0.0261
 9060TIP3   OH248670   3.770   5.080  14.270  0.5227  0.3675 -0.9704
 9060TIP3    H148671   3.769   5.121  14.357  0.4970  1.4254 -1.4598
 9060TIP3    H248672   3.690   5.028  14.266  0.1955  0.8436 -0.6035
 9061TIP3   OH248673   0.022   5.001  15.735 -0.0554 -0.1123 -0.6580
 9061TIP3    H148674  -0.013   4.932  15.678  0.5132 -1.0408  0.0932
 9061TIP3    H248675  -0.005   5.082  15.693 -0.9098 -0.7913 -1.4637
 9062TIP3   OH248676   2.590   3.250   1.319  0.1131 -0.1514  1.1853
 9062TIP3    H148677   2.524   3.193   1.280  0.3247 -0.6412  1.5322
 9062TIP3    H248678   2.614   3.311   1.249 -1.8414  1.0599  1.5226
 9063TIP3   OH248679   1.916   4.082  13.338 -0.3342  0.6152  0.3983
 9063TIP3    H148680   1.873   4.017  13.394  0.6180  0.0662  0.5058
 9063TIP3    H248681   1.924   4.038  13.253 -2.0982  1.5720 -0.2912
 9064TIP3   OH248682   6.233   0.648   6.398 -0.4486 -0.1614 -0.0951
 9064TIP3    H148683   6.154   0.679   6.443 -0.3849  1.1797 -0.8684
 9064TIP3    H248684   6.287   0.727   6.388  1.1974 -1.1413  0.8262
 9065TIP3   OH248685   1.115   5.150   4.640 -0.6247 -0.1691 -0.4833
 9065TIP3    H148686   1.181   5.187   4.698  1.0330 -2.1493 -1.0444
 9065TIP3    H248687   1.032   5.165   4.685  0.1091  2.7666  0.0259
 9066TIP3   OH248688   1.819   2.222  10.797 -0.4181  0.1475 -0.6925
 9066TIP3    H148689   1.726   2.221  10.823 -0.7548 -1.1872 -1.8936
 9066TIP3    H248690   1.853   2.137  10.826  0.5792  0.8457  0.2182
 9067TIP3   OH248691   3.276   2.543   6.187  0.2027  0.1808  0.2426
 9067TIP3    H148692   3.295   2.635   6.203 -1.2374  0.8652 -1.7365
 9067TIP3    H248693   3.203   2.523   6.246 -0.0057  0.5439  0.1111
 9068TIP3   OH248694   0.327   3.135  13.446 -0.1628  0.3853 -0.1786
 9068TIP3    H148695   0.293   3.110  13.532 -1.0671 -0.1685 -0.6967
 9068TIP3    H248696   0.401   3.193  13.466 -0.1879  0.0334  0.9739
 9069TIP3   OH248697   0.984   4.835   3.093  0.3324  0.0236  0.3429
 9069TIP3    H148698   0.957   4.924   3.114 -2.8169 -0.5867 -0.6851
 9069TIP3    H248699   1.065   4.845   3.043  0.6354  2.2270  1.2361
 9070TIP3   OH248700   5.206   2.198   1.325  0.0195  0.1224  0.2389
 9070TIP3    H148701   5.155   2.137   1.379  2.6388  0.2402  3.0356
 9070TIP3    H248702   5.260   2.141   1.270  2.3863 -0.1858  2.7707
 9071TIP3   OH248703   1.743   3.838   4.557 -0.1325 -0.2980 -0.1239
 9071TIP3    H148704   1.815   3.895   4.530  0.8503 -1.7745 -0.6759
 9071TIP3    H248705   1.684   3.837   4.481  1.5039 -2.6349 -1.4169
 9072TIP3   OH248706   6.452   1.383   5.359 -0.2226  0.1367  0.0846
 9072TIP3    H148707   6.420   1.451   5.300 -0.5397  1.1067  1.3369
 9072TIP3    H248708   6.544   1.373   5.336 -0.3523  0.4842 -0.5959
 9073TIP3   OH248709   1.645   5.737  12.260  0.0845  0.2380 -0.0935
 9073TIP3    H148710   1.701   5.773  12.191  1.4337  0.6887  1.2211
 9073TIP3    H248711   1.557   5.738  12.222  0.8357  0.3301 -1.8638
 9074TIP3   OH248712   2.638   2.778   2.425 -0.3564 -0.3689  0.1982
 9074TIP3    H148713   2.650   2.691   2.388  0.6654 -0.6277  1.1225
 9074TIP3    H248714   2.620   2.763   2.518  1.3435  0.4566  0.6858
 9075TIP3   OH248715   3.420   4.296  12.020  0.9618 -0.2080  0.0482
 9075TIP3    H148716   3.471   4.274  12.098  0.9375 -0.6400 -0.0588
 9075TIP3    H248717   3.462   4.375  11.986 -0.6872  1.5517  2.0121
 9076TIP3   OH248718   3.895   1.802   1.255  0.0673  0.5667 -0.1057
 9076TIP3    H148719   3.927   1.881   1.297 -2.1089  0.5883  1.6012
 9076TIP3    H248720   3.868   1.830   1.168  1.3688  1.2268 -0.3126
 9077TIP3   OH248721   1.002   4.112   3.343 -0.1343 -0.4961 -0.4275
 9077TIP3    H148722   0.931   4.140   3.401 -0.3388 -1.4436 -0.2182
 9077TIP3    H248723   1.064   4.067   3.401 -0.2700 -1.3285 -0.9203
 9078TIP3   OH248724   5.390   1.119   4.492 -0.0593 -0.2584 -0.1997
 9078TIP3    H148725   5.405   1.181   4.421 -0.4333  0.3298  0.2311
 9078TIP3    H248726   5.296   1.102   4.489 -0.5755  1.9465  1.9230
 9079TIP3   OH248727   4.832   3.518   5.001 -0.2170 -0.8189 -0.1038
 9079TIP3    H148728   4.904   3.456   5.008 -0.1149 -0.8553 -1.3632
 9079TIP3    H248729   4.753   3.463   5.001 -0.1559 -0.9133 -0.5214
 9080TIP3   OH248730   5.644   3.558   3.946 -0.8359 -0.0157 -0.8020
 9080TIP3    H148731   5.654   3.510   3.863  0.4568  1.3949 -1.4840
 9080TIP3    H248732   5.733   3.586   3.968 -1.5079  1.6226 -0.1392
 9081TIP3   OH248733   2.943   2.598  11.580 -0.0660 -0.3469 -0.3216
 9081TIP3    H148734   2.889   2.519  11.586 -0.8570  0.2080 -0.0776
 9081TIP3    H248735   2.962   2.607  11.487  1.1122 -1.5361 -0.2262
 9082TIP3   OH248736   5.157   4.974  12.357  0.4607 -0.2710 -0.5060
 9082TIP3    H148737   5.230   4.949  12.300 -0.3261  0.6277 -1.9313
 9082TIP3    H248738   5.158   5.070  12.356 -2.2791 -0.2107 -2.5822
 9083TIP3   OH248739   3.850   6.351   5.720  0.2553  0.5921 -0.2962
 9083TIP3    H148740   3.808   6.336   5.805  0.7278 -2.2570 -0.5067
 9083TIP3    H248741   3.893   6.436   5.729 -1.0441  1.0709  1.7489
 9084TIP3   OH248742   5.179   2.585   0.905  0.3188 -0.6269 -0.3149
 9084TIP3    H148743   5.264   2.624   0.886 -0.2232  0.4504 -0.5711
 9084TIP3    H248744   5.198   2.514   0.967  1.2516  0.4690  0.6635
 9085TIP3   OH248745   4.918   6.737   2.789  0.0675  0.4455 -0.6720
 9085TIP3    H148746   4.875   6.805   2.841  0.2994  0.7178 -0.8305
 9085TIP3    H248747   4.912   6.769   2.699 -0.3180 -0.0129 -0.8135
 9086TIP3   OH248748   0.225   2.976   4.392  0.3299 -0.2449 -0.0310
 9086TIP3    H148749   0.176   2.905   4.352 -2.3206  1.5015 -0.0000
 9086TIP3    H248750   0.215   2.963   4.486 -1.8023  1.1858 -0.0145
 9087TIP3   OH248751   6.217   5.030   3.773  0.3489  0.2386 -0.2996
 9087TIP3    H148752   6.261   4.961   3.724  0.3739  0.2306 -0.2669
 9087TIP3    H248753   6.265   5.110   3.753  1.4524 -0.0495  1.0788
 9088TIP3   OH248754   6.624   2.411  12.286  0.1335  0.1583 -0.3160
 9088TIP3    H148755   6.689   2.344  12.263  0.5959  0.8677 -1.0599
 9088TIP3    H248756   6.662   2.456  12.362  0.6037  0.7029 -0.8724
 9089TIP3   OH248757   3.103   2.075   2.569 -0.6302  1.1812  0.1953
 9089TIP3    H148758   3.028   2.107   2.618  0.4160  0.5670  2.2421
 9089TIP3    H248759   3.090   1.980   2.563 -0.9891  1.3044 -1.1468
 9090TIP3   OH248760   3.679   6.585   0.356 -0.3245 -0.4126  0.1243
 9090TIP3    H148761   3.672   6.568   0.450 -2.2666 -0.5956 -0.0304
 9090TIP3    H248762   3.604   6.642   0.337  1.1107  1.1451 -0.9770
 9091TIP3   OH248763   3.082   1.104  16.556 -0.1772 -0.4580 -0.1623
 9091TIP3    H148764   3.070   1.192  16.520  0.7945 -0.2294  0.0562
 9091TIP3    H248765   3.037   1.106  16.640  1.0281  0.2795  0.4849
 9092TIP3   OH248766   2.581   5.117  13.517  0.3039 -0.2327 -0.3215
 9092TIP3    H148767   2.601   5.174  13.591  0.0974 -0.0152 -0.4317
 9092TIP3    H248768   2.488   5.133  13.500  0.0542 -1.1958  0.1495
 9093TIP3   OH248769   2.926   3.986  12.503  0.5947  0.4801 -0.2872
 9093TIP3    H148770   2.942   3.900  12.463  0.5267  0.1108  0.4666
 9093TIP3    H248771   2.894   3.966  12.591 -1.2834  1.2372 -0.7602
 9094TIP3   OH248772   3.002   1.365  16.215  0.0437  0.2651 -1.7018
 9094TIP3    H148773   2.944   1.438  16.238 -0.4934 -0.4812 -0.6598
 9094TIP3    H248774   3.065   1.360  16.287 -0.2652 -0.6472 -1.4881
 9095TIP3   OH248775   6.294   0.450   5.349 -0.3376  0.4295 -0.0158
 9095TIP3    H148776   6.338   0.429   5.432  0.4290  0.5862 -0.3724
 9095TIP3    H248777   6.225   0.511   5.372  0.1814  0.8419  0.4421
 9096TIP3   OH248778   5.939   2.808  14.700  0.0424 -0.6384 -0.1822
 9096TIP3    H148779   5.881   2.795  14.775  0.1689 -1.7039 -0.2585
 9096TIP3    H248780   5.880   2.828  14.628 -0.1127 -0.0932  0.0933
 9097TIP3   OH248781   6.344   6.725   0.184 -0.0381 -0.0658  0.1880
 9097TIP3    H148782   6.290   6.773   0.246 -1.6134  0.4216 -1.5076
 9097TIP3    H248783   6.408   6.789   0.153  1.0436 -0.4332  1.6146
 9098TIP3   OH248784   5.197   1.659   2.104  0.8076  0.1126 -0.0387
 9098TIP3    H148785   5.216   1.574   2.063  0.5080 -0.4642  1.0150
 9098TIP3    H248786   5.203   1.721   2.032  0.5266 -0.8668 -0.9281
 9099TIP3   OH248787   5.418   5.615   4.965 -0.1181 -0.0212  0.7437
 9099TIP3    H148788   5.398   5.679   5.033 -3.7223 -0.3323  0.0829
 9099TIP3    H248789   5.484   5.558   5.004  0.4983  1.9473  2.6463
 9100TIP3   OH248790   6.448   1.372   1.667  0.1123  0.4733 -0.2993
 9100TIP3    H148791   6.479   1.316   1.595 -0.1192  2.3818 -1.9394
 9100TIP3    H248792   6.372   1.326   1.702 -0.3647 -0.0316 -1.9320
 9101TIP3   OH248793   2.537   0.973  14.137  0.5700  0.0512  0.1683
 9101TIP3    H148794   2.514   0.986  14.045 -0.7443  0.6644  0.5652
 9101TIP3    H248795   2.453   0.977  14.183  1.1806 -0.5915  1.3538
 9102TIP3   OH248796   1.262   2.323   3.873  0.0904 -0.1723 -0.4315
 9102TIP3    H148797   1.295   2.277   3.796 -0.1021 -0.1221 -0.5449
 9102TIP3    H248798   1.200   2.262   3.912  2.6527 -1.5796  1.5830
 9103TIP3   OH248799   5.881   2.930  17.020 -0.1925  0.0955  0.0422
 9103TIP3    H148800   5.940   2.857  16.999  1.2322  0.7477  1.6219
 9103TIP3    H248801   5.940   3.004  17.034 -1.5898  1.4131 -0.9457
 9104TIP3   OH248802   0.824   5.807   3.238 -0.0708 -0.0518  0.1082
 9104TIP3    H148803   0.791   5.893   3.210 -0.5804 -0.4677 -0.5923
 9104TIP3    H248804   0.812   5.806   3.333  1.9482  1.5019  0.4146
 9105TIP3   OH248805   4.035   5.887  14.549 -0.4359 -0.0903 -0.3160
 9105TIP3    H148806   4.011   5.959  14.607  0.1351  0.5180 -0.8221
 9105TIP3    H248807   4.116   5.916  14.506 -0.8322 -0.5412 -1.3955
 9106TIP3   OH248808   2.747   2.111   2.560 -0.5041  0.1774  0.1237
 9106TIP3    H148809   2.735   2.147   2.472 -0.9070 -0.5544 -0.1284
 9106TIP3    H248810   2.779   2.022   2.545 -1.1735 -0.1705  0.7017
 9107TIP3   OH248811   5.193   5.367   4.134  0.3985  0.2855 -0.3622
 9107TIP3    H148812   5.121   5.359   4.071 -0.2000 -1.3543  0.4990
 9107TIP3    H248813   5.157   5.333   4.216  1.4022  1.7013  0.6905
 9108TIP3   OH248814   0.150   1.439  14.482 -0.5467 -0.7960  0.7897
 9108TIP3    H148815   0.078   1.404  14.534 -1.1458  0.0146  0.5178
 9108TIP3    H248816   0.176   1.367  14.424 -2.5315 -0.4249 -0.5838
 9109TIP3   OH248817   3.897   3.237   4.463  0.1137  0.6089 -0.6773
 9109TIP3    H148818   3.809   3.238   4.500  0.5123  0.6730  0.2894
 9109TIP3    H248819   3.943   3.168   4.511  0.4487  0.2532 -1.5019
 9110TIP3   OH248820   3.556   6.164  13.084 -0.1981  0.1621  0.0909
 9110TIP3    H148821   3.563   6.069  13.084  0.1177  0.1804  0.7722
 9110TIP3    H248822   3.485   6.183  13.023 -0.7905 -0.5498  0.5580
 9111TIP3   OH248823   1.800   4.552   0.881  0.1349 -0.5875 -0.1655
 9111TIP3    H148824   1.825   4.644   0.870 -1.4048 -0.1606 -0.2453
 9111TIP3    H248825   1.721   4.542   0.828  0.3215 -1.9799 -0.1976
 9112TIP3   OH248826   1.747   4.132  11.431  0.1978 -0.2031 -0.0948
 9112TIP3    H148827   1.842   4.126  11.427  0.1380 -0.9835 -0.3921
 9112TIP3    H248828   1.720   4.065  11.493 -0.2736 -1.1563 -1.3117
 9113TIP3   OH248829   5.463   1.917  15.269  0.1220  0.1948 -0.2214
 9113TIP3    H148830   5.470   1.824  15.288  0.8161  0.4193  0.6536
 9113TIP3    H248831   5.370   1.931  15.251 -0.5876 -0.0476  2.9911
 9114TIP3   OH248832   5.622   6.098  14.774  0.1158  0.9314 -0.9638
 9114TIP3    H148833   5.534   6.068  14.753  0.6562 -0.9722 -0.6083
 9114TIP3    H248834   5.609   6.179  14.823 -1.4567  0.3247 -0.3455
 9115TIP3   OH248835   5.499   2.069   5.427 -0.0235 -0.3547 -1.0228
 9115TIP3    H148836   5.457   2.148   5.393 -0.1880  1.5532  3.2224
 9115TIP3    H248837   5.430   2.025   5.477  1.4836 -0.1020  1.3849
 9116TIP3   OH248838   1.528   5.131  16.581  0.5484  0.4025 -0.3530
 9116TIP3    H148839   1.599   5.190  16.555  2.1497 -0.5564  1.7090
 9116TIP3    H248840   1.559   5.044  16.559  1.3650 -0.3158  3.2242
 9117TIP3   OH248841   1.242   2.803  17.079  0.0245 -0.0064  0.5314
 9117TIP3    H148842   1.155   2.816  17.042 -0.1013  1.4021  1.2873
 9117TIP3    H248843   1.233   2.826  17.172  1.3110  0.6947  0.5091
 9118TIP3   OH248844   2.524   2.084  13.087 -0.2802  0.3241  0.3659
 9118TIP3    H148845   2.508   2.005  13.139  0.4020  0.2096  0.4024
 9118TIP3    H248846   2.619   2.092  13.085 -0.2098 -0.7622 -2.5359
 9119TIP3   OH248847   4.290   4.783   5.204  0.3727  0.2905  0.2359
 9119TIP3    H148848   4.201   4.751   5.220 -0.3527  2.7618  1.3927
 9119TIP3    H248849   4.324   4.725   5.136 -0.8619 -2.8271  2.1679
 9120TIP3   OH248850   6.578   1.628   0.982  0.3170 -0.3076 -0.8282
 9120TIP3    H148851   6.668   1.621   0.949  1.7823 -1.7751  3.1928
 9120TIP3    H248852   6.568   1.552   1.039 -2.2647  1.7985  1.6224
 9121TIP3   OH248853   4.496   5.754   0.116 -0.0231  0.1748  0.0662
 9121TIP3    H148854   4.564   5.731   0.179 -1.3180 -2.2007  0.6448
 9121TIP3    H248855   4.432   5.683   0.122 -1.0805  0.8314 -2.6153
 9122TIP3   OH248856   0.557   6.308   5.217  0.2481  0.3211 -0.5432
 9122TIP3    H148857   0.572   6.323   5.310  0.1465  0.8961 -0.6153
 9122TIP3    H248858   0.624   6.245   5.191  0.0147 -0.1640  0.0111
 9123TIP3   OH248859   1.442   4.855  16.421 -0.3700 -0.4153  0.0082
 9123TIP3    H148860   1.479   4.770  16.446  0.6809 -0.0507 -0.2899
 9123TIP3    H248861   1.505   4.892  16.359  1.4545  2.4686  3.3557
 9124TIP3   OH248862   5.181   1.367   6.444 -0.2907 -0.1482  0.6771
 9124TIP3    H148863   5.170   1.282   6.487  1.5292 -0.1876  1.1383
 9124TIP3    H248864   5.238   1.416   6.504 -1.0067  1.2579  0.2247
 9125TIP3   OH248865   5.289   6.187  16.023 -0.0416  0.6227 -0.0305
 9125TIP3    H148866   5.345   6.263  16.008  0.8770 -0.2046 -0.8503
 9125TIP3    H248867   5.221   6.218  16.082  1.2305  1.6686  0.8967
 9126TIP3   OH248868   5.151   3.638   5.336 -0.1442  0.4440  0.6735
 9126TIP3    H148869   5.119   3.682   5.257  0.7625  0.5264  0.3430
 9126TIP3    H248870   5.230   3.687   5.360  0.9508 -1.0688  0.2231
 9127TIP3   OH248871   5.719   1.689   1.336  0.0855  0.6613  0.6049
 9127TIP3    H148872   5.677   1.702   1.421 -0.1402  2.1046  0.2955
 9127TIP3    H248873   5.791   1.629   1.353 -0.6976 -0.0218  1.5758
 9128TIP3   OH248874   1.878   3.677   1.924  0.4209 -0.3200  0.1462
 9128TIP3    H148875   1.961   3.725   1.927 -0.3291  1.0504 -0.6777
 9128TIP3    H248876   1.880   3.632   1.839  1.0307 -1.6102  0.8280
 9129TIP3   OH248877   1.703   3.449  11.524  0.0583  0.5016  0.1919
 9129TIP3    H148878   1.764   3.376  11.537 -0.5528  0.1686  1.2022
 9129TIP3    H248879   1.647   3.421  11.452 -0.6510 -0.3322  1.0717
 9130TIP3   OH248880   6.633   5.750   6.498 -0.2323 -0.4747  0.0165
 9130TIP3    H148881   6.684   5.717   6.424 -0.4029  0.3537 -0.4728
 9130TIP3    H248882   6.698   5.771   6.565  0.0999  0.8397 -0.7064
 9131TIP3   OH248883   5.618   0.240   3.539 -0.1722 -0.7701  0.8156
 9131TIP3    H148884   5.551   0.187   3.495  0.2166 -0.5559 -0.0502
 9131TIP3    H248885   5.569   0.308   3.584 -0.5386 -0.5768  0.1318
 9132TIP3   OH248886   3.846   5.691  13.731 -0.3578 -0.3558  0.1965
 9132TIP3    H148887   3.787   5.619  13.754 -0.4336 -0.1828  0.5524
 9132TIP3    H248888   3.798   5.741  13.665  0.0982 -1.1833 -0.7625
 9133TIP3   OH248889   1.928   3.339  14.810 -0.1324  0.4874 -0.2775
 9133TIP3    H148890   1.902   3.314  14.899 -0.6738  0.1553 -0.5303
 9133TIP3    H248891   1.987   3.414  14.823  0.2147  0.1120  0.3940
 9134TIP3   OH248892   5.637   3.488   5.569  0.9055 -0.4097 -0.1751
 9134TIP3    H148893   5.684   3.447   5.641  1.4094 -2.7370 -1.7521
 9134TIP3    H248894   5.681   3.571   5.554 -0.6377  1.2007  3.6447
 9135TIP3   OH248895   1.126   2.313   0.687 -0.4283 -0.0225 -0.4421
 9135TIP3    H148896   1.088   2.384   0.636 -0.5866  0.7041  0.6713
 9135TIP3    H248897   1.057   2.247   0.691 -0.8631  0.4412 -0.1303
 9136TIP3   OH248898   6.671   0.255   2.429 -0.7426 -0.0987  0.3860
 9136TIP3    H148899   6.655   0.341   2.467  0.3585 -0.2529  1.2222
 9136TIP3    H248900   6.739   0.270   2.364  0.5668 -0.5804  1.6175
 9137TIP3   OH248901   0.004   5.731  11.445 -0.4548 -0.4294 -0.3932
 9137TIP3    H148902  -0.010   5.753  11.537 -1.8756  1.3787 -1.0154
 9137TIP3    H248903  -0.072   5.677  11.422 -1.0872  0.6883 -0.9847
 9138TIP3   OH248904   4.859   2.983  13.987  0.5151  0.3145 -0.4513
 9138TIP3    H148905   4.892   3.071  14.004 -1.1384  1.1101 -1.1692
 9138TIP3    H248906   4.931   2.938  13.944  1.1892  1.4922 -0.5808
 9139TIP3   OH248907   6.640   2.025  11.724 -0.4040  0.2415 -0.7632
 9139TIP3    H148908   6.602   2.111  11.741 -0.2847  0.2718 -0.6481
 9139TIP3    H248909   6.663   2.027  11.631 -1.5176 -0.1082 -1.0496
 9140TIP3   OH248910   3.662   5.218  17.275  0.0367  0.4006 -0.6625
 9140TIP3    H148911   3.739   5.264  17.308 -0.1292  0.3055 -0.1460
 9140TIP3    H248912   3.696   5.136  17.240 -0.1862 -1.0273  2.3271
 9141TIP3   OH248913   5.722   6.189  16.083  0.1831  0.4821 -0.3802
 9141TIP3    H148914   5.749   6.216  16.170  1.1743 -0.8669 -0.2395
 9141TIP3    H248915   5.803   6.186  16.032  0.1071 -1.9084 -0.4389
 9142TIP3   OH248916   5.758   6.378   5.034  0.1607 -0.0380  0.2356
 9142TIP3    H148917   5.822   6.316   5.000  2.1552  1.6989  0.6817
 9142TIP3    H248918   5.692   6.385   4.965 -0.7477 -3.4793  0.6597
 9143TIP3   OH248919   2.027   6.339  15.950 -0.4032 -0.4336 -0.2299
 9143TIP3    H148920   2.063   6.423  15.979  0.4017  0.1121 -2.6707
 9143TIP3    H248921   2.103   6.289  15.921 -1.2576 -0.4199 -2.6295
 9144TIP3   OH248922   1.122   2.710   0.790 -0.0785  0.4002  0.1493
 9144TIP3    H148923   1.167   2.639   0.744 -3.0021  0.0883 -2.4106
 9144TIP3    H248924   1.114   2.679   0.880  0.0115 -1.8770 -0.5896
 9145TIP3   OH248925   4.374   3.814   2.103 -0.4729 -0.4056  0.0178
 9145TIP3    H148926   4.378   3.775   2.190 -3.4912 -1.2521 -0.1729
 9145TIP3    H248927   4.303   3.767   2.059 -0.5445  1.6002 -2.1023
 9146TIP3   OH248928   0.625   4.134   1.571 -0.2665 -0.0322 -0.3717
 9146TIP3    H148929   0.694   4.148   1.507  0.0019 -0.9547 -0.2926
 9146TIP3    H248930   0.630   4.209   1.629 -0.8805  1.1114 -1.7588
 9147TIP3   OH248931   0.279   6.096   5.375  0.2261 -0.0357 -0.3463
 9147TIP3    H148932   0.295   6.160   5.305 -2.1948  1.2608  0.2176
 9147TIP3    H248933   0.349   6.112   5.438  1.8978 -0.5913 -2.0213
 9148TIP3   OH248934   6.126   1.265   2.511  0.0417  0.1995  0.5084
 9148TIP3    H148935   6.078   1.339   2.475 -1.4421 -0.7575  0.5054
 9148TIP3    H248936   6.194   1.246   2.445 -1.1548 -0.0390 -0.6742
 9149TIP3   OH248937   0.275   3.910  15.440  0.0881  0.1079  0.4543
 9149TIP3    H148938   0.285   3.991  15.490 -1.7781 -1.6245  3.7548
 9149TIP3    H248939   0.365   3.880  15.425  0.7241  1.7662  0.8434
 9150TIP3   OH248940   3.167   6.186   1.345 -0.2830  0.1833 -0.4173
 9150TIP3    H148941   3.159   6.112   1.405  0.0340  1.7245  1.5728
 9150TIP3    H248942   3.087   6.182   1.292  0.3695 -2.3548 -1.2751
 9151TIP3   OH248943   5.225   1.542   4.334 -0.4127 -0.7511  0.6549
 9151TIP3    H148944   5.290   1.498   4.280 -1.0931  0.5119 -1.2640
 9151TIP3    H248945   5.193   1.474   4.393  1.5479 -1.7562  0.6046
 9152TIP3   OH248946   2.141   2.264   0.355  0.2220  0.3329  0.0420
 9152TIP3    H148947   2.055   2.267   0.313  0.1182 -1.9046  0.0427
 9152TIP3    H248948   2.196   2.219   0.291  1.1237  0.7582  0.5228
 9153TIP3   OH248949   4.474   5.637   3.435  0.0937  0.1016  0.4884
 9153TIP3    H148950   4.545   5.650   3.372 -0.1112  1.7498  0.5779
 9153TIP3    H248951   4.480   5.544   3.459  0.6050 -0.3927 -1.4336
 9154TIP3   OH248952   2.659   5.208   4.131 -0.3274 -0.4006  0.7318
 9154TIP3    H148953   2.684   5.142   4.066 -0.6104 -0.2491  0.4733
 9154TIP3    H248954   2.713   5.187   4.207 -0.3961 -0.9187  0.6397
 9155TIP3   OH248955   4.218   6.723  14.719  0.2645  0.3035  0.2322
 9155TIP3    H148956   4.144   6.782  14.736 -0.1146 -0.1493  0.1509
 9155TIP3    H248957   4.178   6.645  14.680  0.6909 -0.3042  1.0002
 9156TIP3   OH248958   6.232   3.368  11.720 -0.1120 -0.3539 -0.1535
 9156TIP3    H148959   6.284   3.289  11.705  0.4550  0.1745 -0.9517
 9156TIP3    H248960   6.296   3.438  11.734 -0.6117 -0.2960  2.0655
 9157TIP3   OH248961   3.466   3.467  12.494 -0.2135  0.3558  0.1332
 9157TIP3    H148962   3.475   3.392  12.434 -2.1447  0.2183 -0.0434
 9157TIP3    H248963   3.555   3.500  12.505  0.2101  0.4314 -2.8797
 9158TIP3   OH248964   5.729   1.172  16.165 -0.2421  0.0359  0.1299
 9158TIP3    H148965   5.759   1.083  16.181 -0.0851  0.0778  0.0709
 9158TIP3    H248966   5.645   1.162  16.119  0.2184 -0.0821 -0.6951
 9159TIP3   OH248967   3.114   4.843  12.096 -0.4270 -0.4661 -0.0604
 9159TIP3    H148968   3.183   4.909  12.093  1.6569 -2.5031  1.2174
 9159TIP3    H248969   3.039   4.889  12.133  0.9727  1.2132  0.8027
 9160TIP3   OH248970   6.467   0.220   2.007  0.4829  0.1601  0.8110
 9160TIP3    H148971   6.479   0.229   2.102 -1.6113 -1.1452  1.2369
 9160TIP3    H248972   6.511   0.138   1.985  0.7520  0.3348  0.6982
 9161TIP3   OH248973   4.898   2.011   3.481  0.2701  0.4356  0.0151
 9161TIP3    H148974   4.948   2.009   3.400 -1.2434  0.8553 -0.9597
 9161TIP3    H248975   4.874   2.103   3.493  2.6653  0.8248  2.3461
 9162TIP3   OH248976   0.937   0.673   2.230  0.1223 -0.4633  0.0608
 9162TIP3    H148977   0.844   0.654   2.222 -0.1980  0.7729  0.6589
 9162TIP3    H248978   0.981   0.590   2.212 -1.1130 -1.1572  0.2232
 9163TIP3   OH248979   4.438   4.834  13.075  0.1143 -0.1485  0.4544
 9163TIP3    H148980   4.459   4.902  13.011  2.6250  0.2155  1.6370
 9163TIP3    H248981   4.522   4.803  13.107 -1.0623 -1.6578  2.2207
 9164TIP3   OH248982   1.962   6.682  15.126 -0.6205  0.1906  0.2045
 9164TIP3    H148983   1.988   6.594  15.153  0.1842  0.0460 -1.0175
 9164TIP3    H248984   1.869   6.673  15.105  0.0108 -0.9692 -2.2722
 9165TIP3   OH248985   6.068   4.256   3.132 -0.2137  0.2006  0.5842
 9165TIP3    H148986   6.010   4.232   3.060 -1.8910  2.2151  1.2016
 9165TIP3    H248987   6.088   4.173   3.175  0.0641 -0.9214 -1.6139
 9166TIP3   OH248988   1.998   2.786  12.568 -0.2509 -0.0353 -0.4574
 9166TIP3    H148989   2.060   2.732  12.616 -1.7546 -1.6106 -0.2319
 9166TIP3    H248990   2.053   2.845  12.516  1.4024 -0.0303  1.2315
 9167TIP3   OH248991   6.575   2.976  14.777 -0.2444  0.4113  0.0865
 9167TIP3    H148992   6.561   3.011  14.690 -1.5511 -3.8848 -1.5653
 9167TIP3    H248993   6.522   3.031  14.835 -0.5230  2.3830 -2.0058
 9168TIP3   OH248994   4.831   1.251  10.899 -0.1043  0.1755  0.0410
 9168TIP3    H148995   4.920   1.265  10.869  0.3766  0.8914  1.7046
 9168TIP3    H248996   4.795   1.185  10.840  1.1712  0.6573 -1.2999
 9169TIP3   OH248997   6.480   2.091   1.462  0.8160 -0.0202  0.4239
 9169TIP3    H148998   6.417   2.023   1.438  0.3340  0.1681  1.1473
 9169TIP3    H248999   6.459   2.164   1.403  1.1636 -0.4009 -0.1754
 9170TIP3   OH249000   1.122   5.786  11.213  0.3511  0.0368  0.1994
 9170TIP3    H149001   1.088   5.709  11.260  2.0553 -0.1872  1.0924
 9170TIP3    H249002   1.047   5.817  11.161 -0.7549 -1.3890  0.9003
 9171TIP3   OH249003   1.919   5.030  11.914 -0.0222 -0.0046 -0.2433
 9171TIP3    H149004   1.877   5.109  11.949  1.6311  1.1393 -0.7570
 9171TIP3    H249005   1.853   4.962  11.922 -0.7755  0.9628  2.0967
 9172TIP3   OH249006   5.915   6.257   3.978  0.1480 -0.5557 -0.0576
 9172TIP3    H149007   5.961   6.188   4.027  0.2719  0.6190  1.5157
 9172TIP3    H249008   5.855   6.295   4.042 -1.2533 -0.4367 -1.4318
 9173TIP3   OH249009   4.050   5.630  12.473  0.9917  0.5898  0.0334
 9173TIP3    H149010   4.136   5.637  12.515  0.3115  2.5225  1.1579
 9173TIP3    H249011   4.062   5.673  12.388  1.4847 -0.4000 -0.4155
 9174TIP3   OH249012   5.184   1.622   1.007  0.0373  1.1538  0.3544
 9174TIP3    H149013   5.279   1.623   1.009  0.1442 -0.8107 -2.1937
 9174TIP3    H249014   5.160   1.705   0.965  0.8009 -0.3020 -3.0499
 9175TIP3   OH249015   3.738   3.189  13.493 -0.1151 -0.6793 -0.2538
 9175TIP3    H149016   3.687   3.109  13.509 -0.7408  0.0901  1.7931
 9175TIP3    H249017   3.673   3.256  13.474  0.2038 -0.0351  0.8604
 9176TIP3   OH249018   0.907   2.063   5.454 -0.5944  0.0952  0.3759
 9176TIP3    H149019   0.905   1.968   5.444 -0.0618 -0.0493  1.5553
 9176TIP3    H249020   0.893   2.077   5.548 -1.7058  1.2204  0.0551
 9177TIP3   OH249021   0.967   6.038   1.678  0.2607  0.2081 -0.1513
 9177TIP3    H149022   0.902   6.046   1.749  1.6802  1.4461  1.0298
 9177TIP3    H249023   0.915   6.047   1.598 -1.0723  0.9931  0.7723
 9178TIP3   OH249024   4.364   2.654  16.818 -0.3321  0.3466 -0.3706
 9178TIP3    H149025   4.398   2.727  16.767 -0.4797  0.4157 -0.3711
 9178TIP3    H249026   4.438   2.595  16.828 -0.2278  0.4682 -0.4203
 9179TIP3   OH249027   2.631   6.584  14.378 -0.0843  0.2975  0.1950
 9179TIP3    H149028   2.685   6.517  14.337  1.0994  0.6375  1.1776
 9179TIP3    H249029   2.681   6.611  14.455 -1.2752  1.2024  0.6596
 9180TIP3   OH249030   1.352   4.987  16.869  0.2269 -0.0203 -0.3255
 9180TIP3    H149031   1.445   4.997  16.849  0.3394  0.6831  0.5109
 9180TIP3    H249032   1.308   4.985  16.784  0.9257  0.4888 -0.7016
 9181TIP3   OH249033   3.209   1.906  15.098  0.1538  0.4665  0.4317
 9181TIP3    H149034   3.161   1.908  15.181 -0.9043 -0.5968 -0.1360
 9181TIP3    H249035   3.141   1.906  15.031  0.8971 -1.6373 -0.3873
 9182TIP3   OH249036   5.200   3.790   5.821 -0.5851  0.7731  0.0562
 9182TIP3    H149037   5.124   3.744   5.785  0.0424 -1.0231  0.9794
 9182TIP3    H249038   5.164   3.841   5.894 -0.6281 -1.4792  1.6337
 9183TIP3   OH249039   1.272   5.761   1.747  0.1661  0.0292  0.0875
 9183TIP3    H149040   1.187   5.752   1.704 -0.9478 -2.5914  2.6484
 9183TIP3    H249041   1.251   5.802   1.831  1.8100  1.7482 -0.3156
 9184TIP3   OH249042   5.347   1.515  12.888 -0.1071 -0.1518  0.5247
 9184TIP3    H149043   5.262   1.559  12.883  0.6778  1.2402 -0.9395
 9184TIP3    H249044   5.326   1.422  12.886 -1.6731  0.1728  1.5046
 9185TIP3   OH249045   4.005   6.274   3.438 -0.0629  0.1827  0.2282
 9185TIP3    H149046   4.036   6.211   3.502 -1.7628 -0.7473  0.1494
 9185TIP3    H249047   4.064   6.349   3.448  1.5645 -1.1414  0.7626
 9186TIP3   OH249048   1.433   0.470   0.862 -0.1704  0.7034  0.4940
 9186TIP3    H149049   1.389   0.392   0.896  0.4594 -0.2906 -0.9345
 9186TIP3    H249050   1.370   0.507   0.800  0.6199 -0.2013 -0.8592
 9187TIP3   OH249051   0.888   2.857  11.650 -0.1338 -0.6797 -0.2053
 9187TIP3    H149052   0.836   2.778  11.666 -1.8147  0.6771  1.2861
 9187TIP3    H249053   0.915   2.887  11.737 -0.2527  0.8510 -0.6696
 9188TIP3   OH249054   2.316   3.041   5.692  0.2175  0.3367  0.1908
 9188TIP3    H149055   2.247   3.062   5.755 -0.9581  1.5539 -1.4669
 9188TIP3    H249056   2.272   2.992   5.623  1.2139  0.2157 -0.3718
 9189TIP3   OH249057   2.288   0.708   4.875  0.0341  0.1576 -0.1090
 9189TIP3    H149058   2.339   0.691   4.795 -0.1488  1.1409 -0.4426
 9189TIP3    H249059   2.349   0.690   4.946  0.5713  0.4392 -0.4930
 9190TIP3   OH249060   4.626   4.766  12.119 -0.2659  0.0959  0.2905
 9190TIP3    H149061   4.602   4.674  12.114  0.2089 -0.0163  0.0665
 9190TIP3    H249062   4.709   4.772  12.071  0.2445  0.4477  1.2136
 9191TIP3   OH249063   3.006   5.502   5.401 -0.3472  0.1715 -0.1271
 9191TIP3    H149064   2.989   5.555   5.323 -0.9464  0.1545 -0.0152
 9191TIP3    H249065   2.923   5.504   5.448  0.0398  0.2471  0.5498
 9192TIP3   OH249066   3.039   1.960   5.486 -0.7077  0.1145  0.5125
 9192TIP3    H149067   3.076   1.877   5.514  0.2425  0.5972  0.7003
 9192TIP3    H249068   3.068   2.023   5.552 -0.6981  0.7523 -0.0971
 9193TIP3   OH249069   5.854   4.908   5.605 -0.0379  0.3942  0.1802
 9193TIP3    H149070   5.773   4.875   5.566 -1.2900  0.9510  2.2695
 9193TIP3    H249071   5.879   4.843   5.670  0.4756  0.8710  0.4716
 9194TIP3   OH249072   4.871   1.789   2.862 -0.3719  0.7063 -0.3413
 9194TIP3    H149073   4.935   1.851   2.826 -0.1632  0.5471 -0.2465
 9194TIP3    H249074   4.814   1.767   2.788 -0.1693  0.6651 -0.4856
 9195TIP3   OH249075   5.053   4.253   2.412  0.5440  0.3680  0.1260
 9195TIP3    H149076   5.030   4.161   2.422 -0.6820  0.6744  0.1886
 9195TIP3    H249077   4.998   4.299   2.476 -0.0082  1.2890 -0.9816
 9196TIP3   OH249078   5.357   1.954   4.701  0.1323  0.4916 -0.3051
 9196TIP3    H149079   5.326   2.044   4.715 -1.4658 -0.1660  0.5429
 9196TIP3    H249080   5.281   1.908   4.665  0.4213 -0.9201  0.8477
 9197TIP3   OH249081   2.383   2.685   2.821  0.4021  0.4058 -0.0897
 9197TIP3    H149082   2.332   2.614   2.860  0.7245  0.1851 -0.0659
 9197TIP3    H249083   2.320   2.735   2.770  0.1053  0.3079  0.1843
 9198TIP3   OH249084   0.826   4.269  13.036 -0.0213 -0.2623 -0.7413
 9198TIP3    H149085   0.832   4.274  13.131  0.4941 -1.3486 -0.7099
 9198TIP3    H249086   0.762   4.337  13.013 -0.4745 -0.2777  0.4084
 9199TIP3   OH249087   5.174   4.150  13.849 -0.1272 -0.3992 -0.4004
 9199TIP3    H149088   5.104   4.142  13.785  0.2538  0.1583 -0.8922
 9199TIP3    H249089   5.238   4.084  13.824 -0.3245 -0.6877 -0.1473
 9200TIP3   OH249090   5.425   5.788  16.499 -0.3993 -0.6876  0.7470
 9200TIP3    H149091   5.331   5.776  16.484 -0.2287 -2.3812  0.9155
 9200TIP3    H249092   5.458   5.699  16.513  1.1107 -0.0401  1.3791
 9201TIP3   OH249093   6.756   3.757  13.518  0.0635 -0.4572 -0.0900
 9201TIP3    H149094   6.835   3.793  13.560  0.7237 -0.6097 -1.2076
 9201TIP3    H249095   6.692   3.828  13.525 -0.1317 -0.8034  1.9987
 9202TIP3   OH249096   0.083   6.236   3.519  0.3800 -0.4647 -0.2602
 9202TIP3    H149097   0.163   6.281   3.492 -0.1946  0.3414 -0.6353
 9202TIP3    H249098   0.087   6.236   3.615  0.2802  0.6108 -0.2444
 9203TIP3   OH249099   0.391   4.791  15.858  0.0703 -0.5404  0.1808
 9203TIP3    H149100   0.463   4.730  15.879 -0.7178 -1.3645  0.5168
 9203TIP3    H249101   0.317   4.759  15.909 -0.0814  1.3207  1.1555
 9204TIP3   OH249102   6.470   6.361   1.784 -0.4365  0.0099 -0.3078
 9204TIP3    H149103   6.432   6.439   1.744 -0.3692 -1.5649 -3.6526
 9204TIP3    H249104   6.407   6.292   1.766  0.2294 -1.0213  1.2536
 9205TIP3   OH249105   1.425   5.459  16.210  0.9238 -0.2421 -0.4352
 9205TIP3    H149106   1.432   5.543  16.255  2.3391 -0.6634  0.1492
 9205TIP3    H249107   1.331   5.442  16.205  0.7158 -0.0316  2.0998
 9206TIP3   OH249108   4.274   3.572   0.708 -0.4308 -0.0706 -0.3369
 9206TIP3    H149109   4.346   3.571   0.772 -1.5838 -1.3745  0.9821
 9206TIP3    H249110   4.233   3.486   0.716 -0.3049 -0.4420 -3.2321
 9207TIP3   OH249111   3.137   0.481   0.430 -0.4019  0.2430 -0.4940
 9207TIP3    H149112   3.048   0.499   0.399 -0.3463 -0.6553 -1.1778
 9207TIP3    H249113   3.168   0.410   0.375  0.3896 -0.1143  0.3946
 9208TIP3   OH249114   3.234   4.997  12.416 -0.1058 -0.1251 -0.0945
 9208TIP3    H149115   3.299   4.931  12.437 -0.9996 -0.5938  1.2531
 9208TIP3    H249116   3.150   4.952  12.425 -0.6218  0.1677 -2.8650
 9209TIP3   OH249117   0.299   2.252   0.538  0.7657 -0.4590 -0.0415
 9209TIP3    H149118   0.294   2.178   0.478 -0.1873  0.2237 -0.8312
 9209TIP3    H249119   0.384   2.243   0.580  1.2577 -1.2151 -1.1643
 9210TIP3   OH249120   1.578   3.308   2.840  0.5502 -0.0852 -0.0766
 9210TIP3    H149121   1.520   3.267   2.776  0.7789 -0.2732 -0.1641
 9210TIP3    H249122   1.528   3.383   2.872 -0.4631 -1.2681  1.1707
 9211TIP3   OH249123   0.600   6.362  15.316  0.6946 -0.2800 -0.4738
 9211TIP3    H149124   0.575   6.320  15.234  0.4070 -0.6693 -0.1881
 9211TIP3    H249125   0.524   6.414  15.341  0.9408  0.1797 -0.6725
 9212TIP3   OH249126   0.393   5.773   0.216  0.5871  0.1885  0.4075
 9212TIP3    H149127   0.488   5.764   0.207  0.5589 -0.4119  0.6241
 9212TIP3    H249128   0.357   5.711   0.153  0.3506 -0.1720  0.8930
 9213TIP3   OH249129   2.003   6.807   4.551  0.1128 -0.2329 -0.4397
 9213TIP3    H149130   1.969   6.864   4.620  3.2981  2.0437 -0.6242
 9213TIP3    H249131   1.980   6.718   4.579 -0.7947  0.8155  2.2856
 9214TIP3   OH249132   2.285   0.037  12.406  0.3479 -0.2457 -0.2072
 9214TIP3    H149133   2.327   0.009  12.324  1.5460  0.5149  0.1271
 9214TIP3    H249134   2.303  -0.034  12.467  1.5076  0.2545  0.0444
 9215TIP3   OH249135   1.706   2.784  12.530 -0.5282  0.7749  0.1027
 9215TIP3    H149136   1.676   2.834  12.454  0.3976  2.0765  0.5786
 9215TIP3    H249137   1.802   2.791  12.527 -0.3242 -1.5210 -0.1827
 9216TIP3   OH249138   5.365   3.973   1.606 -1.3296 -0.5315 -0.3047
 9216TIP3    H149139   5.323   3.918   1.672 -1.3154 -1.1392 -0.8036
 9216TIP3    H249140   5.382   3.914   1.533  1.9517 -0.6889  0.5314
 9217TIP3   OH249141   0.820   0.643  14.024 -0.0264 -0.3230 -0.0745
 9217TIP3    H149142   0.726   0.649  14.045 -0.0940 -0.8159 -0.2312
 9217TIP3    H249143   0.837   0.718  13.967 -0.5432 -0.7947 -0.8528
 9218TIP3   OH249144   3.577   2.545  11.473  0.3177  0.5962 -0.6005
 9218TIP3    H149145   3.503   2.577  11.524  1.8954  1.6098  1.0988
 9218TIP3    H249146   3.562   2.580  11.385 -1.3414  0.5764 -0.3364
 9219TIP3   OH249147   6.063   0.442  15.365 -0.1684 -0.6983 -0.3984
 9219TIP3    H149148   6.010   0.411  15.438 -0.9790 -1.0608 -1.1416
 9219TIP3    H249149   6.067   0.537  15.377 -0.6268 -0.7149 -0.1135
 9220TIP3   OH249150   5.163   5.922  15.940 -0.2549 -0.2434 -0.5657
 9220TIP3    H149151   5.069   5.928  15.956  0.0563  0.9209  1.0056
 9220TIP3    H249152   5.200   5.999  15.985  1.2393  0.4038 -2.7828
 9221TIP3   OH249153   2.011   5.755   3.906  0.5033 -0.1010  0.3729
 9221TIP3    H149154   1.955   5.777   3.831  0.0952  0.3405  0.8093
 9221TIP3    H249155   2.071   5.688   3.871 -0.7026 -1.0554  0.0694
 9222TIP3   OH249156   5.669   3.296  17.239  0.3513 -0.3732  0.5862
 9222TIP3    H149157   5.683   3.214  17.193 -1.6086 -0.0198 -0.6947
 9222TIP3    H249158   5.719   3.360  17.189 -0.3160 -0.3102 -0.0009
 9223TIP3   OH249159   1.977   2.372   0.940 -0.0276 -0.3431  0.4191
 9223TIP3    H149160   1.962   2.393   1.032 -0.2497  1.2731  0.0429
 9223TIP3    H249161   1.912   2.305   0.919 -1.6992  1.1200  0.8006
 9224TIP3   OH249162   2.861   2.232  14.356  0.1942 -0.5099  0.6681
 9224TIP3    H149163   2.879   2.210  14.264 -0.4100 -0.5233  0.5515
 9224TIP3    H249164   2.932   2.292  14.381  0.0519 -0.0783  0.0345
 9225TIP3   OH249165   6.519   5.612   2.181 -0.4176  0.7524  0.4302
 9225TIP3    H149166   6.607   5.616   2.217 -0.6546  2.2569  0.9232
 9225TIP3    H249167   6.478   5.537   2.223  0.6354  0.0420  0.1825
 9226TIP3   OH249168   5.058   4.804  15.485  1.0991  0.3414 -0.0859
 9226TIP3    H149169   5.032   4.896  15.475  0.7234  0.2183 -0.2536
 9226TIP3    H249170   5.144   4.798  15.443  1.2728  0.6888  0.2177
 9227TIP3   OH249171   5.047   1.259   4.885 -0.3967 -0.1191 -0.1486
 9227TIP3    H149172   5.086   1.346   4.889  0.9599 -0.7548  0.8476
 9227TIP3    H249173   5.100   1.211   4.821 -1.0604 -0.2602 -0.6023
 9228TIP3   OH249174   1.692   3.860   5.239  0.0029  0.3861  0.5489
 9228TIP3    H149175   1.643   3.869   5.158  0.2265 -1.0000  0.2438
 9228TIP3    H249176   1.684   3.946   5.282 -1.1801  0.7225 -0.3230
 9229TIP3   OH249177   6.312   3.311  12.170 -0.8308  0.2610  0.1112
 9229TIP3    H149178   6.219   3.332  12.156 -0.3571  1.7566 -1.0276
 9229TIP3    H249179   6.358   3.393  12.148  1.0237 -1.4410 -2.8027
 9230TIP3   OH249180   5.554   1.890  14.249  0.6469 -0.1372  0.1953
 9230TIP3    H149181   5.563   1.925  14.160  1.8231 -1.1914 -0.1074
 9230TIP3    H249182   5.643   1.888  14.283  0.3100 -0.6602  1.0463
 9231TIP3   OH249183   1.481   6.206   5.033 -0.5762 -0.1014 -0.0759
 9231TIP3    H149184   1.523   6.145   5.094 -0.4089  0.4334  0.3449
 9231TIP3    H249185   1.422   6.258   5.087  0.3966  1.1280 -0.1689
 9232TIP3   OH249186   4.142   2.935   0.334  0.3446 -0.4948  0.6968
 9232TIP3    H149187   4.234   2.962   0.340  0.4338 -0.2911 -1.1305
 9232TIP3    H249188   4.144   2.840   0.344  0.6901 -0.4395  1.1911
 9233TIP3   OH249189   5.178   1.098   4.699  0.3804 -0.0405  0.5024
 9233TIP3    H149190   5.263   1.089   4.742  0.3265 -1.6072  0.3287
 9233TIP3    H249191   5.145   1.008   4.692 -0.2434  0.3153 -1.5105
 9234TIP3   OH249192   4.811   5.569   0.823  0.2203  0.0925  0.4521
 9234TIP3    H149193   4.816   5.475   0.806  1.4429 -0.6126  4.1600
 9234TIP3    H249194   4.774   5.576   0.911 -0.4191  3.1305  0.0208
 9235TIP3   OH249195   4.502   2.826  16.664  0.4751  0.1582 -0.4286
 9235TIP3    H149196   4.529   2.917  16.673  1.9856 -0.2861 -0.3558
 9235TIP3    H249197   4.497   2.811  16.570  3.3936 -0.5744 -0.5065
 9236TIP3   OH249198   6.570   4.693   3.874  0.2461  0.3695 -0.2584
 9236TIP3    H149199   6.636   4.651   3.818  1.2848 -1.3611  2.1955
 9236TIP3    H249200   6.564   4.637   3.951 -1.7539  2.2664  1.0274
 9237TIP3   OH249201   3.485   5.536   4.529 -0.3970 -0.0679  0.6811
 9237TIP3    H149202   3.480   5.473   4.601 -1.1436  0.4155  1.0623
 9237TIP3    H249203   3.486   5.482   4.450 -3.0305 -0.5489  0.9208
 9238TIP3   OH249204   5.159   2.513   6.121  0.5727  1.0574  0.7922
 9238TIP3    H149205   5.166   2.480   6.210  1.7133  0.8379  0.6340
 9238TIP3    H249206   5.094   2.457   6.079  2.1506 -0.7466  0.6549
 9239TIP3   OH249207   3.183   4.779   2.752  0.2464 -1.2032 -0.5660
 9239TIP3    H149208   3.210   4.862   2.712 -1.0105 -0.5483 -0.0789
 9239TIP3    H249209   3.247   4.715   2.720  0.9816 -0.1310 -1.2771
 9240TIP3   OH249210   2.654   1.747   2.553  0.6024 -0.1526  0.1124
 9240TIP3    H149211   2.646   1.655   2.530 -0.5169  0.1708 -0.8138
 9240TIP3    H249212   2.565   1.776   2.570  0.9298  0.7979  0.2683
 9241TIP3   OH249213   2.780   3.745  12.172 -0.3687  0.3574  0.1520
 9241TIP3    H149214   2.685   3.738  12.177 -0.2026 -0.6921  3.1681
 9241TIP3    H249215   2.804   3.787  12.255  2.0682 -3.0773  1.2843
 9242TIP3   OH249216   3.135   0.418   4.596  0.5267 -0.0423 -0.9276
 9242TIP3    H149217   3.213   0.468   4.617  0.8595 -0.5880 -0.8542
 9242TIP3    H249218   3.080   0.425   4.674  1.2273 -1.0428 -0.3332
 9243TIP3   OH249219   0.386   3.061  11.821 -0.3793  0.1713  0.2789
 9243TIP3    H149220   0.325   3.011  11.875  0.0143 -0.5903  0.0346
 9243TIP3    H249221   0.348   3.057  11.733 -0.2458  0.1275  0.2232
 9244TIP3   OH249222   2.362   4.158  15.894 -0.3588 -0.0493 -0.5476
 9244TIP3    H149223   2.309   4.089  15.855  1.4551 -2.0714  0.3925
 9244TIP3    H249224   2.300   4.212  15.943 -1.6957 -1.6101 -0.4901
 9245TIP3   OH249225   3.165   4.665   1.326 -0.6963 -0.0268  0.4861
 9245TIP3    H149226   3.232   4.628   1.268  0.0668  1.1422  0.5814
 9245TIP3    H249227   3.096   4.694   1.267 -1.5304 -2.0133  0.4511
 9246TIP3   OH249228   5.141   0.570   0.389 -0.1656  0.0283 -0.1838
 9246TIP3    H149229   5.187   0.533   0.464  0.3016  1.2861  0.1610
 9246TIP3    H249230   5.095   0.496   0.350 -1.2669 -0.4480  1.9371
 9247TIP3   OH249231   2.193   4.819  11.536  0.0312  0.0404  0.0983
 9247TIP3    H149232   2.273   4.772  11.512 -0.8505 -1.4054 -0.0691
 9247TIP3    H249233   2.133   4.802  11.463 -0.6341  0.6272  0.5002
 9248TIP3   OH249234   1.349   6.091   4.717 -0.2397 -0.2359  0.1267
 9248TIP3    H149235   1.434   6.061   4.685 -0.3435  0.0102 -0.3822
 9248TIP3    H249236   1.369   6.166   4.773 -0.1116 -0.2438  0.0920
 9249TIP3   OH249237   6.123   6.720   5.348 -0.4411  0.5017 -0.3550
 9249TIP3    H149238   6.204   6.762   5.378 -0.2170  0.5964 -1.0721
 9249TIP3    H249239   6.053   6.773   5.385 -0.2125 -0.4770  1.5720
 9250TIP3   OH249240   2.229   6.345   4.260 -0.2262 -0.3065 -0.1587
 9250TIP3    H149241   2.206   6.379   4.173  0.1855  1.7927  0.5206
 9250TIP3    H249242   2.169   6.390   4.320  0.0759 -1.0852  0.7489
 9251TIP3   OH249243   0.468   4.275  16.513 -0.2241 -0.1375  0.3434
 9251TIP3    H149244   0.481   4.363  16.479 -1.9229 -0.4769 -1.2849
 9251TIP3    H249245   0.411   4.286  16.589  0.2916  0.2438  0.6741
 9252TIP3   OH249246   3.969   2.736  14.497  0.5062  0.4195 -0.0922
 9252TIP3    H149247   4.039   2.693  14.545  1.3374 -0.9239 -2.4369
 9252TIP3    H249248   3.892   2.680  14.511  0.3469  0.8605  0.8863
 9253TIP3   OH249249   3.428   4.852   5.625  0.1183 -0.2371  0.5504
 9253TIP3    H149250   3.335   4.852   5.603  0.1268  0.9307  0.4998
 9253TIP3    H249251   3.440   4.772   5.676 -0.5313 -1.3928 -1.0458
 9254TIP3   OH249252   4.015   5.491  15.223 -1.0315 -0.1937 -0.4479
 9254TIP3    H149253   3.942   5.436  15.250 -0.9871 -0.1845 -0.3055
 9254TIP3    H249254   3.992   5.578  15.255 -1.2887 -0.0489 -1.0257
 9255TIP3   OH249255   5.374   3.362  16.035 -0.0773  0.0867 -0.1061
 9255TIP3    H149256   5.338   3.325  16.116  2.0910  1.6177  1.5907
 9255TIP3    H249257   5.300   3.408  15.996 -0.6606  1.0045  2.0120
 9256TIP3   OH249258   0.834   4.012   3.003 -0.2048  0.1006 -0.1140
 9256TIP3    H149259   0.856   4.022   2.911  2.0904  0.8660  0.4947
 9256TIP3    H249260   0.845   4.099   3.041 -1.0163 -0.2263  0.9261
 9257TIP3   OH249261   5.352   2.467   3.914 -0.3316 -0.1779 -0.0918
 9257TIP3    H149262   5.316   2.381   3.935 -1.0871  0.8022  2.9351
 9257TIP3    H249263   5.445   2.461   3.935 -0.5244 -0.0793  0.8379
 9258TIP3   OH249264   4.065   0.853   3.417 -0.2636 -0.1405  0.0775
 9258TIP3    H149265   4.078   0.773   3.366  0.9901  1.3953 -2.0982
 9258TIP3    H249266   3.972   0.852   3.440 -0.8815 -0.9092 -2.2576
 9259TIP3   OH249267   0.990   1.718  12.852 -0.6134 -0.4386 -0.2252
 9259TIP3    H149268   1.080   1.696  12.830  0.8822  0.2687  4.5665
 9259TIP3    H249269   0.976   1.805  12.814  0.6723 -0.6089 -1.0922
 9260TIP3   OH249270   1.517   6.037  13.587  0.0282 -0.1356  0.0357
 9260TIP3    H149271   1.466   6.019  13.509  0.3016 -0.0745 -0.1592
 9260TIP3    H249272   1.602   5.996  13.571 -0.1297 -0.6781  0.5737
 9261TIP3   OH249273   6.607   3.469  17.184 -0.2153 -0.2818  0.3023
 9261TIP3    H149274   6.687   3.429  17.218  1.6416  1.1396 -2.2268
 9261TIP3    H249275   6.536   3.417  17.222  1.9608 -2.8060  1.0550
 9262TIP3   OH249276   0.193   5.653   3.392  0.2606 -0.6426  0.3859
 9262TIP3    H149277   0.212   5.617   3.479  0.7845 -0.5296  0.3189
 9262TIP3    H249278   0.099   5.668   3.393  0.7157  2.3978  2.0978
 9263TIP3   OH249279   1.740   0.422   3.954 -0.7718  0.8958 -0.2603
 9263TIP3    H149280   1.755   0.365   3.879  0.1787 -0.7920  1.1929
 9263TIP3    H249281   1.710   0.505   3.915  0.9635  0.4942 -2.5660
 9264TIP3   OH249282   5.103   2.125  16.799 -0.0947  0.0354  0.0964
 9264TIP3    H149283   5.171   2.152  16.737  0.2387 -0.8367  0.0830
 9264TIP3    H249284   5.143   2.056  16.851 -1.6598 -2.0138 -1.3321
 9265TIP3   OH249285   1.804   4.285  16.085 -0.0620  0.6479  0.1134
 9265TIP3    H149286   1.782   4.230  16.010  2.0925  0.7908 -0.6502
 9265TIP3    H249287   1.881   4.244  16.123 -0.7606  0.9309  1.9119
 9266TIP3   OH249288   2.726   0.258  16.486  0.0402  0.4953  0.0940
 9266TIP3    H149289   2.753   0.172  16.518 -0.9152  0.0445 -0.2690
 9266TIP3    H249290   2.736   0.316  16.562 -0.7485 -0.2500  0.7889
 9267TIP3   OH249291   4.173   6.661   2.294  0.6144 -0.1058  0.1829
 9267TIP3    H149292   4.081   6.660   2.270  0.6635 -1.7995 -0.0087
 9267TIP3    H249293   4.199   6.753   2.288 -1.1576  0.4394  0.6627
 9268TIP3   OH249294   4.493   3.893   1.853 -0.5350  0.5115 -0.7240
 9268TIP3    H149295   4.564   3.957   1.861  0.2317 -0.5077  0.9521
 9268TIP3    H249296   4.461   3.882   1.943 -0.8200 -1.2646 -1.0322
 9269TIP3   OH249297   4.744   4.378  10.563  0.3804  0.3122  0.1795
 9269TIP3    H149298   4.815   4.333  10.519  0.1789 -0.7572  0.9047
 9269TIP3    H249299   4.716   4.447  10.503  1.2205 -0.0416 -0.6087
 9270TIP3   OH249300   1.281   5.564  15.540  0.2942 -0.0973 -0.2344
 9270TIP3    H149301   1.227   5.612  15.603 -0.0120  0.3979 -0.8679
 9270TIP3    H249302   1.237   5.577  15.456  0.5603 -0.9595 -0.5168
 9271TIP3   OH249303   6.682   5.063   1.788  0.0629  0.0183  0.0839
 9271TIP3    H149304   6.745   5.005   1.744  0.4922  0.5922 -0.0552
 9271TIP3    H249305   6.633   5.104   1.717  1.5912  1.8825  0.0855
 9272TIP3   OH249306   4.936   2.497   0.802 -0.1867  0.1587 -0.5416
 9272TIP3    H149307   5.004   2.532   0.860  0.3662  0.0051 -1.0961
 9272TIP3    H249308   4.874   2.570   0.792 -0.3233  0.1665  0.2920
 9273TIP3   OH249309   4.346   1.794   0.289 -0.4620  0.2974  0.1968
 9273TIP3    H149310   4.326   1.730   0.221 -1.4058  1.6666 -0.8405
 9273TIP3    H249311   4.305   1.876   0.258 -0.2319  1.1274  2.0160
 9274TIP3   OH249312   3.379   4.632   1.120  0.1631  0.2815 -0.4886
 9274TIP3    H149313   3.319   4.581   1.066 -0.7094  0.6356  0.1395
 9274TIP3    H249314   3.418   4.568   1.180  1.0451 -0.0906 -1.4447
 9275TIP3   OH249315   3.327   6.555  11.528 -0.4832 -0.3259  0.1071
 9275TIP3    H149316   3.407   6.504  11.544  0.6399  1.4488  0.1890
 9275TIP3    H249317   3.335   6.584  11.437 -0.0243  1.5940  0.7457
 9276TIP3   OH249318   3.752   3.145  13.157 -0.4783  0.3803 -0.2410
 9276TIP3    H149319   3.702   3.223  13.179 -0.5764 -0.1386  1.4393
 9276TIP3    H249320   3.833   3.153  13.207 -0.2006 -0.2573 -0.5821
 9277TIP3   OH249321   5.262   4.785  16.573 -0.4655  0.3577 -0.2002
 9277TIP3    H149322   5.291   4.694  16.572  0.7377  0.7317  0.6786
 9277TIP3    H249323   5.168   4.780  16.552 -0.9732 -1.2862  2.2825
 9278TIP3   OH249324   5.984   0.623  14.640 -0.4290  0.5048 -0.1417
 9278TIP3    H149325   5.915   0.559  14.656 -0.5053  0.8707  1.0618
 9278TIP3    H249326   5.973   0.648  14.549  0.1539 -1.8485 -0.8820
 9279TIP3   OH249327   3.265   4.843  12.981  0.3123  0.0798  0.3144
 9279TIP3    H149328   3.188   4.865  12.927  0.8477  0.6001 -0.2404
 9279TIP3    H249329   3.315   4.782  12.928 -0.4856 -1.4840  1.3115
 9280TIP3   OH249330   3.551   6.361   2.121  0.3992  0.0200 -0.5194
 9280TIP3    H149331   3.501   6.395   2.047  0.7190 -0.2412 -0.8553
 9280TIP3    H249332   3.578   6.273   2.094  0.9310  0.1082 -0.2900
 9281TIP3   OH249333   5.296   1.386   5.131  0.2993 -0.5884 -0.0410
 9281TIP3    H149334   5.288   1.404   5.225  0.5746 -0.9575  0.0557
 9281TIP3    H249335   5.275   1.293   5.123  0.3658 -0.5784 -0.3351
 9282TIP3   OH249336   0.867   1.146   1.200 -0.2682 -0.3874 -0.1355
 9282TIP3    H149337   0.851   1.060   1.240  2.5312 -2.0006 -2.3404
 9282TIP3    H249338   0.780   1.183   1.188 -1.5770 -3.1832  0.3252
 9283TIP3   OH249339   0.349   6.006  13.163  0.1254  0.5458  0.3265
 9283TIP3    H149340   0.292   6.015  13.086 -0.9939 -0.0045  1.0714
 9283TIP3    H249341   0.421   6.068  13.147  1.2448 -1.3722 -2.3024
 9284TIP3   OH249342   4.006   4.000   0.608 -0.2867 -0.1584  0.5486
 9284TIP3    H149343   3.974   4.060   0.540 -0.2151 -0.7259  0.0119
 9284TIP3    H249344   3.928   3.978   0.659 -0.3169  0.3760  0.7321
 9285TIP3   OH249345   4.699   0.269  13.357  0.4141 -0.3516  0.0958
 9285TIP3    H149346   4.710   0.240  13.447  0.8677  0.6072  0.3520
 9285TIP3    H249347   4.695   0.188  13.306 -0.8862 -0.9266  1.0767
 9286TIP3   OH249348   0.358   6.633  12.146 -0.5673  0.4652  0.0350
 9286TIP3    H149349   0.394   6.598  12.064  1.5744  2.5801  0.0329
 9286TIP3    H249350   0.265   6.612  12.141 -0.2411 -0.6219 -2.3271
 9287TIP3   OH249351   3.111   2.212   2.952  0.1597  0.2679  0.3676
 9287TIP3    H149352   3.073   2.188   2.867 -0.0762  1.2882  0.1705
 9287TIP3    H249353   3.148   2.131   2.985 -0.6475 -0.3726 -0.2467
 9288TIP3   OH249354   1.589   0.732  13.728  0.4601  0.3402 -0.5022
 9288TIP3    H149355   1.549   0.762  13.647 -0.4324  0.2710 -0.0962
 9288TIP3    H249356   1.633   0.809  13.764 -1.1647  0.9962  0.1456
 9289TIP3   OH249357   4.403   3.718   4.207  0.2307 -0.2459 -0.4573
 9289TIP3    H149358   4.424   3.629   4.179 -1.4072 -0.0690 -2.3357
 9289TIP3    H249359   4.307   3.723   4.203  0.1556  0.9768  1.6295
 9290TIP3   OH249360   2.703   4.636   4.783  0.2535  0.7714 -0.2384
 9290TIP3    H149361   2.622   4.686   4.774  0.2798  0.7963 -0.3289
 9290TIP3    H249362   2.695   4.596   4.870  0.6740  1.7253  0.2479
 9291TIP3   OH249363   4.534   1.978  16.746 -0.2916  0.0459 -0.0073
 9291TIP3    H149364   4.573   2.024  16.672  1.3071 -1.4285 -0.1123
 9291TIP3    H249365   4.443   1.963  16.720  0.3717 -0.8688 -1.8956
 9292TIP3   OH249366   5.270   6.273  17.067  0.6927  0.2944 -0.2831
 9292TIP3    H149367   5.328   6.348  17.081  0.1586  0.9272 -1.4224
 9292TIP3    H249368   5.260   6.268  16.972 -1.8654  0.7830 -0.0718
 9293TIP3   OH249369   6.802   5.461   4.396  0.3890 -0.3823 -0.3378
 9293TIP3    H149370   6.838   5.534   4.346  1.1318 -1.1527 -0.9417
 9293TIP3    H249371   6.714   5.448   4.359  0.1165  0.4309  0.0148
 9294TIP3   OH249372   0.798   1.613   4.086  0.5579 -0.1305  0.3667
 9294TIP3    H149373   0.824   1.680   4.022  2.1917  0.6210  1.7710
 9294TIP3    H249374   0.881   1.583   4.124 -0.3109 -1.4411  1.2680
 9295TIP3   OH249375   1.345   2.978  14.656  0.5645 -0.2003  0.4493
 9295TIP3    H149376   1.379   2.893  14.684  1.0818  0.1127  0.7975
 9295TIP3    H249377   1.260   2.959  14.618  1.8795 -1.2256 -2.0505
 9296TIP3   OH249378   6.433   5.300   2.605 -0.5777  0.2447  0.6115
 9296TIP3    H149379   6.354   5.273   2.650  0.5526 -1.3021  1.7294
 9296TIP3    H249380   6.485   5.344   2.672  0.5470 -0.9081  0.5168
 9297TIP3   OH249381   4.578   5.284  15.884 -0.3707  0.2943  0.2777
 9297TIP3    H149382   4.619   5.330  15.958 -1.0417  1.6388 -0.1601
 9297TIP3    H249383   4.501   5.243  15.922 -0.1405  0.0991  0.5365
 9298TIP3   OH249384   5.655   0.967   1.113  0.0903  0.1890 -0.3757
 9298TIP3    H149385   5.628   0.911   1.186 -0.4254  0.2896 -0.4822
 9298TIP3    H249386   5.643   1.056   1.146 -2.2937  0.2543 -1.3260
 9299TIP3   OH249387   5.581   5.797  16.267 -0.1953 -0.2617 -0.4141
 9299TIP3    H149388   5.540   5.767  16.348 -2.0736 -1.8048 -1.8857
 9299TIP3    H249389   5.530   5.874  16.241 -0.7983 -0.8811 -1.0960
 9300TIP3   OH249390   0.030   6.266   5.489  0.0784  0.0455  0.2668
 9300TIP3    H149391   0.080   6.315   5.554  2.0399 -0.6823 -0.6730
 9300TIP3    H249392   0.002   6.187   5.536  0.0555  0.3250  0.7214
 9301TIP3   OH249393   1.774   3.826  13.132  0.2815 -0.1631  0.2048
 9301TIP3    H149394   1.738   3.751  13.085  0.2017 -0.2423  0.3927
 9301TIP3    H249395   1.750   3.811  13.224 -0.4273  0.4812  0.1378
 9302TIP3   OH249396   1.831   1.733  11.685  0.4103 -0.3001  0.6854
 9302TIP3    H149397   1.788   1.818  11.677 -0.5689 -1.0036 -2.0160
 9302TIP3    H249398   1.820   1.709  11.777 -0.2231  2.0050  1.2385
 9303TIP3   OH249399   5.015   5.756   2.431 -0.2278  0.1733  0.2711
 9303TIP3    H149400   5.080   5.707   2.480  0.1826  0.8750  0.4355
 9303TIP3    H249401   5.065   5.806   2.367 -0.5518  1.1319  0.7581
 9304TIP3   OH249402   4.498   4.296   0.293 -0.8653  0.0875  0.2279
 9304TIP3    H149403   4.585   4.291   0.253 -0.5742 -0.2091  0.8756
 9304TIP3    H249404   4.443   4.339   0.228 -0.7093 -1.5493 -0.9941
 9305TIP3   OH249405   5.091   3.548  13.889 -0.2245 -0.3794  0.0402
 9305TIP3    H149406   5.126   3.459  13.898 -0.3411 -0.1919  2.6309
 9305TIP3    H249407   5.059   3.571  13.976  0.4722  2.4890 -0.3937
 9306TIP3   OH249408   5.013   0.365  14.570 -0.1315  0.0433 -0.4346
 9306TIP3    H149409   5.028   0.271  14.577 -0.6345 -0.1958 -2.3778
 9306TIP3    H249410   5.082   0.397  14.513  2.2448  1.5065  3.0610
 9307TIP3   OH249411   2.195   5.703   2.879 -0.1234  0.0782 -0.1325
 9307TIP3    H149412   2.119   5.750   2.913 -0.1608  0.6391 -0.9807
 9307TIP3    H249413   2.199   5.623   2.931 -1.8408 -0.3913 -0.6867
 9308TIP3   OH249414   0.080   1.059   4.719  0.8795  0.6684 -0.1290
 9308TIP3    H149415   0.156   1.095   4.765  1.5649  0.2745 -0.9240
 9308TIP3    H249416   0.110   0.974   4.687 -0.5678 -0.4135  1.3191
 9309TIP3   OH249417   0.825   2.605  12.385 -0.4193  0.7370 -0.4418
 9309TIP3    H149418   0.777   2.537  12.431  0.2856  1.6356  1.7361
 9309TIP3    H249419   0.792   2.603  12.296 -2.5441 -0.4458  0.3400
 9310TIP3   OH249420   2.914   3.779  11.795 -0.0642 -0.4800  0.3471
 9310TIP3    H149421   2.999   3.816  11.771  0.3850 -1.7490 -0.0760
 9310TIP3    H249422   2.864   3.853  11.829  0.9635  0.4156 -0.0667
 9311TIP3   OH249423   0.095   6.485   0.719  0.1723 -0.3770 -1.0563
 9311TIP3    H149424   0.095   6.559   0.659  0.7951  0.8737  0.4767
 9311TIP3    H249425   0.187   6.464   0.732  0.0424 -0.6530 -0.5530
 9312TIP3   OH249426   4.174   3.728  16.254 -0.1913 -0.5248 -0.0869
 9312TIP3    H149427   4.247   3.789  16.248  0.9801 -1.9562 -0.7165
 9312TIP3    H249428   4.113   3.756  16.186 -0.6719  1.2279  1.0372
 9313TIP3   OH249429   3.474   6.606  13.765  0.0978  0.3898  0.4877
 9313TIP3    H149430   3.518   6.691  13.757 -0.2894  0.6611  1.2183
 9313TIP3    H249431   3.542   6.547  13.797  0.3321  0.4580  0.1140
 9314TIP3   OH249432   0.456   6.633   0.911  0.0219  0.6801 -0.1476
 9314TIP3    H149433   0.522   6.702   0.901 -1.5397  2.0368 -1.3627
 9314TIP3    H249434   0.387   6.673   0.963 -0.9254  0.0638 -0.9067
 9315TIP3   OH249435   0.643   5.426  12.598 -0.8151 -0.0121  0.0265
 9315TIP3    H149436   0.601   5.438  12.683 -1.0454 -1.8655  0.1891
 9315TIP3    H249437   0.592   5.482  12.538 -0.7172  1.2131  1.0714
 9316TIP3   OH249438   0.528   5.249   6.923 -0.1377  0.2270  0.4617
 9316TIP3    H149439   0.601   5.301   6.957 -1.3108  1.6854  0.7587
 9316TIP3    H249440   0.535   5.257   6.828  0.6075 -0.3818  0.4542
 9317TIP3   OH249441   6.714   2.810  16.285  0.2842  0.3699  0.4368
 9317TIP3    H149442   6.791   2.832  16.234  0.6105 -1.4360  0.1411
 9317TIP3    H249443   6.748   2.765  16.363 -0.5909 -3.0415 -1.0780
 9318TIP3   OH249444   4.886   5.799   3.283  0.0203 -0.4082 -0.0462
 9318TIP3    H149445   4.827   5.811   3.208 -1.1917  3.2033  1.3574
 9318TIP3    H249446   4.973   5.790   3.244 -0.8917 -0.9770 -1.9774
 9319TIP3   OH249447   6.284   2.232  14.451  0.5844  0.2862  0.4227
 9319TIP3    H149448   6.321   2.144  14.462  0.0902  0.2844  2.2874
 9319TIP3    H249449   6.288   2.271  14.539 -4.5402  0.0122  0.9457
 9320TIP3   OH249450   3.560   5.415   5.387 -0.5216  0.5000  0.9469
 9320TIP3    H149451   3.510   5.348   5.432  0.0780 -1.0255 -0.6014
 9320TIP3    H249452   3.535   5.406   5.295  1.8936  0.2778  0.2578
 9321TIP3   OH249453   0.467   0.753   2.578 -0.0524 -0.1268 -0.1621
 9321TIP3    H149454   0.560   0.732   2.579  0.2049  0.9049 -0.9920
 9321TIP3    H249455   0.462   0.837   2.532 -1.1801  0.9167  1.7849
 9322TIP3   OH249456   0.712   3.244   1.939  0.0452 -0.3886  0.7177
 9322TIP3    H149457   0.785   3.297   1.969 -0.6340  0.8329  0.2537
 9322TIP3    H249458   0.662   3.302   1.881 -0.1615 -1.8338 -0.6016
 9323TIP3   OH249459   1.513   6.112   5.308  0.4187 -0.0256 -0.0288
 9323TIP3    H149460   1.428   6.144   5.337  1.0788  1.4888  0.2749
 9323TIP3    H249461   1.568   6.116   5.386  1.1717  0.4340 -0.5806
 9324TIP3   OH249462   4.107   1.349  13.194 -0.1864 -0.5654 -0.0407
 9324TIP3    H149463   4.070   1.268  13.158  0.3679 -1.1286  0.6337
 9324TIP3    H249464   4.064   1.360  13.278 -0.1880 -0.2154 -0.0885
 9325TIP3   OH249465   5.588   1.606   5.580 -0.5884  0.4619  0.7383
 9325TIP3    H149466   5.619   1.632   5.493  0.6511  1.3718  1.4483
 9325TIP3    H249467   5.494   1.590   5.567  0.0286 -1.7636 -1.2865
 9326TIP3   OH249468   5.562   3.712  11.774  0.2931  0.2438 -1.1140
 9326TIP3    H149469   5.574   3.762  11.854 -2.6690  0.7058 -0.8943
 9326TIP3    H249470   5.611   3.631  11.788 -0.5248  0.1481  1.3235
 9327TIP3   OH249471   1.227   3.167  14.941 -0.0471  0.5209  0.6227
 9327TIP3    H149472   1.248   3.074  14.949 -0.9692  0.1152 -1.2126
 9327TIP3    H249473   1.311   3.209  14.921  0.1581 -0.1223  0.0952
 9328TIP3   OH249474   1.784   2.995   2.803  0.3474 -0.1215 -1.0815
 9328TIP3    H149475   1.869   3.003   2.760  1.4843 -0.0536  1.0816
 9328TIP3    H249476   1.783   2.906   2.838  0.5790  0.6276  0.9438
 9329TIP3   OH249477   2.014   2.562  12.188 -0.2010  0.0127 -0.6778
 9329TIP3    H149478   2.034   2.483  12.237 -1.4107 -0.9135 -1.6488
 9329TIP3    H249479   2.079   2.626  12.218  0.8645 -1.3685  0.0267
 9330TIP3   OH249480   6.300   6.431   2.027 -0.1872 -0.6269  0.0789
 9330TIP3    H149481   6.329   6.522   2.033 -1.4760 -0.2266  0.3674
 9330TIP3    H249482   6.307   6.397   2.117  0.3827 -0.8458 -0.0456
 9331TIP3   OH249483   4.900   4.670  12.131  0.0837 -0.5134 -0.1382
 9331TIP3    H149484   4.893   4.584  12.090 -2.9263  0.0642 -0.9242
 9331TIP3    H249485   4.933   4.727  12.061  0.4224 -0.6862 -0.1182
 9332TIP3   OH249486   4.608   0.948   2.158  0.3682  0.0014  0.7859
 9332TIP3    H149487   4.564   0.898   2.227  0.1954  0.7292  1.2126
 9332TIP3    H249488   4.588   1.040   2.179 -0.9253  0.1817 -1.0717
 9333TIP3   OH249489   5.422   4.554   5.651 -0.3464  0.1446  0.0401
 9333TIP3    H149490   5.463   4.639   5.668 -0.1047  0.0335  0.0037
 9333TIP3    H249491   5.491   4.490   5.666 -1.2594 -0.2726  2.9364
 9334TIP3   OH249492   4.475   4.522  14.157  0.1269  0.1015 -0.2472
 9334TIP3    H149493   4.474   4.561  14.070  0.5655  1.3197  0.2853
 9334TIP3    H249494   4.556   4.553  14.196  0.2705 -0.9964  0.3581
 9335TIP3   OH249495   2.289   1.986   4.035 -0.1741 -0.5574  0.0330
 9335TIP3    H149496   2.314   1.960   3.946  1.9599 -0.2269  0.5207
 9335TIP3    H249497   2.194   1.971   4.037 -0.7765  2.1533 -3.2129
 9336TIP3   OH249498   3.530   5.343  13.415  0.0556 -0.0434 -0.2689
 9336TIP3    H149499   3.437   5.351  13.394  0.3102  0.6542 -1.1442
 9336TIP3    H249500   3.534   5.267  13.474 -1.3000  1.0398  1.2879
 9337TIP3   OH249501   3.368   0.957  11.559 -0.6065  0.0520 -0.7319
 9337TIP3    H149502   3.338   1.006  11.635 -0.8275  0.0864 -0.8392
 9337TIP3    H249503   3.373   0.866  11.590 -0.2691  0.1317 -0.5538
 9338TIP3   OH249504   1.777   6.682  11.025 -0.2785  0.6650 -0.2528
 9338TIP3    H149505   1.787   6.588  11.011  0.2325  0.7121 -0.2394
 9338TIP3    H249506   1.853   6.720  10.981 -0.8234  1.1186 -0.8137
 9339TIP3   OH249507   6.075   5.078   2.531  0.1011  0.2693  0.0516
 9339TIP3    H149508   6.109   5.133   2.601  0.1277 -0.6327  0.7633
 9339TIP3    H249509   6.081   4.989   2.566 -0.1210 -0.1675 -1.0020
 9340TIP3   OH249510   5.899   4.316  15.390 -0.3908 -0.0732  0.1102
 9340TIP3    H149511   5.841   4.296  15.316 -0.1885  2.6829 -0.8348
 9340TIP3    H249512   5.853   4.280  15.466 -2.3367  0.2007 -0.9046
 9341TIP3   OH249513   6.182   4.992  11.128 -0.6788 -0.1543 -0.2109
 9341TIP3    H149514   6.275   5.002  11.105 -0.5125 -0.7028  0.1816
 9341TIP3    H249515   6.184   4.955  11.216 -1.2044 -3.0973 -1.3682
 9342TIP3   OH249516   1.638   5.534  16.868 -0.1616 -0.4020 -0.2721
 9342TIP3    H149517   1.655   5.490  16.952 -2.1641 -1.4673 -0.3763
 9342TIP3    H249518   1.615   5.462  16.808  0.1053  0.4590 -1.4179
 9343TIP3   OH249519   5.683   1.055   3.406  0.1379 -0.0643  0.4308
 9343TIP3    H149520   5.762   1.095   3.444 -0.1442  0.2435  0.6982
 9343TIP3    H249521   5.689   1.074   3.313 -1.5058  3.2777  0.9184
 9344TIP3   OH249522   2.749   1.578  11.814 -0.5037 -0.2024  0.3315
 9344TIP3    H149523   2.768   1.499  11.864 -0.3847 -0.8438 -0.7095
 9344TIP3    H249524   2.679   1.552  11.754 -1.3471  0.8332  0.8432
 9345TIP3   OH249525   1.474   0.772   6.285 -0.0314  1.0005 -0.4979
 9345TIP3    H149526   1.455   0.720   6.362 -1.9863  2.4367  0.0360
 9345TIP3    H249527   1.457   0.714   6.211  0.8480 -0.0584  0.1216
 9346TIP3   OH249528   1.037   2.719  16.677 -0.1666 -0.2444 -0.3760
 9346TIP3    H149529   0.980   2.691  16.606  0.3922 -1.5845 -0.3100
 9346TIP3    H249530   1.122   2.733  16.635 -0.3271  0.8804 -0.3208
 9347TIP3   OH249531   4.840   6.439  16.240  0.3904  0.0476 -0.2460
 9347TIP3    H149532   4.771   6.481  16.188  0.7856  0.0630 -0.7633
 9347TIP3    H249533   4.904   6.508  16.255  0.0303  0.1783  0.7190
 9348TIP3   OH249534   4.457   4.815   1.857  0.0230  0.1824  0.1592
 9348TIP3    H149535   4.549   4.804   1.880  0.0806 -1.6717 -0.9010
 9348TIP3    H249536   4.413   4.827   1.942  1.0318 -0.4189  0.7781
 9349TIP3   OH249537   2.146   0.679  12.120  0.2834 -0.0034  0.5493
 9349TIP3    H149538   2.066   0.733  12.125  0.7120  0.7542 -0.6790
 9349TIP3    H249539   2.149   0.649  12.030  1.1715 -0.3777  0.7026
 9350TIP3   OH249540   2.534   4.665   3.661 -0.0667 -0.2838 -0.0445
 9350TIP3    H149541   2.602   4.719   3.622  1.0972 -3.0784 -2.0105
 9350TIP3    H249542   2.508   4.604   3.592 -0.9461 -2.6181  2.2588
 9351TIP3   OH249543   5.700   5.853  14.881  0.3382  0.0969 -0.0786
 9351TIP3    H149544   5.782   5.875  14.925  0.8399 -0.1690 -0.8840
 9351TIP3    H249545   5.681   5.928  14.825  1.7171 -1.1658 -2.3388
 9352TIP3   OH249546   2.710   2.118  12.222 -0.1263  0.1678  0.1124
 9352TIP3    H149547   2.700   2.188  12.286 -0.3989  1.2043 -1.0371
 9352TIP3    H249548   2.639   2.057  12.242 -0.7163  0.9000  0.2754
 9353TIP3   OH249549   2.261   6.549   2.387 -0.1129  0.4698  0.2669
 9353TIP3    H149550   2.343   6.599   2.388 -0.4527  1.0891 -1.7702
 9353TIP3    H249551   2.289   6.458   2.396  0.8552  0.6169 -1.0960
 9354TIP3   OH249552   3.736   6.279   4.711  0.5945  0.3254  0.1912
 9354TIP3    H149553   3.689   6.315   4.787 -0.3954  0.6930 -0.5815
 9354TIP3    H249554   3.735   6.184   4.725  1.5888  0.4661  1.3055
 9355TIP3   OH249555   5.946   0.052  13.972  0.2029  0.7003  0.0969
 9355TIP3    H149556   5.942   0.138  14.014 -0.0971  0.2835  0.9549
 9355TIP3    H249557   5.933  -0.010  14.045 -0.4563 -0.0334 -0.6339
 9356TIP3   OH249558   5.955   4.166   3.451  0.2598  0.2279  0.0499
 9356TIP3    H149559   5.920   4.255   3.451  0.5924  0.3601 -0.4406
 9356TIP3    H249560   6.034   4.171   3.504 -1.5696 -0.5286  2.9858
 9357TIP3   OH249561   2.179   5.435  16.285 -0.3443 -0.0200  0.5278
 9357TIP3    H149562   2.252   5.457  16.227 -0.6994  0.0754  0.1130
 9357TIP3    H249563   2.220   5.405  16.366  0.1765 -1.0851 -0.1163
 9358TIP3   OH249564   4.562   6.611  14.962 -0.5119 -0.2790 -1.1943
 9358TIP3    H149565   4.624   6.606  14.889  0.4733  3.3274 -0.6603
 9358TIP3    H249566   4.487   6.659  14.926 -0.1040  1.3311  0.0694
 9359TIP3   OH249567   4.079   2.218  11.763 -0.6295  0.0710 -0.2794
 9359TIP3    H149568   4.120   2.136  11.790 -0.1912  0.5176  0.4351
 9359TIP3    H249569   4.126   2.285  11.812 -0.7754  0.7796 -1.0934
 9360TIP3   OH249570   4.485   5.128   2.511  0.1515  0.1680  0.2266
 9360TIP3    H149571   4.481   5.220   2.485  2.4041  0.5608  1.1405
 9360TIP3    H249572   4.421   5.120   2.582 -1.6012  0.4963 -1.2703
 9361TIP3   OH249573   5.188   1.246   1.847  0.3612 -0.3721  0.5680
 9361TIP3    H149574   5.138   1.257   1.928 -0.7526  0.7844 -0.2489
 9361TIP3    H249575   5.159   1.319   1.792  0.0298 -1.9581 -1.4100
 9362TIP3   OH249576   3.737   2.864   3.702 -0.1599 -0.3253 -0.0608
 9362TIP3    H149577   3.783   2.946   3.685 -1.8713  0.1311 -2.7671
 9362TIP3    H249578   3.706   2.872   3.792 -0.1090  1.8890 -0.2194
 9363TIP3   OH249579   5.135   0.898  11.530 -0.1534 -0.5391  0.3330
 9363TIP3    H149580   5.124   0.807  11.501 -1.1249 -0.3973  0.2444
 9363TIP3    H249581   5.181   0.940  11.458  1.0703 -1.1616  0.7377
 9364TIP3   OH249582   5.852   0.652  12.063  0.1126 -0.3718 -0.0924
 9364TIP3    H149583   5.871   0.560  12.083 -0.2515 -0.3378  0.4340
 9364TIP3    H249584   5.759   0.652  12.038 -0.3033  0.0749  1.3928
 9365TIP3   OH249585   4.953   1.096   3.117  0.3490  0.2991  0.0419
 9365TIP3    H149586   4.967   1.190   3.119 -0.4704  0.4580 -1.1043
 9365TIP3    H249587   4.954   1.069   3.209  3.2123  1.0155  0.2427
 9366TIP3   OH249588   1.601   3.819  13.334 -0.0320 -0.2029 -0.2774
 9366TIP3    H149589   1.649   3.870  13.400  0.1812  0.8286 -1.2137
 9366TIP3    H249590   1.593   3.731  13.372  0.4970  0.2595  0.9154
 9367TIP3   OH249591   1.949   3.506   5.776 -0.2764 -0.5321  0.3269
 9367TIP3    H149592   2.040   3.495   5.749 -0.6575 -1.8738 -0.4986
 9367TIP3    H249593   1.954   3.527   5.869  0.8491 -1.5922  0.5216
 9368TIP3   OH249594   6.792   2.725  13.615 -0.8756  0.1155  0.1851
 9368TIP3    H149595   6.882   2.735  13.586 -1.0748  1.0506 -0.1238
 9368TIP3    H249596   6.740   2.722  13.535 -0.8437 -3.7307  0.1952
 9369TIP3   OH249597   5.621   5.300   4.267  0.3490 -0.3295 -0.0187
 9369TIP3    H149598   5.548   5.316   4.207  0.0862 -1.1345  0.0749
 9369TIP3    H249599   5.637   5.384   4.309  0.8855  0.3741 -1.6011
 9370TIP3   OH249600   5.980   1.302   5.212  0.2852 -0.4547  0.0890
 9370TIP3    H149601   6.051   1.298   5.276 -0.4400  1.1553  1.0413
 9370TIP3    H249602   5.907   1.340   5.260 -1.0760 -1.6180 -1.0210
 9371TIP3   OH249603   0.263   5.873   0.425  0.6418 -0.1348 -0.2207
 9371TIP3    H149604   0.273   5.824   0.344  1.0826 -0.7297  0.1877
 9371TIP3    H249605   0.180   5.919   0.416 -1.1050 -3.0456  0.4747
 9372TIP3   OH249606   3.298   6.151  14.546  0.5848 -0.3112  0.7342
 9372TIP3    H149607   3.304   6.090  14.620 -2.2595 -2.7278 -0.9472
 9372TIP3    H249608   3.226   6.118  14.493  0.6158  3.1094 -1.5913
 9373TIP3   OH249609   3.405   5.667  16.311 -0.2456  0.5371  0.0579
 9373TIP3    H149610   3.489   5.624  16.329 -0.9716 -0.3621  1.3823
 9373TIP3    H249611   3.423   5.760  16.326  0.5340  0.3655  0.2476
 9374TIP3   OH249612   3.941   0.988  14.341 -0.3468  0.0264  0.1923
 9374TIP3    H149613   3.942   0.893  14.337  1.8386  0.0797 -1.4537
 9374TIP3    H249614   3.881   1.015  14.271 -1.2996 -0.1368  0.9395
 9375TIP3   OH249615   1.785   3.465  12.587  0.3607  0.2714 -0.2687
 9375TIP3    H149616   1.708   3.521  12.576  0.5257  0.5265 -0.1453
 9375TIP3    H249617   1.825   3.462  12.500 -1.2225 -1.9932 -0.9484
 9376TIP3   OH249618   4.583   4.301  13.609 -0.2429  0.1504 -0.0885
 9376TIP3    H149619   4.582   4.396  13.607  0.2473  0.1785  0.5637
 9376TIP3    H249620   4.602   4.274  13.519  0.1194  0.6834 -0.1716
 9377TIP3   OH249621   2.204   0.339  11.899  0.0165  0.1120 -0.7061
 9377TIP3    H149622   2.213   0.308  11.990  0.8470  1.2002 -0.4054
 9377TIP3    H249623   2.130   0.289  11.864  0.2929 -1.0108  0.2706
 9378TIP3   OH249624   0.463   1.612  16.709  0.0215 -0.2144 -0.2847
 9378TIP3    H149625   0.444   1.553  16.782  0.2371  0.2856  0.1759
 9378TIP3    H249626   0.388   1.671  16.706  0.3523  0.2220 -0.0066
 9379TIP3   OH249627   6.334   4.871  15.050 -0.7498  0.6254  0.0261
 9379TIP3    H149628   6.430   4.872  15.043 -0.7988  0.4966 -0.6415
 9379TIP3    H249629   6.318   4.852  15.143 -0.1246 -2.1214 -0.3631
 9380TIP3   OH249630   1.163   0.307   1.520 -0.4541  0.0858  0.2843
 9380TIP3    H149631   1.172   0.389   1.472  0.0319 -0.6590 -0.9272
 9380TIP3    H249632   1.253   0.279   1.537 -0.6201  0.7934  2.4344
 9381TIP3   OH249633   4.700   0.709   3.902  0.3905  0.0660 -0.0395
 9381TIP3    H149634   4.750   0.628   3.890 -1.7085 -1.1679 -0.7129
 9381TIP3    H249635   4.703   0.725   3.996 -0.1665 -1.4695  0.2563
 9382TIP3   OH249636   1.709   6.272  13.491  0.2037  0.0616  0.1177
 9382TIP3    H149637   1.653   6.223  13.551 -1.6952  3.2401  1.0685
 9382TIP3    H249638   1.761   6.330  13.547  0.6262  0.9185 -1.1158
 9383TIP3   OH249639   2.626   6.371  16.659 -0.4735  0.6289 -0.2495
 9383TIP3    H149640   2.615   6.335  16.747  2.7731  0.5611  0.1804
 9383TIP3    H249641   2.577   6.312  16.602 -0.3235 -0.8938  1.1715
 9384TIP3   OH249642   4.536   4.363   3.657  0.3851 -0.4550 -0.0878
 9384TIP3    H149643   4.582   4.293   3.702  1.1654  0.0352 -0.1019
 9384TIP3    H249644   4.444   4.350   3.678  0.6138 -0.9870  0.5887
 9385TIP3   OH249645   0.504   0.979  14.452  0.1812 -0.7910 -0.2248
 9385TIP3    H149646   0.484   0.953  14.542  0.6261 -0.8325 -0.1381
 9385TIP3    H249647   0.570   1.048  14.460 -0.9830  0.3701 -0.4601
 9386TIP3   OH249648   3.427   4.965  12.173  0.6506  0.5487 -0.1126
 9386TIP3    H149649   3.430   5.031  12.242 -0.5111  1.3415 -0.8046
 9386TIP3    H249650   3.438   5.015  12.092 -2.8919  0.2777 -0.8387
 9387TIP3   OH249651   0.685   5.716  12.497 -0.2230  0.0432 -0.5263
 9387TIP3    H149652   0.696   5.773  12.421 -0.3284  0.6567 -0.0855
 9387TIP3    H249653   0.750   5.647  12.485  1.0129  1.1412 -0.2575
 9388TIP3   OH249654   5.245   6.019  16.826 -0.2937 -0.0132 -0.7272
 9388TIP3    H149655   5.302   6.017  16.750 -0.0237 -2.8994 -0.5114
 9388TIP3    H249656   5.183   5.947  16.812 -1.2090  0.3885  1.0364
 9389TIP3   OH249657   2.707   3.685  11.414  0.1537 -0.3216 -0.1221
 9389TIP3    H149658   2.611   3.689  11.409  0.2383  2.1915 -0.2072
 9389TIP3    H249659   2.726   3.679  11.507 -0.0743 -1.5748 -0.1357
 9390TIP3   OH249660   0.823   2.641  14.198 -0.2628  0.5307  0.1595
 9390TIP3    H149661   0.822   2.685  14.113  1.8334  0.8107  0.2342
 9390TIP3    H249662   0.872   2.560  14.183 -2.4335 -0.8714  0.4648
 9391TIP3   OH249663   5.400   5.567  14.775 -0.4139 -0.0026 -0.3589
 9391TIP3    H149664   5.445   5.631  14.720 -2.1033  0.2202 -1.5439
 9391TIP3    H249665   5.420   5.482  14.735 -1.3510  0.1311 -1.1529
 9392TIP3   OH249666   1.565   2.146  15.828  0.1150 -0.4759  0.1166
 9392TIP3    H149667   1.539   2.128  15.738  0.3296 -2.2310  0.3959
 9392TIP3    H249668   1.653   2.183  15.821  0.7593 -2.0615 -0.3088
 9393TIP3   OH249669   0.309   3.607   0.014  0.7919  0.4848 -0.2824
 9393TIP3    H149670   0.225   3.651   0.022  0.8497  0.9652 -2.0395
 9393TIP3    H249671   0.338   3.593   0.104 -0.4920  1.5998  0.3169
 9394TIP3   OH249672   6.737   6.459   3.081  0.4186  0.2745 -0.6418
 9394TIP3    H149673   6.805   6.495   3.138 -0.7500  1.6387 -0.0603
 9394TIP3    H249674   6.672   6.529   3.074 -0.9328 -0.9946 -1.1756
 9395TIP3   OH249675   1.907   0.405   4.757  0.3581 -0.0549  0.2748
 9395TIP3    H149676   1.934   0.426   4.846 -0.6476  0.3900  0.4828
 9395TIP3    H249677   1.815   0.433   4.752  0.4656  0.1212 -0.9598
 9396TIP3   OH249678   2.214   5.159  16.201 -0.6944  0.0917  0.2249
 9396TIP3    H149679   2.281   5.126  16.141 -1.7298  0.5377 -1.2040
 9396TIP3    H249680   2.239   5.250  16.218 -1.2596  0.4402 -0.7845
 9397TIP3   OH249681   0.616   4.320  14.863 -0.4531  0.0608 -0.4531
 9397TIP3    H149682   0.657   4.367  14.935  1.5980 -1.8475 -0.3387
 9397TIP3    H249683   0.544   4.272  14.904  0.1546 -0.3182  0.1777
 9398TIP3   OH249684   3.454   2.518   5.573 -0.5462  0.2215  0.4745
 9398TIP3    H149685   3.367   2.480   5.579 -0.9834  1.0113 -0.8997
 9398TIP3    H249686   3.463   2.547   5.482  1.6602 -1.0739  0.2466
 9399TIP3   OH249687   4.658   0.178   5.010 -0.4394  0.2086  0.6116
 9399TIP3    H149688   4.704   0.240   5.066 -0.1343  0.4919  0.0601
 9399TIP3    H249689   4.680   0.092   5.044  1.4214  0.2951 -0.3287
 9400TIP3   OH249690   0.789   0.390   1.446 -0.0775  0.0611 -0.3598
 9400TIP3    H149691   0.717   0.357   1.393  0.3339  2.1145 -2.2433
 9400TIP3    H249692   0.830   0.311   1.481 -1.9650 -1.2126 -0.9430
 9401TIP3   OH249693   6.339   2.419  12.438 -0.5101 -0.0849  0.4026
 9401TIP3    H149694   6.426   2.406  12.477 -0.5255  1.0370  0.7947
 9401TIP3    H249695   6.296   2.334  12.448  0.6344 -0.7336 -0.0255
 9402TIP3   OH249696   3.260   2.558  13.519 -0.1437  0.2244 -0.3819
 9402TIP3    H149697   3.347   2.593  13.539 -1.3357  1.7718  2.3485
 9402TIP3    H249698   3.224   2.535  13.604 -1.8498 -1.8392 -1.6179
 9403TIP3   OH249699   3.191   5.799  14.680 -0.4593  0.4579  0.1616
 9403TIP3    H149700   3.138   5.872  14.649  1.2598  0.8596 -1.9604
 9403TIP3    H249701   3.279   5.835  14.688 -0.4862 -0.1157  3.9178
 9404TIP3   OH249702   2.145   1.673  13.023  0.3693 -0.8094 -0.5555
 9404TIP3    H149703   2.184   1.676  13.110  0.2503  0.5315 -0.5365
 9404TIP3    H249704   2.220   1.672  12.963  0.4822  1.3700 -0.5065
 9405TIP3   OH249705   5.708   0.731  14.592  0.5499  0.0549 -0.0248
 9405TIP3    H149706   5.747   0.692  14.670 -0.4266 -1.9432 -0.5096
 9405TIP3    H249707   5.626   0.768  14.623 -0.7278 -2.3661 -0.4222
 9406TIP3   OH249708   4.017   2.448   5.008 -0.0112 -0.2246  0.1380
 9406TIP3    H149709   3.974   2.462   5.092 -0.6405  1.0304 -0.3710
 9406TIP3    H249710   3.945   2.434   4.946  0.3143  1.2511 -0.6013
 9407TIP3   OH249711   2.016   6.788  13.415  0.2823 -0.0717  0.5687
 9407TIP3    H149712   1.994   6.876  13.385  0.7694  0.0735  0.6445
 9407TIP3    H249713   1.937   6.737  13.398 -1.0463  1.0369  3.2100
 9408TIP3   OH249714   5.923   5.245  11.671  0.4399 -0.2669  0.0112
 9408TIP3    H149715   5.895   5.290  11.750  0.7211  0.8692 -0.5358
 9408TIP3    H249716   5.948   5.157  11.702  1.1697  0.3683  1.2759
 9409TIP3   OH249717   2.672   0.446  15.355 -0.4762  0.4542 -0.6158
 9409TIP3    H149718   2.694   0.406  15.439  0.6024  1.7680 -0.2580
 9409TIP3    H249719   2.739   0.415  15.295 -1.9088 -1.4300 -1.3184
 9410TIP3   OH249720   3.755   4.533   2.310  0.6782 -0.2754 -0.0988
 9410TIP3    H149721   3.827   4.473   2.329  0.6462 -0.2656  0.0510
 9410TIP3    H249722   3.748   4.589   2.387  1.3630  0.5794 -0.6558
 9411TIP3   OH249723   5.630   5.620  14.262 -0.2184  0.0131 -0.1668
 9411TIP3    H149724   5.590   5.536  14.285 -0.7586  0.0668 -0.8631
 9411TIP3    H249725   5.574   5.654  14.192  0.2490  0.7516 -0.1866
 9412TIP3   OH249726   2.203   5.537  16.553  0.2217  0.4078  0.4333
 9412TIP3    H149727   2.203   5.617  16.605  0.3644 -0.3405  1.6008
 9412TIP3    H249728   2.294   5.526  16.524 -0.2347  1.8990 -1.6808
 9413TIP3   OH249729   4.316   2.230  14.669  0.3522 -0.0154 -0.6618
 9413TIP3    H149730   4.326   2.275  14.584  1.0001  0.3227 -0.4144
 9413TIP3    H249731   4.343   2.140  14.652  1.7192  0.3571 -0.5254
 9414TIP3   OH249732   6.685   0.146  13.602 -0.3332  0.4545 -0.0811
 9414TIP3    H149733   6.710   0.117  13.514  0.1513  0.1218  0.1619
 9414TIP3    H249734   6.590   0.158  13.597 -0.4601 -0.5853 -0.3677
 9415TIP3   OH249735   0.105   3.144  14.531  0.1364 -0.4133 -0.1266
 9415TIP3    H149736   0.125   3.051  14.536  1.1042 -0.1394  2.0733
 9415TIP3    H249737   0.176   3.182  14.480 -0.0374 -0.8282 -0.6718
 9416TIP3   OH249738   4.456   5.380  10.898 -0.0055  0.6891 -0.5025
 9416TIP3    H149739   4.378   5.331  10.871  0.0968  1.0201 -1.4224
 9416TIP3    H249740   4.513   5.378  10.821  2.3179 -2.3723  1.2262
 9417TIP3   OH249741   5.682   6.337  11.744 -0.0995  0.6578  0.4771
 9417TIP3    H149742   5.647   6.343  11.833 -0.1848 -0.2725  0.5108
 9417TIP3    H249743   5.764   6.289  11.754 -1.5390 -2.0808 -0.3065
 9418TIP3   OH249744   5.207   3.727   3.421 -0.0061  0.1630  0.0441
 9418TIP3    H149745   5.177   3.732   3.512  2.9975  0.0712  1.1114
 9418TIP3    H249746   5.271   3.798   3.414  1.2053 -1.0486 -1.4152
 9419TIP3   OH249747   2.061   1.586  13.301 -0.7758  0.5598  0.2182
 9419TIP3    H149748   2.079   1.574  13.394 -0.3096  1.8282  0.3060
 9419TIP3    H249749   2.029   1.501  13.271 -1.2902  0.2484  1.6183
 9420TIP3   OH249750   4.610   5.579  13.362  0.0424  0.1840  0.1156
 9420TIP3    H149751   4.701   5.596  13.337  0.7128 -1.7122  1.0990
 9420TIP3    H249752   4.612   5.490  13.398 -1.4974  1.4312  3.5129
 9421TIP3   OH249753   2.522   4.011  15.704  0.1118  0.3133 -0.9654
 9421TIP3    H149754   2.486   4.078  15.761 -0.3373  1.2652 -2.3597
 9421TIP3    H249755   2.548   4.058  15.624  2.1176 -0.7478 -0.9725
 9422TIP3   OH249756   5.187   5.702  11.647 -0.2774  0.1094  0.2054
 9422TIP3    H149757   5.222   5.736  11.729  0.1334  1.2699 -0.4451
 9422TIP3    H249758   5.258   5.650  11.610 -0.7143 -1.0296  0.9261
 9423TIP3   OH249759   1.225   1.310   5.864 -0.4996  0.0884 -0.4229
 9423TIP3    H149760   1.155   1.304   5.798  0.6016  2.4304 -1.8835
 9423TIP3    H249761   1.260   1.222   5.869  0.4194  0.1273 -4.2175
 9424TIP3   OH249762   4.768   1.166   6.529  0.1453  0.0924 -0.0928
 9424TIP3    H149763   4.733   1.143   6.443 -1.1057 -0.1971  0.4805
 9424TIP3    H249764   4.820   1.090   6.556  0.8168  0.3214 -0.7371
 9425TIP3   OH249765   4.420   1.076  12.455  0.6673  0.1656  0.5106
 9425TIP3    H149766   4.327   1.056  12.464  0.2133  3.0079  2.5555
 9425TIP3    H249767   4.428   1.112  12.366 -0.6263  1.9814  1.0922
 9426TIP3   OH249768   2.759   4.295  15.879  0.1696  0.3890 -0.0999
 9426TIP3    H149769   2.808   4.222  15.918  1.4766  2.0777  1.4813
 9426TIP3    H249770   2.674   4.292  15.923 -0.0808 -0.6746 -0.6372
 9427TIP3   OH249771   5.067   2.837  16.594  0.0012 -0.1683  0.2116
 9427TIP3    H149772   5.061   2.907  16.529 -1.9614  0.0982  0.6446
 9427TIP3    H249773   5.055   2.756  16.543 -1.6189  0.0437  0.2532
 9428TIP3   OH249774   1.851   3.068  16.133  0.3291 -0.3316  0.9374
 9428TIP3    H149775   1.818   2.983  16.104  2.2993 -0.6832 -0.4249
 9428TIP3    H249776   1.925   3.047  16.189  0.9665  0.4715  0.4141
 9429TIP3   OH249777   6.748   0.485   4.998 -0.2135 -0.4176  0.0168
 9429TIP3    H149778   6.798   0.503   5.077  0.5316  0.1524 -0.5810
 9429TIP3    H249779   6.725   0.572   4.964  1.0117 -0.6223 -1.3672
 9430TIP3   OH249780   3.378   3.932  10.645  0.1318  0.7052  0.4772
 9430TIP3    H149781   3.463   3.975  10.633  0.5263  0.7840  3.0733
 9430TIP3    H249782   3.388   3.846  10.604  0.8935  1.3631 -0.7287
 9431TIP3   OH249783   1.098   5.281   0.552  0.0167  0.9566 -0.1920
 9431TIP3    H149784   1.142   5.258   0.470 -0.9207  1.7203 -0.9198
 9431TIP3    H249785   1.165   5.326   0.603  0.7964 -0.1057 -0.2585
 9432TIP3   OH249786   2.662   2.125  16.772  0.1222 -0.5851 -0.1063
 9432TIP3    H149787   2.712   2.172  16.838  1.0718 -0.9109 -0.5775
 9432TIP3    H249788   2.696   2.035  16.776 -1.9514 -1.3413  1.0593
 9433TIP3   OH249789   0.969   5.209  13.021  0.0585  0.7813  0.5970
 9433TIP3    H149790   0.980   5.163  12.938  0.6685  0.1459  1.0197
 9433TIP3    H249791   0.891   5.169  13.061 -0.0451  0.8650  0.4792
 9434TIP3   OH249792   2.435   0.074  11.024  0.6739 -0.1573 -0.1524
 9434TIP3    H149793   2.436   0.006  10.956  1.7025  1.1254 -1.4493
 9434TIP3    H249794   2.420   0.155  10.976 -1.0577  0.4923  1.4581
 9435TIP3   OH249795   4.764   5.517  15.833 -0.1950  0.3166 -0.1826
 9435TIP3    H149796   4.827   5.454  15.868 -0.6832 -0.4396 -0.6609
 9435TIP3    H249797   4.703   5.532  15.906 -0.9304 -0.8886 -0.5451
 9436TIP3   OH249798   6.090   6.643  16.503 -0.2589 -0.2723  0.5820
 9436TIP3    H149799   6.085   6.575  16.570  0.9588 -0.8071  0.1561
 9436TIP3    H249800   6.176   6.630  16.462 -1.3588 -0.5884 -1.7327
 9437TIP3   OH249801   0.674   4.033  17.156  0.3099 -0.2404  0.1085
 9437TIP3    H149802   0.698   3.967  17.221  1.8802  1.5188  1.4073
 9437TIP3    H249803   0.622   3.986  17.091  0.1535 -2.4187  1.7463
 9438TIP3   OH249804   1.122   6.076   1.295  0.5869  0.0721  0.0270
 9438TIP3    H149805   1.134   6.130   1.216 -0.5983  0.1213 -0.1193
 9438TIP3    H249806   1.173   6.122   1.362  2.2482 -0.3940 -0.8913
 9439TIP3   OH249807   0.845   0.089   1.494  0.5954 -1.3035 -0.1199
 9439TIP3    H149808   0.766   0.036   1.503  0.3743 -1.0562 -0.5900
 9439TIP3    H249809   0.905   0.034   1.444  1.0974 -1.8931  1.1148
 9440TIP3   OH249810   3.043   6.523   0.321 -0.0454 -0.3972 -0.1230
 9440TIP3    H149811   2.996   6.486   0.246  1.4995  1.3762 -2.0080
 9440TIP3    H249812   3.013   6.613   0.326  0.7688 -0.1620  0.6247
 9441TIP3   OH249813   2.484   3.325   2.272 -0.4525  0.2412 -0.2284
 9441TIP3    H149814   2.561   3.355   2.222  0.7581 -0.2928  1.2765
 9441TIP3    H249815   2.471   3.392   2.339  0.1588 -0.8378  0.9921
 9442TIP3   OH249816   2.169   2.451  16.108 -0.0399 -0.3186 -0.1680
 9442TIP3    H149817   2.091   2.403  16.134 -0.8654  1.1726  0.1447
 9442TIP3    H249818   2.146   2.492  16.025  0.1619  0.7102  0.2805
 9443TIP3   OH249819   2.709   1.378   0.139 -0.7037 -0.0292 -0.5422
 9443TIP3    H149820   2.634   1.373   0.199  1.3934  2.1003  2.3948
 9443TIP3    H249821   2.755   1.295   0.154 -1.9218 -0.9348 -1.6671
 9444TIP3   OH249822   5.446   0.767   5.791  0.4491 -0.4241 -0.3001
 9444TIP3    H149823   5.508   0.827   5.832  0.7300 -0.1554 -1.0945
 9444TIP3    H249824   5.360   0.806   5.806  0.3679 -1.3080  1.6725
 9445TIP3   OH249825   2.687   6.025   4.379  0.1252 -0.0890  0.3543
 9445TIP3    H149826   2.768   6.073   4.391  1.2306 -1.4997 -1.2035
 9445TIP3    H249827   2.646   6.025   4.465  1.0582  1.8755  0.8263
 9446TIP3   OH249828   3.504   5.086  15.141  0.3050 -0.7315  0.1229
 9446TIP3    H149829   3.491   5.145  15.067 -1.5009 -1.6010 -0.2703
 9446TIP3    H249830   3.594   5.053  15.130  0.8514  0.9121 -0.3735
 9447TIP3   OH249831   4.575   0.519   4.253  0.7810 -0.4089  0.8988
 9447TIP3    H149832   4.618   0.600   4.226  1.3667 -1.1151 -0.3244
 9447TIP3    H249833   4.581   0.462   4.176  0.0493 -1.4835  1.6268
 9448TIP3   OH249834   5.438   5.489   1.209  0.1341  0.0186  0.5603
 9448TIP3    H149835   5.528   5.484   1.241  0.9119  0.0082 -1.6015
 9448TIP3    H249836   5.423   5.407   1.163 -1.0937 -0.0974  1.1186
 9449TIP3   OH249837   4.923   0.484  13.640 -0.1306  0.9510  0.6576
 9449TIP3    H149838   4.919   0.549  13.570 -2.0374  1.0530  0.8519
 9449TIP3    H249839   4.836   0.483  13.678  0.2236 -0.8156  1.4984
 9450TIP3   OH249840   5.208   2.164  15.580  0.3663  0.4600  0.1278
 9450TIP3    H149841   5.162   2.085  15.550  1.2096  0.2298 -0.5970
 9450TIP3    H249842   5.291   2.131  15.615  0.2118  0.9228  0.9362
 9451TIP3   OH249843   1.617   5.393   4.089  0.1592  0.1561  0.0518
 9451TIP3    H149844   1.568   5.421   4.012  0.4051 -1.1750 -0.5959
 9451TIP3    H249845   1.709   5.402   4.064  0.2492 -1.8058 -0.4021
 9452TIP3   OH249846   3.688   3.900   3.978 -0.5589 -0.4521  0.1204
 9452TIP3    H149847   3.742   3.870   3.905 -1.0622  0.0042 -0.4466
 9452TIP3    H249848   3.598   3.885   3.949 -0.7647 -0.3430  0.6819
 9453TIP3   OH249849   5.617   2.955  16.732  0.4145 -0.3130  0.0281
 9453TIP3    H149850   5.597   2.928  16.821 -0.3159  0.6516  0.1591
 9453TIP3    H249851   5.638   2.873  16.687 -0.5122 -0.9577  0.7463
 9454TIP3   OH249852   6.551   4.854  13.582  0.3401 -0.0957  0.8843
 9454TIP3    H149853   6.559   4.947  13.600 -1.3756  0.3043 -0.2176
 9454TIP3    H249854   6.465   4.830  13.617  0.3598 -1.0462  0.3154
 9455TIP3   OH249855   0.298   3.158   4.725  0.0445 -0.0886 -0.9559
 9455TIP3    H149856   0.256   3.181   4.808 -0.2695 -0.4435 -1.0169
 9455TIP3    H249857   0.277   3.065   4.712  1.0506 -0.3378 -0.8623
 9456TIP3   OH249858   6.504   6.638  14.539 -0.6475  0.2602  0.2732
 9456TIP3    H149859   6.550   6.575  14.594 -1.7495  0.5161  1.5155
 9456TIP3    H249860   6.491   6.714  14.595 -0.8004  0.9519 -0.6924
 9457TIP3   OH249861   5.405   0.571  11.365  0.2404 -0.1209 -0.0528
 9457TIP3    H149862   5.460   0.556  11.289  0.1708 -0.2733 -0.0737
 9457TIP3    H249863   5.316   0.580  11.329  0.2138 -0.1538  0.0046
 9458TIP3   OH249864   4.264   6.809   0.954 -0.3858  0.1741 -0.0527
 9458TIP3    H149865   4.220   6.777   1.033 -0.4889  0.7054  0.1043
 9458TIP3    H249866   4.197   6.806   0.886 -0.6670  0.9854  0.1871
 9459TIP3   OH249867   6.774   0.075  17.287 -0.2076 -0.4724  0.4247
 9459TIP3    H149868   6.832   0.124  17.345 -0.1937 -0.4129  0.3610
 9459TIP3    H249869   6.699   0.051  17.341  0.8579 -2.4230  1.1005
 9460TIP3   OH249870   2.931   3.263  15.915 -0.0071 -0.2506  0.4515
 9460TIP3    H149871   2.901   3.351  15.938  1.1185  0.1152  0.5339
 9460TIP3    H249872   2.894   3.207  15.984  1.7728  0.5865  2.1538
 9461TIP3   OH249873   4.382   2.023   4.409 -0.5870 -0.4031  0.0787
 9461TIP3    H149874   4.298   2.060   4.437 -0.1166 -0.3353  1.4497
 9461TIP3    H249875   4.408   1.966   4.481  1.9992  1.9353  1.1074
 9462TIP3   OH249876   1.763   6.211  16.925 -0.7600 -0.0742 -0.0378
 9462TIP3    H149877   1.735   6.172  16.842 -1.1842  0.2113 -0.0284
 9462TIP3    H249878   1.726   6.155  16.992  2.0728 -2.0684 -0.0463
 9463TIP3   OH249879   1.284   2.193  13.420 -0.1300  0.0144 -0.0593
 9463TIP3    H149880   1.275   2.098  13.422  4.3692 -0.5823 -1.9427
 9463TIP3    H249881   1.296   2.219  13.511 -1.3429 -1.2031  0.4520
 9464TIP3   OH249882   5.103   5.686  12.757  0.3607  0.0034 -0.4306
 9464TIP3    H149883   5.053   5.639  12.690 -0.9339  0.1762  0.3794
 9464TIP3    H249884   5.036   5.725  12.813  1.3781  4.5762 -2.2573
 9465TIP3   OH249885   5.795   4.559  14.165  0.5124  0.0168 -0.0753
 9465TIP3    H149886   5.797   4.640  14.217  0.2058 -0.0447  0.0330
 9465TIP3    H249887   5.861   4.503  14.206  0.4236  0.0503  0.1155
 9466TIP3   OH249888   2.044   1.218   5.946  0.1309 -0.2486 -0.1224
 9466TIP3    H149889   1.955   1.224   5.981  0.1370 -1.0586  0.0538
 9466TIP3    H249890   2.100   1.244   6.019 -0.0027  1.2783 -0.5546
 9467TIP3   OH249891   3.329   4.973   2.454 -0.0715  0.5946  0.3350
 9467TIP3    H149892   3.389   4.999   2.385  0.2027 -1.3157 -0.1693
 9467TIP3    H249893   3.361   5.018   2.532  1.7131  0.0093 -0.0395
 9468TIP3   OH249894   2.073   2.368   4.552  0.4387  0.3458  0.1624
 9468TIP3    H149895   2.160   2.403   4.570  0.2380  0.6682  0.5051
 9468TIP3    H249896   2.013   2.437   4.579  0.1133  0.6964 -1.3845
 9469TIP3   OH249897   1.435   4.904  12.091 -0.0562 -0.1883 -0.6377
 9469TIP3    H149898   1.410   4.996  12.089 -0.8917 -0.4127 -0.8823
 9469TIP3    H249899   1.411   4.871  12.004  1.8306 -0.2263 -1.1506
 9470TIP3   OH249900   1.204   4.703  16.949  0.3389 -0.4279  0.0085
 9470TIP3    H149901   1.110   4.720  16.960  0.6414  1.8088 -0.8386
 9470TIP3    H249902   1.229   4.659  17.031 -1.6965 -2.3190 -0.3177
 9471TIP3   OH249903   1.737   2.626   0.666 -0.7760  0.1050 -0.0793
 9471TIP3    H149904   1.829   2.604   0.681 -1.0209  0.2831  1.7980
 9471TIP3    H249905   1.691   2.543   0.677 -0.9678  0.2389  0.1155
 9472TIP3   OH249906   6.024   6.513   5.594 -0.0413  0.4839 -0.5090
 9472TIP3    H149907   6.047   6.581   5.531  0.8025 -0.0166 -0.7493
 9472TIP3    H249908   5.929   6.522   5.605  0.0067  1.4560 -0.8164
 9473TIP3   OH249909   4.821   5.107   6.552  0.3662 -0.2187 -0.2739
 9473TIP3    H149910   4.899   5.148   6.589 -2.0937  2.0471  2.6460
 9473TIP3    H249911   4.779   5.175   6.501 -1.5381 -0.3236  1.1059
 9474TIP3   OH249912   4.948   5.550  16.638 -0.1702  0.6197  0.4627
 9474TIP3    H149913   4.922   5.519  16.724  1.0279  0.9090  0.9408
 9474TIP3    H249914   4.924   5.479  16.578 -2.1797  0.9446  0.8503
 9475TIP3   OH249915   3.015   5.178  11.157 -0.3035  1.1729  0.4401
 9475TIP3    H149916   2.986   5.111  11.219  1.3139  0.3361  0.3123
 9475TIP3    H249917   2.936   5.203  11.110 -1.2741  0.7506  1.8252
 9476TIP3   OH249918   4.324   0.471   0.072  0.6266 -1.1061 -0.0931
 9476TIP3    H149919   4.266   0.546   0.061  1.4386 -0.4638 -0.0737
 9476TIP3    H249920   4.394   0.486   0.008  1.6528 -1.0012  1.0332
 9477TIP3   OH249921   0.898   1.687   7.144 -0.0129 -0.1220  0.0915
 9477TIP3    H149922   0.878   1.674   7.051  0.4333  1.5282 -0.2528
 9477TIP3    H249923   0.849   1.765   7.168  0.7269  0.0829  0.9655
 9478TIP3   OH249924   6.025   0.491   4.415  0.1453 -0.7148  0.4398
 9478TIP3    H149925   6.024   0.407   4.370  1.0329 -0.6575  0.2985
 9478TIP3    H249926   5.935   0.523   4.409  0.3576 -0.4503 -1.7697
 9479TIP3   OH249927   2.818   6.482  16.808 -0.4531  0.7732 -0.2705
 9479TIP3    H149928   2.759   6.550  16.841 -0.3566  0.9938 -0.5501
 9479TIP3    H249929   2.773   6.448  16.731  0.0779  1.3681 -0.8429
 9480TIP3   OH249930   5.543   3.459  13.179 -0.1032 -0.7053 -0.8304
 9480TIP3    H149931   5.488   3.380  13.175 -1.6230  0.2751  0.4625
 9480TIP3    H249932   5.628   3.426  13.208 -1.1875 -1.6745  1.3760
 9481TIP3   OH249933   3.224   5.048  15.406 -0.1190 -0.5341  0.5775
 9481TIP3    H149934   3.183   5.065  15.491  0.0075  0.1953  0.4919
 9481TIP3    H249935   3.310   5.089  15.412 -1.0195  1.6112 -0.7567
 9482TIP3   OH249936   6.106   5.218  11.441 -0.1459  0.0426  0.3880
 9482TIP3    H149937   6.028   5.201  11.494  0.7121 -1.9734  1.0553
 9482TIP3    H249938   6.095   5.308  11.410 -2.7627 -0.2413  0.4128
 9483TIP3   OH249939   1.978   3.737   7.063  0.0601  0.1106 -0.1402
 9483TIP3    H149940   1.932   3.808   7.108  0.8530 -0.1467  1.0870
 9483TIP3    H249941   1.952   3.658   7.111  2.1429  0.0152  0.8705
 9484TIP3   OH249942   1.948   1.942   4.120  0.2863  0.2137 -0.2665
 9484TIP3    H149943   1.872   1.996   4.096  0.5777  0.6687 -0.1716
 9484TIP3    H249944   1.915   1.884   4.189 -0.2474 -0.3042 -0.9500
 9485TIP3   OH249945   2.394   6.655  11.645 -0.0660 -0.1184  0.5096
 9485TIP3    H149946   2.468   6.715  11.641  0.5478 -0.7826  1.5196
 9485TIP3    H249947   2.363   6.648  11.555 -0.8481  2.5507  0.5358
 9486TIP3   OH249948   4.966   2.333   1.740 -0.2110  0.2870 -0.5058
 9486TIP3    H149949   4.873   2.314   1.728  0.0130 -0.8490 -0.5656
 9486TIP3    H249950   5.011   2.264   1.691  0.6656  0.9154 -0.6062
 9487TIP3   OH249951   0.435   4.207  12.879 -0.1771 -0.4745 -0.1315
 9487TIP3    H149952   0.504   4.264  12.915 -0.8232 -1.1777  2.3653
 9487TIP3    H249953   0.470   4.176  12.796  0.8815  2.2574 -0.7461
 9488TIP3   OH249954   5.709   0.493   3.433 -0.2030  0.3349 -0.2382
 9488TIP3    H149955   5.677   0.404   3.450 -1.2776  0.9475  1.0229
 9488TIP3    H249956   5.707   0.501   3.338 -1.9023 -0.3730 -0.2932
 9489TIP3   OH249957   4.846   4.944   4.118  0.2097  0.7117  0.2492
 9489TIP3    H149958   4.900   5.023   4.120 -0.2395  1.0728 -1.4051
 9489TIP3    H249959   4.909   4.872   4.119  0.7179  1.1233 -0.8403
 9490TIP3   OH249960   1.034   0.148   4.352 -0.0242  0.2761  0.0631
 9490TIP3    H149961   0.952   0.182   4.315 -0.3613 -0.0879  0.4765
 9490TIP3    H249962   1.008   0.068   4.397  1.0649 -1.5980 -2.5213
 9491TIP3   OH249963   4.939   3.375  15.779  0.1203 -0.3468  0.4260
 9491TIP3    H149964   4.943   3.471  15.772 -0.3921 -0.3190  0.4546
 9491TIP3    H249965   4.934   3.344  15.689 -2.7591 -0.1807  0.4742
 9492TIP3   OH249966   2.920   5.376   1.730  0.1950  0.4883 -0.0794
 9492TIP3    H149967   2.975   5.317   1.678 -1.4479 -0.0109 -1.2982
 9492TIP3    H249968   2.857   5.318   1.773  0.2323  1.1085  0.8127
 9493TIP3   OH249969   4.120   0.145  11.752 -0.2583 -0.0915  0.2577
 9493TIP3    H149970   4.055   0.214  11.743 -1.5197 -0.9442  2.2512
 9493TIP3    H249971   4.069   0.068  11.778  1.5620 -0.6426  2.4045
 9494TIP3   OH249972   0.089   6.534  12.064  0.0612 -0.2103  0.7208
 9494TIP3    H149973   0.031   6.604  12.033 -1.6191 -0.9674  2.0307
 9494TIP3    H249974   0.034   6.483  12.123  2.0384 -1.0953  1.8376
 9495TIP3   OH249975   5.302   3.336   3.878  0.3035 -0.2044 -0.1296
 9495TIP3    H149976   5.359   3.320   3.803  3.7791  3.7105  1.4774
 9495TIP3    H249977   5.344   3.290   3.950 -1.2004 -1.1477  0.1811
 9496TIP3   OH249978   4.912   2.575   6.402 -0.0897 -0.1910  0.7230
 9496TIP3    H149979   4.936   2.665   6.426 -0.4042  0.1592 -0.2478
 9496TIP3    H249980   4.993   2.525   6.413  0.7895  0.7247 -1.2239
 9497TIP3   OH249981   0.571   0.627  14.928  0.1958  0.3782 -0.0568
 9497TIP3    H149982   0.551   0.721  14.932 -1.5621  0.0198  0.0605
 9497TIP3    H249983   0.622   0.610  15.007 -2.4851  0.5936  1.7992
 9498TIP3   OH249984   0.439   4.242   5.587 -0.8276 -0.1636  0.0247
 9498TIP3    H149985   0.457   4.148   5.579  0.5909 -0.1267  2.2201
 9498TIP3    H249986   0.426   4.255   5.680  1.5508  2.2218  0.0814
 9499TIP3   OH249987   4.626   4.459  11.275 -0.2576 -0.1985  0.3460
 9499TIP3    H149988   4.669   4.476  11.359  1.8602 -1.9948 -0.2953
 9499TIP3    H249989   4.677   4.510  11.212 -1.0367  0.1310 -0.0174
 9500TIP3   OH249990   2.703   1.050   3.370 -0.0736  0.1424 -0.0715
 9500TIP3    H149991   2.622   0.999   3.372  2.0685 -3.5842 -2.0419
 9500TIP3    H249992   2.714   1.075   3.278  1.0705  0.4288  0.1305
 9501TIP3   OH249993   5.676   3.848   1.394  0.4302  0.1360  0.4161
 9501TIP3    H149994   5.689   3.933   1.436  1.1891  0.8649 -1.2278
 9501TIP3    H249995   5.584   3.847   1.370  0.4080  0.4819  0.4779
 9502TIP3   OH249996   5.629   2.468   2.558 -0.1239  0.2561  0.6447
 9502TIP3    H149997   5.694   2.426   2.614  0.6023 -1.3867 -1.3882
 9502TIP3    H249998   5.659   2.452   2.469 -1.9801  1.6614 -0.2725
 9503TIP3   OH249999   6.435   1.203  16.140  0.0394 -0.2755 -0.3128
 9503TIP3    H150000   6.398   1.259  16.208 -1.6581  0.3340 -1.7036
 9503TIP3    H250001   6.515   1.248  16.113 -0.4869  0.6862 -0.3066
 9504TIP3   OH250002   4.452   2.838   3.047 -0.7260  0.1396 -0.1860
 9504TIP3    H150003   4.490   2.793   2.972 -3.4818 -0.5864 -1.1982
 9504TIP3    H250004   4.480   2.787   3.123  0.9115  0.0779 -0.7940
 9505TIP3   OH250005   4.378   5.819   3.166  0.5226 -0.0775 -0.1380
 9505TIP3    H150006   4.372   5.911   3.143  0.9532 -0.1716 -0.6259
 9505TIP3    H250007   4.357   5.816   3.259  0.3898  0.4975 -0.1512
 9506TIP3   OH250008   5.640   5.574  14.918  0.1447  0.0455 -0.1948
 9506TIP3    H150009   5.550   5.567  14.888  0.1448 -0.2785 -0.1271
 9506TIP3    H250010   5.661   5.667  14.911 -0.0445  0.0567 -0.6486
 9507TIP3   OH250011   3.747   4.737  10.830  0.3582  0.0695  0.2787
 9507TIP3    H150012   3.662   4.695  10.843  0.7975 -1.2082 -0.8538
 9507TIP3    H250013   3.797   4.717  10.909 -0.1772  0.3237  0.6844
 9508TIP3   OH250014   6.630   1.863  16.670 -0.0758  0.4746  0.3712
 9508TIP3    H150015   6.631   1.928  16.740  2.5279  0.5056  0.3718
 9508TIP3    H250016   6.697   1.799  16.696 -1.6544 -1.4973 -0.2958
 9509TIP3   OH250017   1.689   5.094  13.786  0.3957  0.3157  0.3400
 9509TIP3    H150018   1.665   5.059  13.700  2.6729  0.1530 -0.2465
 9509TIP3    H250019   1.781   5.069  13.798  0.9409  2.7735  1.5733
 9510TIP3   OH250020   4.255   6.630  13.608  0.0046 -0.2743 -0.0459
 9510TIP3    H150021   4.313   6.621  13.683 -0.1963 -0.8460  0.0428
 9510TIP3    H250022   4.254   6.724  13.590  0.9142 -0.2530 -0.0165
 9511TIP3   OH250023   2.331   2.178  12.649  0.2795  0.0694  0.0620
 9511TIP3    H150024   2.300   2.244  12.587 -0.0710  0.2188  0.3894
 9511TIP3    H250025   2.310   2.094  12.608 -0.5450  0.1709  0.2673
 9512TIP3   OH250026   1.104   5.910   2.196  0.3940  0.2619  0.3744
 9512TIP3    H150027   1.030   5.853   2.176  0.3805 -0.1038  1.4055
 9512TIP3    H250028   1.064   5.992   2.225  0.3476 -0.5088  2.5774
 9513TIP3   OH250029   4.414   1.296   2.936  0.1839 -0.2097 -0.9052
 9513TIP3    H150030   4.335   1.315   2.986  1.4019 -0.6900  1.2525
 9513TIP3    H250031   4.415   1.201   2.928  1.2848 -0.3001  0.3049
 9514TIP3   OH250032   5.122   2.789   2.044 -0.2667  0.2220  0.2903
 9514TIP3    H150033   5.061   2.850   2.086  1.9423  3.3911 -0.8465
 9514TIP3    H250034   5.122   2.816   1.952  0.5640 -1.7230 -0.2971
 9515TIP3   OH250035   2.035   0.145   3.138 -0.4179 -0.5213  0.1861
 9515TIP3    H150036   1.960   0.203   3.144  1.4401  2.0046 -0.3276
 9515TIP3    H250037   2.041   0.123   3.045  0.7552  1.0870 -0.1465
 9516TIP3   OH250038   3.118   4.228  11.298  1.0576  0.4825  0.1446
 9516TIP3    H150039   3.043   4.220  11.239 -0.5888  1.9566  1.9638
 9516TIP3    H250040   3.092   4.182  11.377  2.5711 -0.0237  0.3725
 9517TIP3   OH250041   6.002   4.067  11.200  0.2965  0.1314  0.2365
 9517TIP3    H150042   6.074   4.006  11.190  0.2255  0.1503 -0.4441
 9517TIP3    H250043   6.042   4.153  11.190  0.1678  0.1386 -0.2201
 9518TIP3   OH250044   6.364   5.148   1.701 -0.4028 -0.0152 -0.2555
 9518TIP3    H150045   6.390   5.199   1.777  0.0106 -0.3276 -0.1905
 9518TIP3    H250046   6.390   5.202   1.626 -0.5689  0.1714 -0.1794
 9519TIP3   OH250047   2.268   3.785   1.701  0.1565 -0.0755  0.2083
 9519TIP3    H150048   2.248   3.709   1.755  0.1868  0.1633  0.5554
 9519TIP3    H250049   2.356   3.812   1.729  0.1204  0.1268  0.1294
 9520TIP3   OH250050   3.474   5.586  15.828 -0.0876 -0.5276 -0.1567
 9520TIP3    H150051   3.435   5.593  15.915  0.6084 -1.8157  0.2756
 9520TIP3    H250052   3.545   5.522  15.838  0.9212  0.3764 -1.3474
 9521TIP3   OH250053   4.610   0.317   4.007  0.6660  0.0369  0.2158
 9521TIP3    H150054   4.673   0.272   4.063  0.5567 -0.5055 -0.0923
 9521TIP3    H250055   4.660   0.342   3.929  0.4152 -0.7572 -0.2111
 9522TIP3   OH250056   1.636   4.424   3.261  0.1679 -0.0992  0.5090
 9522TIP3    H150057   1.694   4.435   3.337  0.3506  1.1345  0.1962
 9522TIP3    H250058   1.682   4.363   3.204  0.9484  0.5085  0.4815
 9523TIP3   OH250059   0.200   6.569   2.415  0.3075 -0.3721 -0.3859
 9523TIP3    H150060   0.145   6.577   2.493  1.0470  0.7564  0.0443
 9523TIP3    H250061   0.145   6.600   2.344  0.3971  0.8520  0.0604
 9524TIP3   OH250062   6.798   6.230   2.522 -0.3405 -0.2596 -0.3256
 9524TIP3    H150063   6.727   6.284   2.487  0.0895  0.9518  0.6042
 9524TIP3    H250064   6.878   6.278   2.498  0.1002 -0.9230 -0.2072
 9525TIP3   OH250065   4.190   2.968  16.628  0.1656  0.1004 -0.4534
 9525TIP3    H150066   4.227   2.907  16.564  1.0313 -0.7623  0.8189
 9525TIP3    H250067   4.261   3.029  16.647 -0.0801  0.3486 -0.3277
 9526TIP3   OH250068   0.924   6.064   3.960  0.1419  0.2878 -0.1773
 9526TIP3    H150069   0.832   6.086   3.944  0.2938  0.6163 -0.5973
 9526TIP3    H250070   0.958   6.037   3.875  0.6066  0.7964 -0.1515
 9527TIP3   OH250071   1.482   2.846  13.666  0.2181  1.3405 -0.1867
 9527TIP3    H150072   1.474   2.940  13.676  3.4459  1.5594  1.0048
 9527TIP3    H250073   1.431   2.810  13.739 -0.7421  2.1569 -0.4438
 9528TIP3   OH250074   1.330   6.506   0.921  0.1865  0.5110  0.3011
 9528TIP3    H150075   1.395   6.561   0.878  0.4946 -0.2494 -0.2081
 9528TIP3    H250076   1.266   6.568   0.956 -0.1671  1.1387 -1.4081
 9529TIP3   OH250077   1.362   0.430  12.196 -0.3764  0.3162  0.0854
 9529TIP3    H150078   1.378   0.478  12.277 -1.1025  0.1352  0.3346
 9529TIP3    H250079   1.407   0.482  12.129  1.7221 -0.4775  0.8380
 9530TIP3   OH250080   0.056   0.940   3.151  0.5194  0.0080 -0.1297
 9530TIP3    H150081   0.006   0.962   3.072 -1.3049 -0.9388  0.7211
 9530TIP3    H250082   0.136   0.900   3.119 -0.8556 -1.7118 -1.4992
 9531TIP3   OH250083   1.118   1.296   2.484 -0.0759 -0.0994  0.0153
 9531TIP3    H150084   1.107   1.326   2.394  0.9133 -0.8472 -0.3683
 9531TIP3    H250085   1.161   1.210   2.475 -0.6991 -0.5343  1.1637
 9532TIP3   OH250086   4.752   1.699  14.488  0.1481  0.2609  0.0025
 9532TIP3    H150087   4.808   1.775  14.503  2.0187 -0.6105 -2.2152
 9532TIP3    H250088   4.795   1.628  14.535 -1.2470  0.3993  1.5278
 9533TIP3   OH250089   3.536   4.516   1.879 -0.3671  0.0227 -0.3651
 9533TIP3    H150090   3.583   4.473   1.808  0.3844  0.7676 -0.3276
 9533TIP3    H250091   3.576   4.482   1.959 -0.8753 -0.4366 -0.3000
 9534TIP3   OH250092   3.608   0.019   6.059 -0.3284  0.3717 -0.2445
 9534TIP3    H150093   3.673  -0.051   6.059  0.1327  0.7943 -0.2423
 9534TIP3    H250094   3.594   0.039   6.152  0.0755  0.7646 -0.2622
 9535TIP3   OH250095   1.996   4.956   3.206 -0.1214 -0.1968  0.1924
 9535TIP3    H150096   1.978   4.953   3.300  0.6156  0.3641  0.3621
 9535TIP3    H250097   2.092   4.959   3.200 -0.1319 -1.3411 -0.6176
 9536TIP3   OH250098   3.930   6.500  13.326  0.2691  0.7419 -0.5135
 9536TIP3    H150099   4.015   6.540  13.305  0.0917  0.3253 -2.0855
 9536TIP3    H250100   3.951   6.410  13.348  0.3629  0.9492  0.2440
 9537TIP3   OH250101   0.606   5.913   0.875  0.3340 -0.0073 -0.4755
 9537TIP3    H150102   0.565   5.889   0.958  0.3434  2.3419  0.2198
 9537TIP3    H250103   0.615   5.829   0.829  1.9947 -1.6527  2.6247
 9538TIP3   OH250104   4.314   1.602  16.818 -0.0352  0.1852  0.5432
 9538TIP3    H150105   4.380   1.671  16.817  0.0242  0.1481 -3.5632
 9538TIP3    H250106   4.235   1.643  16.782 -0.2273 -1.6313 -1.2049
 9539TIP3   OH250107   2.123   6.050   4.548  0.7400 -0.7218 -0.3316
 9539TIP3    H150108   2.078   5.985   4.493  0.0504 -1.6365  1.2796
 9539TIP3    H250109   2.207   6.063   4.505 -0.0027 -0.9911 -1.9183
 9540TIP3   OH250110   5.297   3.205   1.241 -0.5547 -0.2471  1.1011
 9540TIP3    H150111   5.281   3.211   1.335  1.1263 -0.6267  1.4196
 9540TIP3    H250112   5.332   3.291   1.217  0.6860 -0.7312  1.1584
 9541TIP3   OH250113   1.762   5.380  10.838  0.2222 -0.2658  0.2597
 9541TIP3    H150114   1.754   5.335  10.754 -0.2528  0.5371 -0.1237
 9541TIP3    H250115   1.833   5.443  10.825  0.3770 -0.3789  0.5615
 9542TIP3   OH250116   5.231   1.661   5.907  0.3427 -0.4435  0.4745
 9542TIP3    H150117   5.213   1.736   5.850 -1.8360 -1.1118  0.2397
 9542TIP3    H250118   5.237   1.587   5.847  0.3292 -0.8038  0.9205
 9543TIP3   OH250119   2.367   6.585   3.528 -0.2692 -0.0110 -0.2812
 9543TIP3    H150120   2.446   6.538   3.555  0.4847  0.8372 -0.9577
 9543TIP3    H250121   2.323   6.525   3.467 -0.9495 -1.1112  1.2744
 9544TIP3   OH250122   0.009   1.307   6.063 -0.2307 -0.0401 -0.7133
 9544TIP3    H150123   0.019   1.212   6.054  1.6956  0.0658 -0.0321
 9544TIP3    H250124  -0.083   1.319   6.089 -0.2211 -1.8074  0.2376
 9545TIP3   OH250125   4.440   6.104   3.467 -0.2838 -0.2313  0.0547
 9545TIP3    H150126   4.370   6.080   3.405 -0.6394 -2.9757  1.4302
 9545TIP3    H250127   4.398   6.100   3.553  0.7634  1.3549  0.6606
 9546TIP3   OH250128   5.062   3.975   3.805 -0.1008 -0.8278  0.2974
 9546TIP3    H150129   5.008   4.030   3.861 -1.2103  0.1072 -1.6246
 9546TIP3    H250130   5.001   3.913   3.765  1.0454 -3.1877  2.0123
 9547TIP3   OH250131   0.746   3.367  11.694  0.0622  0.6843 -0.0985
 9547TIP3    H150132   0.728   3.320  11.612  1.9257  0.7700 -0.5823
 9547TIP3    H250133   0.724   3.458  11.674  0.5473  0.7120 -0.5184
 9548TIP3   OH250134   3.426   4.953  13.358  0.2812  0.0168 -0.2718
 9548TIP3    H150135   3.510   4.998  13.360  0.1418  0.4398 -2.4371
 9548TIP3    H250136   3.449   4.860  13.352  0.5771 -0.0346  1.5679
 9549TIP3   OH250137   4.711   3.708  16.201  0.0533  0.1492  0.8909
 9549TIP3    H150138   4.753   3.792  16.182 -0.9187  0.6105  0.7312
 9549TIP3    H250139   4.696   3.710  16.295 -1.3661  0.8252  0.6608
 9550TIP3   OH250140   1.514   0.334  13.344 -0.2809 -0.0835  0.2086
 9550TIP3    H150141   1.460   0.380  13.280  0.2461 -0.7878 -0.7487
 9550TIP3    H250142   1.514   0.243  13.315  1.6269 -0.0560  0.0150
 9551TIP3   OH250143   4.628   1.296  17.259 -0.4038 -0.3070 -0.4797
 9551TIP3    H150144   4.680   1.376  17.268  0.0849 -0.5921 -0.7363
 9551TIP3    H250145   4.613   1.287  17.165  0.3771 -1.0383 -0.5443
 9552TIP3   OH250146   1.490   2.037   5.393 -0.0162 -0.1520  0.0169
 9552TIP3    H150147   1.503   1.943   5.393 -0.3278 -0.3313 -4.7178
 9552TIP3    H250148   1.570   2.073   5.353  0.0670  1.6102  1.6663
 9553TIP3   OH250149   6.005   2.564  15.825 -0.4969  0.7978  0.4695
 9553TIP3    H150150   5.994   2.652  15.789 -1.1167  0.0980 -1.0908
 9553TIP3    H250151   5.916   2.532  15.839 -0.3575 -0.5904 -1.5572
 9554TIP3   OH250152   0.015   3.301  14.765 -0.1972  0.2056 -0.5035
 9554TIP3    H150153  -0.067   3.324  14.722  0.2520 -0.3645 -1.6969
 9554TIP3    H250154   0.061   3.247  14.701  0.1916 -1.2584  0.9504
 9555TIP3   OH250155   6.025   5.526   1.826  0.7895 -0.0709  0.6709
 9555TIP3    H150156   5.966   5.585   1.779  0.0011  0.2638  2.0487
 9555TIP3    H250157   6.068   5.475   1.757  0.1123  0.8210 -0.4358
 9556TIP3   OH250158   2.377   4.696  15.482 -0.4387  0.3186  0.2027
 9556TIP3    H150159   2.338   4.749  15.413  0.2438 -1.4152 -1.5328
 9556TIP3    H250160   2.315   4.625  15.496 -1.0306  1.1639  2.0697
 9557TIP3   OH250161   1.818   4.777   4.309  0.0193 -0.5330 -0.1222
 9557TIP3    H150162   1.732   4.807   4.278  0.0042 -2.0190 -1.5735
 9557TIP3    H250163   1.875   4.784   4.233  0.7056 -1.4407  0.2988
 9558TIP3   OH250164   6.521   4.086  11.176 -0.1770  0.3579  0.5173
 9558TIP3    H150165   6.564   4.122  11.099  0.2347 -0.0309  0.5666
 9558TIP3    H250166   6.500   4.162  11.230  0.4558  0.5448  0.4993
 9559TIP3   OH250167   2.935   6.127   2.853 -0.9167  0.1240 -0.0520
 9559TIP3    H150168   2.971   6.178   2.781  1.5668 -1.4726  0.0013
 9559TIP3    H250169   2.932   6.038   2.820 -1.1518 -0.3829  1.3236
 9560TIP3   OH250170   0.779   0.655   4.080 -0.4414 -0.2686  0.3397
 9560TIP3    H150171   0.752   0.687   4.166 -1.4660 -0.6490  0.1723
 9560TIP3    H250172   0.806   0.733   4.033 -2.3503  0.2993  0.1321
 9561TIP3   OH250173   5.983   5.092  12.288  0.1298 -0.2270 -0.1561
 9561TIP3    H150174   6.000   5.170  12.341  2.7413 -0.7850 -0.1076
 9561TIP3    H250175   5.970   5.022  12.352  0.7887 -0.4170 -0.2313
 9562TIP3   OH250176   1.811   4.833  12.799 -0.5291 -0.1893 -0.3161
 9562TIP3    H150177   1.757   4.756  12.816 -0.8823  0.0516 -0.3397
 9562TIP3    H250178   1.822   4.874  12.885  0.6249 -0.8955 -0.1203
 9563TIP3   OH250179   5.789   0.648  16.405  0.2905  0.6181  0.6003
 9563TIP3    H150180   5.884   0.647  16.393  0.2258 -0.2004  0.1679
 9563TIP3    H250181   5.754   0.678  16.321  0.0188 -1.9654 -0.2430
 9564TIP3   OH250182   3.657   1.584   0.934 -0.1964 -0.1265 -0.1914
 9564TIP3    H150183   3.666   1.577   0.839 -2.3945  0.3247 -0.4603
 9564TIP3    H250184   3.678   1.497   0.966 -1.9451 -1.0167 -1.3426
 9565TIP3   OH250185   2.207   5.848   6.002  0.1017 -0.6326 -0.1551
 9565TIP3    H150186   2.281   5.810   6.049  0.2241 -0.4889 -0.2314
 9565TIP3    H250187   2.227   5.832   5.909 -0.0574 -0.7692 -0.1670
 9566TIP3   OH250188   2.124   0.792   5.753  0.0183  0.1084 -0.0837
 9566TIP3    H150189   2.158   0.867   5.801 -1.5811  0.0873  1.1430
 9566TIP3    H250190   2.061   0.830   5.691  0.4098 -0.0693 -0.5901
 9567TIP3   OH250191   6.620   3.951  11.726 -0.0951  0.4649 -0.2372
 9567TIP3    H150192   6.566   3.873  11.710  1.4190 -0.5334 -0.6439
 9567TIP3    H250193   6.710   3.918  11.724  0.5424  2.1433  0.1555
 9568TIP3   OH250194   4.498   5.505   1.253 -0.4845  0.1957 -0.1637
 9568TIP3    H150195   4.536   5.417   1.249 -0.2648  0.3126 -0.7684
 9568TIP3    H250196   4.404   5.490   1.247 -0.5341 -0.0926  1.2831
 9569TIP3   OH250197   5.201   4.304   4.342  0.6412 -0.4778 -0.4557
 9569TIP3    H150198   5.218   4.266   4.428  0.3170 -1.8411 -0.9693
 9569TIP3    H250199   5.178   4.395   4.359 -0.2913 -0.9692  0.9665
 9570TIP3   OH250200   0.810   2.673   1.512 -0.4794  0.0167 -0.0389
 9570TIP3    H150201   0.906   2.674   1.501 -0.6460  0.3149 -1.5402
 9570TIP3    H250202   0.793   2.589   1.555  0.5929  0.6594  1.7256
 9571TIP3   OH250203   3.550   6.159  15.862 -0.2086  0.2414  0.2250
 9571TIP3    H150204   3.507   6.222  15.921  2.4816  1.4242  1.0259
 9571TIP3    H250205   3.507   6.076  15.880 -1.5112  1.2023  1.6614
 9572TIP3   OH250206   2.242   6.043   3.823 -0.0976 -0.4014  0.7181
 9572TIP3    H150207   2.227   6.039   3.729  0.3738  2.6133  0.4507
 9572TIP3    H250208   2.159   6.077   3.859  0.5519  0.8742  1.0587
 9573TIP3   OH250209   2.575   6.415   2.664  0.1837  0.5194  0.3727
 9573TIP3    H150210   2.655   6.437   2.711  1.2871 -0.4500 -0.9903
 9573TIP3    H250211   2.522   6.494   2.668  1.0092  1.0213  1.7055
 9574TIP3   OH250212   2.875   5.153  10.522 -0.5020  0.0531 -0.5551
 9574TIP3    H150213   2.805   5.206  10.559 -0.5680 -0.7269  0.4413
 9574TIP3    H250214   2.831   5.076  10.487 -0.2434 -0.0103 -0.7430
 9575TIP3   OH250215   2.134   0.640   2.360 -0.1097 -0.0663  0.5332
 9575TIP3    H150216   2.187   0.647   2.281  0.2767  1.0715  0.8767
 9575TIP3    H250217   2.064   0.579   2.337 -1.0848  1.6931 -1.2813
 9576TIP3   OH250218   4.605   6.575   3.164 -0.2100 -0.1311  0.0706
 9576TIP3    H150219   4.654   6.518   3.223  0.0460  1.8753  1.8540
 9576TIP3    H250220   4.518   6.580   3.202 -0.6140 -0.4092 -0.8220
 9577TIP3   OH250221   1.414   4.850   5.226  0.8033  0.5611 -0.3277
 9577TIP3    H150222   1.381   4.891   5.147 -2.5937 -1.8702 -0.2718
 9577TIP3    H250223   1.359   4.884   5.297  0.8948 -0.6082  0.3348
 9578TIP3   OH250224   4.945   1.484  11.043 -0.3732  0.0785 -0.2792
 9578TIP3    H150225   4.909   1.414  10.988  0.0760 -0.3620 -0.0210
 9578TIP3    H250226   5.040   1.473  11.036 -0.2981  0.7517 -0.3504
 9579TIP3   OH250227   2.046   3.821  14.099  0.2067 -0.1175 -0.4034
 9579TIP3    H150228   2.125   3.855  14.056  0.7470 -1.7390 -0.7500
 9579TIP3    H250229   2.031   3.736  14.057 -1.5174  0.0121 -0.0750
 9580TIP3   OH250230   3.066   1.445  16.728 -0.3117  0.8625  0.4979
 9580TIP3    H150231   3.131   1.390  16.771 -0.2932 -0.8945 -1.6837
 9580TIP3    H250232   2.982   1.416  16.764 -0.1711  0.6114  0.6248
 9581TIP3   OH250233   5.650   0.757  16.174 -0.2310  0.7831 -0.3141
 9581TIP3    H150234   5.723   0.815  16.192  0.1429  0.7916 -1.7742
 9581TIP3    H250235   5.575   0.799  16.216  0.5052  1.0085  0.7962
 9582TIP3   OH250236   3.912   3.412   1.824  0.3380 -0.4327 -0.0993
 9582TIP3    H150237   3.923   3.402   1.918  1.4954 -0.3635 -0.2294
 9582TIP3    H250238   3.933   3.326   1.788  3.8402  0.5664 -0.6346
 9583TIP3   OH250239   0.583   0.489   6.839  0.4452  0.0159 -0.7303
 9583TIP3    H150240   0.643   0.554   6.804  1.7555 -0.5331  0.4759
 9583TIP3    H250241   0.607   0.408   6.794  0.8478 -0.2796  0.0165
 9584TIP3   OH250242   3.657   5.021   2.374  0.5614  0.3719 -0.2558
 9584TIP3    H150243   3.621   5.061   2.454  1.4063 -0.1833  0.4064
 9584TIP3    H250244   3.645   5.087   2.307 -0.5505  0.6900  0.2396
 9585TIP3   OH250245   4.046   0.722   1.581  0.1188 -0.2402  0.4513
 9585TIP3    H150246   3.978   0.671   1.623 -3.1614  1.8423 -2.0680
 9585TIP3    H250247   4.045   0.806   1.627 -1.2612  0.9037 -1.5919
 9586TIP3   OH250248   5.236   2.605  13.470 -0.2050  0.4895 -0.4579
 9586TIP3    H150249   5.245   2.678  13.532  1.9425  0.5877 -0.8453
 9586TIP3    H250250   5.275   2.638  13.389 -1.0466 -0.3943 -1.2319
 9587TIP3   OH250251   4.510   1.460   0.236  0.4178 -0.5164  0.5678
 9587TIP3    H150252   4.449   1.517   0.189  0.4592 -3.1488 -2.8843
 9587TIP3    H250253   4.456   1.419   0.304 -1.0615 -0.8513 -0.7644
 9588TIP3   OH250254   0.269   4.168   3.971 -0.6755  0.0876 -0.0211
 9588TIP3    H150255   0.182   4.199   3.944 -1.4486 -0.8488  1.3314
 9588TIP3    H250256   0.268   4.074   3.953  0.7452  0.3969 -1.7508
 9589TIP3   OH250257   1.470   0.016   2.586 -0.2647 -0.8819 -0.7184
 9589TIP3    H150258   1.540  -0.049   2.594  1.3754  1.1261  2.6916
 9589TIP3    H250259   1.496   0.086   2.646 -3.9701  1.1108 -1.2838
 9590TIP3   OH250260   4.698   3.469  15.521  0.2723 -0.4100 -0.6522
 9590TIP3    H150261   4.780   3.514  15.541  0.6975 -1.5105  0.1404
 9590TIP3    H250262   4.642   3.537  15.484  1.8707  0.1519 -2.1407
 9591TIP3   OH250263   4.029   1.490  14.420 -0.3040 -0.0072 -0.0988
 9591TIP3    H150264   4.120   1.464  14.406  0.2627  2.9211 -2.1885
 9591TIP3    H250265   3.981   1.407  14.425  2.1081 -1.5356 -1.5538
 9592TIP3   OH250266   0.678   6.494  12.699 -0.1913 -0.4196 -0.2079
 9592TIP3    H150267   0.615   6.562  12.675 -0.1866 -0.2804  0.1729
 9592TIP3    H250268   0.745   6.540  12.750  0.2116 -0.5709 -0.5978
 9593TIP3   OH250269   0.225   1.791   3.467 -0.3083  0.0825  0.7443
 9593TIP3    H150270   0.194   1.724   3.406  0.9412 -0.8109  1.0822
 9593TIP3    H250271   0.254   1.863   3.411  0.0100 -0.3765  0.3232
 9594TIP3   OH250272   1.000   2.302  12.588 -0.1638 -0.4229  0.1686
 9594TIP3    H150273   1.018   2.389  12.552 -2.1446 -0.4964 -1.0908
 9594TIP3    H250274   1.086   2.265  12.606  0.7843  0.9194 -1.4236
 9595TIP3   OH250275   1.482   1.136  13.620  0.1939 -0.7228  0.4877
 9595TIP3    H150276   1.545   1.188  13.570  0.5401 -1.5200  0.0793
 9595TIP3    H250277   1.495   1.046  13.588 -1.2521 -0.8769  0.3063
 9596TIP3   OH250278   0.631   0.689  15.509 -0.0183  0.7084 -0.0684
 9596TIP3    H150279   0.621   0.766  15.454 -0.4442  0.7433  0.0589
 9596TIP3    H250280   0.687   0.719  15.581 -0.4702  0.9934  0.1648
 9597TIP3   OH250281   2.139   2.945  15.589  0.8651  0.1151 -0.4345
 9597TIP3    H150282   2.075   2.966  15.657  1.4210  0.2351  0.0566
 9597TIP3    H250283   2.162   2.854  15.605  0.6919  0.0205 -0.7190
 9598TIP3   OH250284   5.397   1.244   4.197  0.3790 -0.1802 -0.1907
 9598TIP3    H150285   5.472   1.195   4.162 -0.0586 -0.3808 -0.8687
 9598TIP3    H250286   5.428   1.334   4.203  1.0972 -0.4942  0.7885
 9599TIP3   OH250287   4.912   4.814  15.090  0.0080 -0.1415  0.1929
 9599TIP3    H150288   4.924   4.891  15.034  0.9267 -0.5915 -0.2356
 9599TIP3    H250289   4.991   4.811  15.144 -0.1581 -0.6172  0.4108
 9600TIP3   OH250290   4.578   5.889   1.298 -0.2179  0.1655 -0.2042
 9600TIP3    H150291   4.593   5.870   1.205 -1.4214  1.2666 -0.6328
 9600TIP3    H250292   4.661   5.866   1.341 -0.2650 -2.1540 -1.2621
 9601TIP3   OH250293   0.433   2.990  14.289  0.8355 -0.0649  0.1412
 9601TIP3    H150294   0.345   3.028  14.292  0.3774 -0.9766 -1.1322
 9601TIP3    H250295   0.471   3.008  14.375 -1.3912 -1.5714  1.4625
 9602TIP3   OH250296   3.686   4.084   4.177  0.7252  0.4672 -0.4666
 9602TIP3    H150297   3.690   4.033   4.096  0.6312  0.9952 -0.8041
 9602TIP3    H250298   3.775   4.082   4.211  1.6573  3.3804 -2.5353
 9603TIP3   OH250299   4.153   0.513   4.068  0.8692  0.0493 -0.2408
 9603TIP3    H150300   4.100   0.531   4.146 -0.2114  0.1770 -1.0001
 9603TIP3    H250301   4.096   0.534   3.995  1.7933 -0.3336 -1.0781
 9604TIP3   OH250302   1.116   2.730  16.261  0.3876 -0.1967  0.1761
 9604TIP3    H150303   1.083   2.725  16.172  0.5220  2.2619 -0.0442
 9604TIP3    H250304   1.038   2.731  16.316  0.1709  2.0035 -0.1396
 9605TIP3   OH250305   2.339   0.541   3.266  0.6726 -0.7014 -0.4557
 9605TIP3    H150306   2.316   0.528   3.359  0.6953 -0.0805 -0.3634
 9605TIP3    H250307   2.298   0.467   3.221 -0.1457 -0.4937 -0.0715
 9606TIP3   OH250308   0.438   1.502   4.414 -0.0286 -0.0804 -0.8092
 9606TIP3    H150309   0.396   1.535   4.334 -1.6113  1.1042  0.4733
 9606TIP3    H250310   0.529   1.531   4.407 -0.4985  1.2693 -1.5011
 9607TIP3   OH250311   5.964   4.390   4.060 -0.2942  0.6249  0.2475
 9607TIP3    H150312   5.872   4.377   4.039 -0.4067  0.2945  0.9233
 9607TIP3    H250313   5.968   4.476   4.103 -0.1861  0.9420 -0.3986
 9608TIP3   OH250314   3.372   4.037   5.070 -0.3677  0.3617  0.1710
 9608TIP3    H150315   3.440   3.989   5.118  0.0406  1.6081  0.8729
 9608TIP3    H250316   3.381   4.008   4.979 -0.5692 -1.3694  0.6851
 9609TIP3   OH250317   1.413   4.414   0.066  0.2508 -0.5008 -0.7301
 9609TIP3    H150318   1.424   4.355  -0.008 -0.4984 -1.2270 -0.2679
 9609TIP3    H250319   1.410   4.357   0.143  0.7737  0.2228 -0.1614
 9610TIP3   OH250320   4.863   2.116  12.963  0.2171  0.2419 -0.2872
 9610TIP3    H150321   4.841   2.110  13.056  2.0212  0.9275  0.2038
 9610TIP3    H250322   4.943   2.063  12.955 -0.5596 -0.7281 -1.6622
 9611TIP3   OH250323   3.401   1.142  13.950 -0.4793  0.3206 -0.7060
 9611TIP3    H150324   3.365   1.059  13.917  1.4148 -0.4694 -0.9026
 9611TIP3    H250325   3.377   1.207  13.884  0.3926 -0.6185 -1.9818
 9612TIP3   OH250326   5.324   1.766   3.961 -0.0541 -0.1791  0.1416
 9612TIP3    H150327   5.365   1.722   4.035 -2.1066  0.4938  1.7090
 9612TIP3    H250328   5.384   1.838   3.940 -0.6724  1.1709  2.7990
 9613TIP3   OH250329   0.856   2.334  16.377 -0.2750  0.4067 -0.3833
 9613TIP3    H150330   0.914   2.299  16.309 -1.5208 -1.4345 -0.5503
 9613TIP3    H250331   0.770   2.299  16.354 -0.7853  0.1140  1.9210
 9614TIP3   OH250332   3.333   2.585  13.264  0.2233  0.0207  0.2139
 9614TIP3    H150333   3.405   2.648  13.258 -0.3675  0.5900 -1.0652
 9614TIP3    H250334   3.298   2.597  13.352  2.2809 -0.9290  1.2028
 9615TIP3   OH250335   2.460   6.484   3.210 -0.2804  0.0840  0.1409
 9615TIP3    H150336   2.416   6.429   3.275 -2.7301  1.9195  0.1109
 9615TIP3    H250337   2.406   6.562   3.204  2.1784  1.7577 -1.1034
 9616TIP3   OH250338   5.459   6.807   3.428 -0.3509 -0.8152  0.8387
 9616TIP3    H150339   5.486   6.778   3.515 -1.1598 -1.9145  0.7224
 9616TIP3    H250340   5.399   6.739   3.397 -0.2854 -0.2907 -0.4624
 9617TIP3   OH250341   6.756   4.520   6.207  0.9571  0.6101 -0.1740
 9617TIP3    H150342   6.818   4.448   6.219  0.7685  0.3291 -0.8163
 9617TIP3    H250343   6.670   4.479   6.215  0.8572  1.1103  1.3203
 9618TIP3   OH250344   1.290   3.438   6.487  0.6446 -0.3061  0.8755
 9618TIP3    H150345   1.263   3.529   6.503  2.3522  0.4498 -0.4928
 9618TIP3    H250346   1.229   3.406   6.421  2.0104  0.8755 -0.9882
 9619TIP3   OH250347   1.503   5.277  17.060 -0.3228  0.0885 -0.2381
 9619TIP3    H150348   1.453   5.203  17.096 -0.5487  0.1857 -0.3498
 9619TIP3    H250349   1.586   5.238  17.032  0.5523  0.2943  1.9143
 9620TIP3   OH250350   1.713   6.142  11.772  0.2180 -0.2115  0.8658
 9620TIP3    H150351   1.620   6.131  11.795  0.0882 -3.9153 -1.0201
 9620TIP3    H250352   1.752   6.182  11.850 -3.1686  2.7969  1.1569
 9621TIP3   OH250353   3.796   4.153   3.572  0.1798 -0.4499 -0.3605
 9621TIP3    H150354   3.819   4.200   3.491  1.4143 -2.1737 -1.0232
 9621TIP3    H250355   3.701   4.138   3.564  0.1818 -0.0769 -1.2055
 9622TIP3   OH250356   3.467   6.629   5.389  0.3988  0.6022  0.2086
 9622TIP3    H150357   3.391   6.636   5.331 -0.8915 -0.2324  1.7503
 9622TIP3    H250358   3.494   6.719   5.404  0.6301  0.8343 -1.5227
 9623TIP3   OH250359   5.723   4.535  12.166 -0.4407 -0.5770  0.3638
 9623TIP3    H150360   5.717   4.553  12.260  1.5668  0.7904  0.2657
 9623TIP3    H250361   5.771   4.453  12.159 -1.1198 -0.9945  0.5313
 9624TIP3   OH250362   3.844   1.431   0.192  0.0326  0.0907  0.2883
 9624TIP3    H150363   3.843   1.504   0.130 -0.2334  0.1297  0.3406
 9624TIP3    H250364   3.863   1.354   0.138 -3.0341 -0.3126 -0.2944
 9625TIP3   OH250365   4.813   2.039  14.603  0.0784  0.3616  0.3070
 9625TIP3    H150366   4.772   2.016  14.519 -1.7573  0.4278  1.1523
 9625TIP3    H250367   4.864   2.118  14.584 -0.6226  0.5909 -0.6799
 9626TIP3   OH250368   5.934   5.091   2.880 -0.0171 -0.1707  0.1889
 9626TIP3    H150369   6.005   5.149   2.854  0.2413  0.4461  2.1751
 9626TIP3    H250370   5.978   5.017   2.921 -0.5173  0.1629  1.3345
 9627TIP3   OH250371   6.482   0.517   1.471 -0.3533 -0.0282  0.2214
 9627TIP3    H150372   6.427   0.457   1.521 -0.3727 -2.0261 -2.1354
 9627TIP3    H250373   6.560   0.466   1.450  0.4974  1.4074 -0.1551
 9628TIP3   OH250374   2.538   2.138   5.608 -0.2399  0.3931  0.5735
 9628TIP3    H150375   2.509   2.179   5.527 -0.0690 -0.5101  0.0508
 9628TIP3    H250376   2.459   2.134   5.662 -0.9817 -1.4963 -0.6060
 9629TIP3   OH250377   1.328   1.766   5.211 -0.0616  0.4095 -0.0108
 9629TIP3    H150378   1.368   1.709   5.146  0.0879  0.2861  0.1871
 9629TIP3    H250379   1.399   1.785   5.273 -0.2670  0.3203  0.2549
 9630TIP3   OH250380   1.636   1.076  12.624  0.1592  0.4078  0.5891
 9630TIP3    H150381   1.610   1.159  12.582 -0.9255  0.2893  1.0095
 9630TIP3    H250382   1.732   1.076  12.619  0.0707  0.4508 -1.7845
 9631TIP3   OH250383   5.069   4.670   1.092 -0.2543 -0.0829  0.6705
 9631TIP3    H150384   4.990   4.693   1.043  0.2326 -1.4629 -0.7996
 9631TIP3    H250385   5.058   4.578   1.114  0.9744 -0.3062  0.3957
 9632TIP3   OH250386   4.463   4.319   0.569 -0.7125  0.5198 -0.1686
 9632TIP3    H150387   4.397   4.387   0.552 -0.0940  0.8048 -1.5512
 9632TIP3    H250388   4.503   4.304   0.483 -0.1691 -0.8921  0.3319
 9633TIP3   OH250389   4.674   5.045  12.158 -0.2965  0.2712 -0.1789
 9633TIP3    H150390   4.650   4.953  12.144 -1.0323  0.7338 -2.1629
 9633TIP3    H250391   4.615   5.094  12.101  1.7944  1.8037 -1.0948
 9634TIP3   OH250392   6.526   6.806  16.545  0.0490 -0.4159 -0.1008
 9634TIP3    H150393   6.460   6.740  16.562 -0.8224  0.5727  0.4182
 9634TIP3    H250394   6.499   6.847  16.463  0.1884 -0.2144 -0.0472
 9635TIP3   OH250395   3.068   5.508  16.007 -0.3131  0.1442  0.0882
 9635TIP3    H150396   2.983   5.539  15.977 -0.6027 -1.5031 -0.8846
 9635TIP3    H250397   3.048   5.442  16.074  0.2164  0.3052  0.4129
 9636TIP3   OH250398   1.838   1.290  15.808  0.1435  1.3537  0.5320
 9636TIP3    H150399   1.871   1.379  15.807  2.0382  0.6536 -0.2810
 9636TIP3    H250400   1.822   1.268  15.716  0.3590  0.6185  0.6615
 9637TIP3   OH250401   1.910   4.258   5.589  0.0884 -0.3815 -0.2099
 9637TIP3    H150402   1.917   4.334   5.532  1.1114 -0.7118 -0.5281
 9637TIP3    H250403   1.820   4.261   5.622 -0.3227  0.1630 -1.3479
 9638TIP3   OH250404   5.130   6.232  12.389 -0.3684  0.1547  0.0962
 9638TIP3    H150405   5.149   6.168  12.458 -0.2710 -0.3437 -0.3852
 9638TIP3    H250406   5.206   6.290  12.388  0.5902 -1.0724 -0.9646
 9639TIP3   OH250407   3.135   4.101  12.914 -0.8811 -0.1264  0.1349
 9639TIP3    H150408   3.194   4.169  12.947 -1.7971  0.3760  0.7952
 9639TIP3    H250409   3.155   4.094  12.821  0.7790 -0.5551  0.5200
 9640TIP3   OH250410   1.622   1.747  14.463  0.4431  0.3274 -0.4369
 9640TIP3    H150411   1.645   1.688  14.535 -1.1181 -1.0964 -1.0726
 9640TIP3    H250412   1.566   1.813  14.504  0.4835  0.1626 -0.1086
 9641TIP3   OH250413   6.090   0.462  11.417 -0.5019  0.1101 -0.3545
 9641TIP3    H150414   6.097   0.557  11.417 -0.9284  0.1534 -1.3254
 9641TIP3    H250415   6.141   0.434  11.341 -0.7146 -0.3978 -0.3130
 9642TIP3   OH250416   1.139   2.150  13.130  0.5014 -0.0843 -0.2920
 9642TIP3    H150417   1.048   2.121  13.125  0.7773 -1.3063  1.3354
 9642TIP3    H250418   1.154   2.168  13.223  0.9503  3.4549 -0.9757
 9643TIP3   OH250419   6.029   4.048  15.256 -0.7132  0.3307 -0.2758
 9643TIP3    H150420   5.940   4.018  15.238 -1.1301  0.5749  1.3126
 9643TIP3    H250421   6.053   4.100  15.179 -2.3349  1.1518 -0.2571
 9644TIP3   OH250422   2.785   1.433   4.198 -0.6587 -0.1188  0.2741
 9644TIP3    H150423   2.839   1.364   4.161  0.7122  0.0495  1.8904
 9644TIP3    H250424   2.698   1.420   4.159  0.1276 -1.3766 -1.1102
 9645TIP3   OH250425   4.614   5.075   1.750  0.0441 -0.0081  0.1585
 9645TIP3    H150426   4.578   4.989   1.732  0.3926 -0.3350  1.0028
 9645TIP3    H250427   4.588   5.094   1.841 -0.8360  1.1811 -0.3174
 9646TIP3   OH250428   3.674   0.619  16.430  0.0703 -0.7413 -0.1500
 9646TIP3    H150429   3.629   0.641  16.348  0.0245  0.3304  0.1575
 9646TIP3    H250430   3.763   0.599  16.404 -0.2061 -1.4054 -0.5897
 9647TIP3   OH250431   0.504   3.642   0.826  0.0401  0.0815  0.0675
 9647TIP3    H150432   0.432   3.604   0.875  1.1650 -0.1790  1.5495
 9647TIP3    H250433   0.532   3.572   0.766 -1.1123  0.2880 -0.7290
 9648TIP3   OH250434   0.495   3.695   5.438 -0.3452 -0.4122  0.9093
 9648TIP3    H150435   0.579   3.670   5.475 -0.4229 -1.0903  0.6417
 9648TIP3    H250436   0.466   3.617   5.390 -0.5032  0.2725 -0.1142
 9649TIP3   OH250437   5.685   4.828   4.019 -0.4847 -0.1028  0.0791
 9649TIP3    H150438   5.755   4.863   3.964  0.0758  1.2382  1.5913
 9649TIP3    H250439   5.640   4.765   3.964  1.7203 -0.7569 -1.0348
 9650TIP3   OH250440   3.671   1.233   5.733 -0.3842 -0.0857  0.6061
 9650TIP3    H150441   3.765   1.227   5.752 -0.3164 -2.5065 -0.4196
 9650TIP3    H250442   3.631   1.253   5.818  0.9958  0.5012  1.1406
 9651TIP3   OH250443   0.385   4.309  10.859 -0.1427  0.5637  0.3767
 9651TIP3    H150444   0.454   4.307  10.793  0.5029 -0.4554  1.0724
 9651TIP3    H250445   0.316   4.363  10.820  1.1022  1.7368 -0.2593
 9652TIP3   OH250446   2.337   1.075  16.839 -0.2412  0.0693 -0.3277
 9652TIP3    H150447   2.402   1.021  16.794  1.3443  1.5872  0.0671
 9652TIP3    H250448   2.253   1.034  16.819  0.8331 -1.9417 -0.8519
 9653TIP3   OH250449   6.754   3.002  10.330  0.0924 -0.6509  0.2583
 9653TIP3    H150450   6.751   3.097  10.323  0.3482 -0.8020 -2.6054
 9653TIP3    H250451   6.839   2.978  10.295 -0.3831 -1.9953 -0.0151
 9654TIP3   OH250452   6.498   1.560  11.638 -0.1278  0.5190  1.1213
 9654TIP3    H150453   6.403   1.564  11.631 -0.1938  0.1110  1.7706
 9654TIP3    H250454   6.523   1.645  11.674 -0.1691  0.9378  0.1838
 9655TIP3   OH250455   2.826   3.787   5.203  0.1229 -0.3504  0.3408
 9655TIP3    H150456   2.838   3.881   5.215 -0.7075 -0.3335  1.1045
 9655TIP3    H250457   2.788   3.757   5.286 -0.2000 -1.2538 -0.1268
 9656TIP3   OH250458   5.030   5.042  15.391 -0.6472  0.3591 -0.3784
 9656TIP3    H150459   5.021   5.087  15.307 -0.7831  0.0593 -0.5279
 9656TIP3    H250460   4.993   5.103  15.455 -1.3483  0.2266 -0.6527
 9657TIP3   OH250461   1.561   1.902  16.248 -0.5372  0.3579 -0.1322
 9657TIP3    H150462   1.485   1.953  16.274 -1.1843 -0.2264 -0.8572
 9657TIP3    H250463   1.526   1.834  16.191  0.4230 -0.4032  0.1701
 9658TIP3   OH250464   5.837   3.590   1.662  0.3097  0.2320  0.1646
 9658TIP3    H150465   5.835   3.495   1.656  0.4880  0.1505  1.2734
 9658TIP3    H250466   5.842   3.608   1.756 -3.4201  1.3951  0.2083
 9659TIP3   OH250467   4.509   6.715   0.441 -0.3766  0.0580 -0.3596
 9659TIP3    H150468   4.446   6.738   0.510  2.0045 -0.2506  1.9830
 9659TIP3    H250469   4.465   6.646   0.391 -1.7040 -0.5295  1.5672
 9660TIP3   OH250470   2.597   3.378  15.861  0.4778  0.6233 -0.3755
 9660TIP3    H150471   2.609   3.312  15.792  2.0274  0.8828 -0.3665
 9660TIP3    H250472   2.622   3.460  15.820  3.0772  0.5542  0.9545
 9661TIP3   OH250473   2.422   4.142   4.721  0.2573 -0.0383 -0.3497
 9661TIP3    H150474   2.428   4.199   4.798  1.8283  1.4667 -1.5327
 9661TIP3    H250475   2.416   4.054   4.756  1.6976  0.5645  1.4871
 9662TIP3   OH250476   4.763   3.836   3.071  0.0307  0.1085  0.2162
 9662TIP3    H150477   4.843   3.844   3.020 -0.2274 -1.6322 -0.5026
 9662TIP3    H250478   4.785   3.775   3.141 -0.8570 -0.9138 -0.3878
 9663TIP3   OH250479   5.005   0.679  15.076 -0.2059  0.0452 -0.3349
 9663TIP3    H150480   5.026   0.662  15.168  0.2824  0.7977 -0.3063
 9663TIP3    H250481   5.066   0.623  15.027 -0.1782 -0.0337 -0.2097
 9664TIP3   OH250482   1.408   4.255  17.154 -0.1095  0.2829 -0.3385
 9664TIP3    H150483   1.341   4.190  17.132 -0.4847  0.3014  0.7265
 9664TIP3    H250484   1.491   4.210  17.138 -0.3700 -0.4206  0.2523
 9665TIP3   OH250485   0.173   0.532  11.790 -0.1640  0.0319  0.1042
 9665TIP3    H150486   0.146   0.537  11.698 -1.4577  1.4260  0.5265
 9665TIP3    H250487   0.098   0.493  11.835 -0.6869  1.9354  0.9621
 9666TIP3   OH250488   3.414   0.270   4.892 -0.3263  0.0109  0.0832
 9666TIP3    H150489   3.432   0.274   4.798  0.2852  0.1988  0.2049
 9666TIP3    H250490   3.332   0.317   4.903  0.1659  0.9594 -0.2176
 9667TIP3   OH250491   5.464   3.905   2.597  0.2084  0.0321 -0.3184
 9667TIP3    H150492   5.405   3.951   2.656  0.1430  0.7728 -0.9472
 9667TIP3    H250493   5.462   3.814   2.626 -0.1360  0.3160  0.5548
 9668TIP3   OH250494   1.545   3.338   5.707  0.6987  0.4543  0.2519
 9668TIP3    H150495   1.467   3.303   5.663 -0.4995  0.9098  1.9603
 9668TIP3    H250496   1.614   3.274   5.687 -0.5359 -0.8891  0.1741
 9669TIP3   OH250497   3.509   3.713  14.917 -0.4259  0.6442 -0.1216
 9669TIP3    H150498   3.601   3.700  14.893 -0.5735 -0.8399  0.0967
 9669TIP3    H250499   3.469   3.626  14.910 -1.8118  1.2727 -0.1906
 9670TIP3   OH250500   1.215   2.001   4.090  0.0934  0.2897  0.0047
 9670TIP3    H150501   1.263   2.022   4.170  0.6558  1.2495 -0.5665
 9670TIP3    H250502   1.149   1.937   4.117  2.7882 -2.3749  0.4886
 9671TIP3   OH250503   6.445   4.545  10.778 -0.4244 -0.4283  0.5499
 9671TIP3    H150504   6.365   4.552  10.726  0.0997 -1.2341 -0.3713
 9671TIP3    H250505   6.415   4.558  10.868 -1.7009 -1.3855  0.2824
 9672TIP3   OH250506   0.970   1.707  16.303  0.2550  0.3276  0.3199
 9672TIP3    H150507   0.948   1.675  16.390 -0.0388 -0.5827 -0.0759
 9672TIP3    H250508   0.886   1.724  16.261  0.1653 -3.6792 -1.3824
 9673TIP3   OH250509   5.653   4.762   4.634  0.3260 -0.0460  0.0789
 9673TIP3    H150510   5.738   4.786   4.671  0.7138 -0.4359 -0.5590
 9673TIP3    H250511   5.664   4.773   4.539 -0.4449  0.2599  0.0191
 9674TIP3   OH250512   5.884   5.903  15.444  0.0041  0.1432  0.3088
 9674TIP3    H150513   5.940   5.883  15.369  0.8550 -0.2650  1.0283
 9674TIP3    H250514   5.821   5.967  15.412 -0.4330 -0.9693 -1.0819
 9675TIP3   OH250515   0.889   5.560  16.883 -0.5166  0.0890 -0.5113
 9675TIP3    H150516   0.807   5.517  16.860 -0.1385 -0.3703 -1.0550
 9675TIP3    H250517   0.955   5.491  16.872  0.2490  1.0764 -2.4925
 9676TIP3   OH250518   0.660   6.307  12.902 -0.1953 -0.2925  0.2925
 9676TIP3    H150519   0.657   6.382  12.843  1.2188 -0.5410 -0.1109
 9676TIP3    H250520   0.655   6.231  12.844  1.2054 -0.5366  0.4771
 9677TIP3   OH250521   4.946   5.953   3.690  0.2140  0.0712 -0.1297
 9677TIP3    H150522   4.915   6.001   3.612 -0.8806  0.0102  0.2581
 9677TIP3    H250523   4.976   6.022   3.749 -0.5561  0.2356  0.0793
 9678TIP3   OH250524   0.923   6.680  16.051  0.7294 -0.1331 -0.0051
 9678TIP3    H150525   0.934   6.765  16.094 -1.7120 -0.8986  2.3048
 9678TIP3    H250526   0.990   6.625  16.091  1.2569  0.2753 -0.3214
 9679TIP3   OH250527   1.599   2.211  11.623  0.2423 -0.2703  0.1567
 9679TIP3    H150528   1.569   2.266  11.695 -1.3140 -0.8333 -0.0196
 9679TIP3    H250529   1.693   2.204  11.634  0.2966  1.4477  0.8625
 9680TIP3   OH250530   0.550   3.162   6.182 -0.3806 -0.1031  0.1755
 9680TIP3    H150531   0.614   3.146   6.252 -0.9471 -0.9153  0.5148
 9680TIP3    H250532   0.466   3.141   6.222 -0.6193 -1.4973 -1.0377
 9681TIP3   OH250533   0.268   0.068  11.450 -0.1050  0.2953 -0.7078
 9681TIP3    H150534   0.194   0.120  11.479 -1.2352 -2.0805  0.9034
 9681TIP3    H250535   0.232   0.010  11.383  0.5815 -0.0191 -0.8109
 9682TIP3   OH250536   0.824   3.364   1.398  0.0211 -0.2160 -0.1605
 9682TIP3    H150537   0.734   3.345   1.372 -0.1946  0.6511 -0.0667
 9682TIP3    H250538   0.842   3.450   1.360  1.1035 -0.7720 -0.9015
 9683TIP3   OH250539   3.051   2.594  15.288  0.2942  0.2238 -0.1395
 9683TIP3    H150540   3.076   2.512  15.330 -1.1963 -0.1435  0.0597
 9683TIP3    H250541   3.066   2.661  15.356  2.0524  0.2100 -0.4941
 9684TIP3   OH250542   5.416   4.861   1.371 -0.3075  0.4478 -0.4079
 9684TIP3    H150543   5.354   4.823   1.309 -1.3360  1.2064  0.1286
 9684TIP3    H250544   5.361   4.907   1.434  0.8594  2.1028 -0.5658
 9685TIP3   OH250545   1.045   3.668  11.606 -0.2936 -0.1430 -0.2661
 9685TIP3    H150546   0.958   3.701  11.628 -0.4165  0.3375 -1.4829
 9685TIP3    H250547   1.030   3.602  11.539  0.4430  1.3315 -1.8981
 9686TIP3   OH250548   3.951   0.615  11.534  0.2124 -0.5322 -0.0272
 9686TIP3    H150549   3.974   0.692  11.482  0.1300 -1.3236 -1.2583
 9686TIP3    H250550   4.028   0.599  11.589  0.1124  0.6011  0.4493
 9687TIP3   OH250551   5.358   4.238  12.360 -0.0040  0.6446 -0.0186
 9687TIP3    H150552   5.417   4.236  12.285 -0.5899  0.0964 -0.4811
 9687TIP3    H250553   5.371   4.324  12.400 -1.7730  2.1324 -2.4751
 9688TIP3   OH250554   4.783   0.796  15.273  0.9062  0.4239  0.2934
 9688TIP3    H150555   4.808   0.710  15.239  0.1744  0.5490 -0.5664
 9688TIP3    H250556   4.747   0.778  15.359  2.1711  0.0371  0.7640
 9689TIP3   OH250557   0.435   2.824  14.611 -0.1591 -0.0704  0.2232
 9689TIP3    H150558   0.460   2.884  14.681  0.1331 -0.2330  0.2584
 9689TIP3    H250559   0.398   2.748  14.656  0.8907 -0.5818  0.2499
 9690TIP3   OH250560   3.057   3.900  14.526  0.1306 -0.1936  0.2857
 9690TIP3    H150561   3.093   3.967  14.468 -0.6567  0.7417  0.8756
 9690TIP3    H250562   3.115   3.824  14.512  1.0051  0.5788 -0.4104
 9691TIP3   OH250563   2.406   1.814   1.035  0.4380  0.1880 -0.4244
 9691TIP3    H150564   2.489   1.840   0.996 -0.9890  1.0452 -2.9453
 9691TIP3    H250565   2.402   1.863   1.117  1.3913  1.8398 -1.3502
 9692TIP3   OH250566   0.888   5.448   0.200  0.1981  0.1400  0.7554
 9692TIP3    H150567   0.910   5.401   0.119  0.2218 -0.9216  1.3748
 9692TIP3    H250568   0.973   5.469   0.239  0.1961  0.9400  0.3654
 9693TIP3   OH250569   1.776   2.281  11.152 -0.0157  0.0948  0.6546
 9693TIP3    H150570   1.797   2.189  11.138  1.5276  0.3955  0.9674
 9693TIP3    H250571   1.810   2.301  11.239  0.1450  1.1055  0.3670
 9694TIP3   OH250572   2.782   4.882   0.371 -0.3832  0.1382 -0.9859
 9694TIP3    H150573   2.693   4.916   0.362 -0.3619  0.9461  1.4804
 9694TIP3    H250574   2.832   4.955   0.408  0.8303 -0.9468 -0.4612
 9695TIP3   OH250575   0.139   2.556   5.596 -0.0435  0.2809 -0.3328
 9695TIP3    H150576   0.160   2.634   5.545 -0.3354  1.8647  1.9151
 9695TIP3    H250577   0.103   2.589   5.678 -1.5474 -2.2487  0.0860
 9696TIP3   OH250578   3.625   0.249  13.896 -0.2087  0.3503  0.3560
 9696TIP3    H150579   3.700   0.279  13.845 -1.2018  2.8083  0.2925
 9696TIP3    H250580   3.626   0.304  13.974 -1.5111 -0.1318  0.7153
 9697TIP3   OH250581   2.297   4.075  12.604  0.1118 -0.7137 -0.6780
 9697TIP3    H150582   2.313   4.155  12.555  2.8497 -1.4470 -1.0958
 9697TIP3    H250583   2.250   4.018  12.543  2.4849 -1.1954 -2.1217
 9698TIP3   OH250584   2.899   2.527   2.115 -0.6553 -0.2055  0.4120
 9698TIP3    H150585   2.882   2.611   2.071 -1.0678 -0.3186  0.3543
 9698TIP3    H250586   2.859   2.462   2.058  2.8306 -0.8450 -1.4740
 9699TIP3   OH250587   6.021   5.730  11.008 -0.0058  0.2590  0.2612
 9699TIP3    H150588   6.073   5.746  10.930 -0.0775 -1.0528 -0.0648
 9699TIP3    H250589   5.931   5.748  10.981 -0.0646 -0.4960 -0.0448
 9700TIP3   OH250590   3.750   2.251  15.870 -0.2051 -0.1692 -0.0399
 9700TIP3    H150591   3.728   2.334  15.913  4.2927  1.5669 -0.8426
 9700TIP3    H250592   3.795   2.276  15.790  0.3748 -3.4228 -0.8081
 9701TIP3   OH250593   6.726   6.343  13.864 -0.4468 -0.0938 -0.3052
 9701TIP3    H150594   6.676   6.392  13.929  0.6642 -2.0067  2.1016
 9701TIP3    H250595   6.780   6.408  13.820 -0.5730  1.1340  1.3105
 9702TIP3   OH250596   1.427   5.009   2.377 -0.6847  0.2149  0.3315
 9702TIP3    H150597   1.337   5.017   2.346  0.5616  1.8244 -3.1779
 9702TIP3    H250598   1.446   5.093   2.419  0.7277  2.0299 -3.6374
 9703TIP3   OH250599   6.026   5.283  16.034  0.4777  0.0862  0.0009
 9703TIP3    H150600   5.961   5.321  15.975 -0.0921  2.3264  1.9704
 9703TIP3    H250601   5.974   5.244  16.104  1.1970 -0.8862 -0.0039
 9704TIP3   OH250602   3.227   0.706  16.028  0.3791 -0.1258  0.2935
 9704TIP3    H150603   3.175   0.625  16.027 -0.5256  0.4360  0.8416
 9704TIP3    H250604   3.282   0.700  15.950 -0.5461 -0.7230 -0.3300
 9705TIP3   OH250605   6.535   5.251  15.138 -0.2045 -0.1510  0.1681
 9705TIP3    H150606   6.488   5.223  15.217  2.0723  1.5182  2.2076
 9705TIP3    H250607   6.494   5.333  15.112 -0.0179  0.0538  0.5115
 9706TIP3   OH250608   5.771   3.527   5.179 -0.1176 -0.1409 -0.5628
 9706TIP3    H150609   5.681   3.553   5.202 -0.8051 -2.0911 -0.9306
 9706TIP3    H250610   5.822   3.547   5.257 -0.9669  0.5440 -0.1707
 9707TIP3   OH250611   1.973   6.675   4.858  0.1020  0.1307  0.4803
 9707TIP3    H150612   1.888   6.648   4.824 -0.1655  0.8053  0.5929
 9707TIP3    H250613   2.033   6.604   4.836 -0.1689  0.3543 -0.9768
 9708TIP3   OH250614   1.198   3.020  11.817 -0.0500  0.1733 -0.2265
 9708TIP3    H150615   1.281   3.049  11.854 -0.9270 -0.4683  2.3276
 9708TIP3    H250616   1.158   3.099  11.782  0.8130  0.7883  0.1550
 9709TIP3   OH250617   6.470   4.709   3.429  0.1017  0.1019  0.0524
 9709TIP3    H150618   6.546   4.678   3.380 -0.6386 -0.6206 -0.6566
 9709TIP3    H250619   6.431   4.775   3.372 -0.6513 -0.6022 -0.2563
 9710TIP3   OH250620   0.562   1.318   1.596 -0.3994  0.1298  0.0426
 9710TIP3    H150621   0.621   1.357   1.660  0.0596  0.9193 -0.8562
 9710TIP3    H250622   0.613   1.246   1.558 -0.3398  0.2394 -0.0857
 9711TIP3   OH250623   0.297   6.062   0.605 -0.1946 -0.5992  0.1372
 9711TIP3    H150624   0.382   6.093   0.574 -1.5796  1.6341 -1.6549
 9711TIP3    H250625   0.295   5.969   0.582  1.1116 -0.2903 -1.3060
 9712TIP3   OH250626   6.447   3.630   3.882 -0.3755  0.4375  0.2352
 9712TIP3    H150627   6.517   3.637   3.817 -1.4597 -0.1797 -1.0163
 9712TIP3    H250628   6.487   3.660   3.964  1.2382  0.4508 -0.5455
 9713TIP3   OH250629   2.629   0.087   0.517 -0.0542 -0.1604  0.1090
 9713TIP3    H150630   2.612  -0.007   0.529  0.9871 -0.0786  2.4394
 9713TIP3    H250631   2.718   0.100   0.550  0.3772  1.4043 -1.5759
 9714TIP3   OH250632   2.418   2.120   4.246  0.0542  0.3159  0.0387
 9714TIP3    H150633   2.472   2.051   4.285  1.8729  1.0153 -1.1332
 9714TIP3    H250634   2.351   2.073   4.196  0.1270 -0.5929  0.7815
 9715TIP3   OH250635   1.339   5.736   4.900  0.1491 -0.7906 -0.1018
 9715TIP3    H150636   1.299   5.778   4.824  0.6955 -1.1931 -0.6163
 9715TIP3    H250637   1.265   5.712   4.956 -0.1235  2.1477  0.8958
 9716TIP3   OH250638   2.334   0.442   0.922 -0.2427  0.1772  0.6409
 9716TIP3    H150639   2.424   0.447   0.954  0.5969  1.0518 -1.7634
 9716TIP3    H250640   2.291   0.382   0.982  2.3450 -1.4607  0.9461
 9717TIP3   OH250641   0.189   4.698   1.979  0.0476 -0.4586  0.1690
 9717TIP3    H150642   0.119   4.640   2.008 -0.7241 -0.8320 -2.3273
 9717TIP3    H250643   0.255   4.692   2.048 -0.3635 -3.6540  0.3416
 9718TIP3   OH250644   4.493   4.456  15.953 -0.8118  0.6049  0.0539
 9718TIP3    H150645   4.452   4.469  16.039  1.0465 -0.9738  1.2464
 9718TIP3    H250646   4.424   4.421  15.898 -2.0202  1.5701  0.9271
 9719TIP3   OH250647   4.539   4.331   3.113  0.8573 -0.2533 -0.4429
 9719TIP3    H150648   4.632   4.345   3.098  1.3701 -3.0562 -0.0432
 9719TIP3    H250649   4.522   4.374   3.197  1.5081  1.3128 -1.1007
 9720TIP3   OH250650   5.125   1.596   0.486  0.1002 -0.7737 -0.0510
 9720TIP3    H150651   5.099   1.656   0.556 -2.2667 -0.8310 -0.8567
 9720TIP3    H250652   5.206   1.634   0.451 -0.3957  0.9487  0.6257
 9721TIP3   OH250653   3.125   0.180  14.160  0.0398  1.0040 -0.4967
 9721TIP3    H150654   3.115   0.268  14.196 -0.6421  0.8179 -0.2225
 9721TIP3    H250655   3.206   0.184  14.109  0.0015  1.7968 -0.5066
 9722TIP3   OH250656   3.786   0.033  16.600 -0.5728  0.2600  0.2304
 9722TIP3    H150657   3.737  -0.028  16.545  0.8357  0.1452 -0.9158
 9722TIP3    H250658   3.837   0.086  16.539 -0.5761  1.5310  1.3071
 9723TIP3   OH250659   3.950   2.074   1.355 -0.1194  0.3413 -0.6325
 9723TIP3    H150660   4.008   2.141   1.320  1.2527 -0.1936  0.5320
 9723TIP3    H250661   3.863   2.112   1.351  0.6970  2.4160  0.4790
 9724TIP3   OH250662   5.386   6.630  14.525  0.1080  0.0049 -0.2926
 9724TIP3    H150663   5.439   6.696  14.479  0.9453 -1.2113 -1.0866
 9724TIP3    H250664   5.302   6.674  14.540  0.3996  1.0184 -1.4753
 9725TIP3   OH250665   1.963   5.444  14.788 -0.2748  0.0208  0.2564
 9725TIP3    H150666   2.042   5.405  14.825 -1.3263 -2.3871  0.0455
 9725TIP3    H250667   1.905   5.457  14.863 -0.8052 -0.9815  0.0270
 9726TIP3   OH250668   4.346   2.155   2.325 -0.4907 -0.2881 -0.1314
 9726TIP3    H150669   4.322   2.247   2.331  0.2259 -0.1501  0.6738
 9726TIP3    H250670   4.397   2.149   2.244  0.0623  0.1687  0.1722
 9727TIP3   OH250671   3.647   5.665  12.193 -0.0284  0.1927 -0.2330
 9727TIP3    H150672   3.656   5.570  12.204 -2.7227 -0.2259 -1.3282
 9727TIP3    H250673   3.659   5.700  12.281  1.1404 -1.1588  0.1602
 9728TIP3   OH250674   4.089   3.738  14.514 -0.2296  0.2093 -0.5395
 9728TIP3    H150675   4.036   3.765  14.590  0.5808  0.3683 -0.0209
 9728TIP3    H250676   4.075   3.806  14.449  0.9047  1.3215  0.3409
 9729TIP3   OH250677   0.438   2.200   0.180  0.1050 -0.1901  0.3219
 9729TIP3    H150678   0.391   2.146   0.243 -0.6891  0.5575  0.3812
 9729TIP3    H250679   0.387   2.195   0.100 -0.7996  1.6529  0.7597
 9730TIP3   OH250680   2.995   5.722   2.388 -0.7406  0.1072 -0.1507
 9730TIP3    H150681   2.968   5.639   2.347  0.0535 -0.9809  1.4746
 9730TIP3    H250682   3.021   5.697   2.476 -0.5516  2.1278  0.3716
 9731TIP3   OH250683   4.165   6.713   3.655 -0.1745 -0.4393  0.0706
 9731TIP3    H150684   4.195   6.762   3.731 -1.3439  1.1777 -0.4987
 9731TIP3    H250685   4.108   6.645   3.691  0.1611 -0.3773  0.7258
 9732TIP3   OH250686   1.906   6.030  12.800 -0.9860  0.3100 -0.2553
 9732TIP3    H150687   1.929   6.025  12.893 -0.2460  1.3945 -0.3742
 9732TIP3    H250688   1.888   6.122  12.784  1.5615  0.6239 -1.7919
 9733TIP3   OH250689   6.811   4.446  12.035 -0.5670 -0.2151 -0.5314
 9733TIP3    H150690   6.762   4.369  12.007 -0.0862 -0.5256 -0.5205
 9733TIP3    H250691   6.789   4.513  11.970 -1.7154 -0.0780 -0.0242
 9734TIP3   OH250692   6.282   4.739   5.598  0.6435 -0.3386  0.5512
 9734TIP3    H150693   6.316   4.826   5.580 -0.8379  0.4008  1.2770
 9734TIP3    H250694   6.328   4.682   5.536  2.1917  0.8253  0.5945
 9735TIP3   OH250695   3.758   4.053  15.896 -0.0104 -0.5023  0.5286
 9735TIP3    H150696   3.827   4.022  15.836  1.5975 -1.2304  2.6831
 9735TIP3    H250697   3.692   4.091  15.839  2.1351  0.0966 -1.6230
 9736TIP3   OH250698   0.388   2.451   0.793 -0.1140 -0.2100  0.0632
 9736TIP3    H150699   0.379   2.504   0.713  0.5064  0.8771  0.7013
 9736TIP3    H250700   0.317   2.480   0.850  1.3627  1.3365  1.1755
 9737TIP3   OH250701   1.486   6.120  15.691  0.4366 -0.5245 -0.2453
 9737TIP3    H150702   1.424   6.050  15.712  0.6007 -1.0517 -1.4378
 9737TIP3    H250703   1.560   6.104  15.749  0.3989 -1.2372 -0.3856
 9738TIP3   OH250704   3.878   0.067   4.393 -0.0343  0.2329 -0.3512
 9738TIP3    H150705   3.870   0.143   4.337  0.2376 -0.2529 -1.0510
 9738TIP3    H250706   3.897  -0.006   4.334  0.8349 -0.1785  0.4174
 9739TIP3   OH250707   5.409   3.500  12.558 -0.0632  0.0496 -0.2876
 9739TIP3    H150708   5.391   3.553  12.480 -2.3835 -2.0512 -1.2434
 9739TIP3    H250709   5.471   3.434  12.528 -1.2229 -0.9718 -0.4575
 9740TIP3   OH250710   4.643   2.164  16.575  0.3266  0.4734 -0.4170
 9740TIP3    H150711   4.630   2.148  16.482 -0.2411 -0.8012 -0.1247
 9740TIP3    H250712   4.733   2.135  16.592 -0.1756 -0.9893 -0.2056
 9741TIP3   OH250713   5.619   4.373   2.771 -0.4385  0.6704  0.0269
 9741TIP3    H150714   5.601   4.308   2.839 -0.4906  0.8117  0.1486
 9741TIP3    H250715   5.572   4.341   2.694  0.8391 -0.2726 -0.3762
 9742TIP3   OH250716   0.704   4.205   5.718  0.1900 -0.1595 -1.4096
 9742TIP3    H150717   0.640   4.238   5.781 -2.1617 -2.1084 -2.6660
 9742TIP3    H250718   0.730   4.282   5.668 -0.6097  0.7943 -0.3989
 9743TIP3   OH250719   0.173   2.087  13.388 -0.2139  0.0974  0.3894
 9743TIP3    H150720   0.136   2.159  13.439 -1.8938 -0.1362 -0.4786
 9743TIP3    H250721   0.198   2.126  13.305 -1.2541 -0.3475 -0.1366
 9744TIP3   OH250722   0.922   4.021   4.070 -0.1521 -0.6164 -0.0024
 9744TIP3    H150723   0.890   4.093   4.124 -1.5087 -0.7968 -0.5352
 9744TIP3    H250724   0.914   4.053   3.980 -1.3833 -1.6633 -0.2786
 9745TIP3   OH250725   2.711   4.892   3.219  0.1175  0.3724 -0.3766
 9745TIP3    H150726   2.770   4.819   3.199  0.8730  0.0856  2.6299
 9745TIP3    H250727   2.624   4.851   3.228 -0.0659  0.3755 -2.0422
 9746TIP3   OH250728   4.796   5.669   1.630 -0.0338  0.1763 -0.4109
 9746TIP3    H150729   4.771   5.628   1.547  0.7833 -0.2428 -0.4530
 9746TIP3    H250730   4.891   5.669   1.629 -0.0134  1.6125 -0.1693
 9747TIP3   OH250731   4.931   1.358  17.091  0.2889 -0.1634 -0.0571
 9747TIP3    H150732   4.911   1.426  17.155 -0.2794 -0.1615 -0.2292
 9747TIP3    H250733   4.847   1.314  17.076  0.2056  0.4508 -1.4871
 9748TIP3   OH250734   5.315   0.017   4.038  0.3990  0.0335  0.0557
 9748TIP3    H150735   5.302   0.054   3.951 -0.6658 -0.0837  0.1677
 9748TIP3    H250736   5.395   0.060   4.070  0.3800  0.6281 -0.6773
 9749TIP3   OH250737   1.825   6.707   3.844  0.7411 -0.1414  0.7519
 9749TIP3    H150738   1.904   6.660   3.817  0.2051 -0.2328 -0.6820
 9749TIP3    H250739   1.754   6.644   3.828  0.3133  0.1548  1.4754
 9750TIP3   OH250740   6.331   3.658  13.588 -0.1613  0.4805 -0.0539
 9750TIP3    H150741   6.332   3.563  13.598  1.7459  0.5741  0.9832
 9750TIP3    H250742   6.304   3.691  13.673  0.3345  0.8877 -0.0485
 9751TIP3   OH250743   6.443   3.340   4.858  0.1861  0.7210 -0.1852
 9751TIP3    H150744   6.467   3.321   4.949 -1.1787 -0.1290  0.0200
 9751TIP3    H250745   6.432   3.435   4.855 -0.3151  0.6979  0.6916
 9752TIP3   OH250746   3.423   0.625   2.140  0.2140 -0.7998  0.4008
 9752TIP3    H150747   3.334   0.627   2.175 -0.6398  0.5442 -1.6902
 9752TIP3    H250748   3.436   0.535   2.111 -1.0286 -0.6551 -0.6247
 9753TIP3   OH250749   4.059   3.424  13.110  0.4110  0.2937  0.4042
 9753TIP3    H150750   3.977   3.465  13.083  0.3777  0.5154  0.8457
 9753TIP3    H250751   4.036   3.375  13.189  0.3899 -0.7742 -0.2365
 9754TIP3   OH250752   3.871   2.822  13.021  0.6135  0.2835 -0.7976
 9754TIP3    H150753   3.782   2.847  12.995  0.4971 -0.9923 -1.6811
 9754TIP3    H250754   3.923   2.900  13.006 -0.2689  0.8881 -0.7628
 9755TIP3   OH250755   4.757   5.504   1.398  0.5639 -0.3015 -0.3944
 9755TIP3    H150756   4.790   5.439   1.337 -1.8454 -1.1311 -0.8364
 9755TIP3    H250757   4.676   5.535   1.359  1.3365  2.5474  0.1092
 9756TIP3   OH250758   4.322   4.042  13.769  0.0372 -0.6134 -0.1849
 9756TIP3    H150759   4.268   4.110  13.729  2.1846 -0.0390 -2.1835
 9756TIP3    H250760   4.312   4.056  13.863 -1.2259  1.1130 -0.5485
 9757TIP3   OH250761   1.860   3.240   5.830 -0.2858  0.7303  0.3992
 9757TIP3    H150762   1.863   3.334   5.809 -0.4715  1.0553  1.7839
 9757TIP3    H250763   1.808   3.235   5.910 -1.3610 -0.7001 -0.3760
 9758TIP3   OH250764   0.414   5.509   2.299  0.4996 -0.1547 -0.1390
 9758TIP3    H150765   0.470   5.582   2.327  0.4515 -0.1407 -0.0775
 9758TIP3    H250766   0.325   5.543   2.309  0.4021 -1.0206  2.1637
 9759TIP3   OH250767   4.607   1.361  16.009  0.0643 -0.2364 -0.2867
 9759TIP3    H150768   4.618   1.328  15.920 -0.4970  0.0219 -0.4483
 9759TIP3    H250769   4.685   1.414  16.025 -0.9752  1.7390 -1.5141
 9760TIP3   OH250770   6.550   3.400   3.281 -0.2322  0.0986 -0.8151
 9760TIP3    H150771   6.622   3.387   3.343  1.2913 -0.4599 -2.6589
 9760TIP3    H250772   6.503   3.476   3.314  0.6505 -0.0927  0.9369
 9761TIP3   OH250773   5.774   4.112   1.444  0.0984  0.3461  0.3807
 9761TIP3    H150774   5.699   4.129   1.501  0.2274 -0.9282  0.9550
 9761TIP3    H250775   5.847   4.098   1.505 -0.1219 -2.7892  0.0233
 9762TIP3   OH250776   2.896   4.756  14.958  0.0677  0.2570  0.0128
 9762TIP3    H150777   2.979   4.713  14.976  0.7720  1.4971 -0.1818
 9762TIP3    H250778   2.844   4.742  15.036  1.2318  1.2554  0.9836
 9763TIP3   OH250779   5.098   1.195  15.665  1.1424  0.1556  0.1637
 9763TIP3    H150780   5.101   1.275  15.717 -2.0121 -0.6701  1.7382
 9763TIP3    H250781   5.048   1.220  15.586  1.4931  0.1099 -0.0748
 9764TIP3   OH250782   1.862   2.420  16.161 -0.5321 -0.2379  0.0346
 9764TIP3    H150783   1.909   2.364  16.224  0.8365  0.8176 -0.0257
 9764TIP3    H250784   1.780   2.373  16.144 -0.7421 -0.7679  2.2695
 9765TIP3   OH250785   4.265   4.823  14.623  0.3316 -0.3304  0.0503
 9765TIP3    H150786   4.270   4.916  14.646  0.2382 -0.1579 -0.6309
 9765TIP3    H250787   4.244   4.779  14.706  0.0535  0.2863  0.3075
 9766TIP3   OH250788   5.430   4.624   0.535 -0.1323 -0.0503  0.1459
 9766TIP3    H150789   5.506   4.598   0.482 -0.9761 -1.1210 -0.5707
 9766TIP3    H250790   5.455   4.605   0.625  0.8856  0.6929  0.0229
 9767TIP3   OH250791   5.367   1.841  13.216 -0.1407 -0.1040 -0.3057
 9767TIP3    H150792   5.364   1.903  13.144  0.2228  0.8580  0.4910
 9767TIP3    H250793   5.278   1.840  13.251  0.3793  1.8538  1.2151
 9768TIP3   OH250794   0.616   5.785   1.925  0.2042 -0.9403 -0.1678
 9768TIP3    H150795   0.613   5.704   1.977 -2.2735 -0.1288  1.0534
 9768TIP3    H250796   0.554   5.769   1.854 -3.1408  1.1602  2.1367
 9769TIP3   OH250797   6.594   4.156  11.476 -0.2564  0.2427  0.2624
 9769TIP3    H150798   6.607   4.098  11.552 -0.4783 -0.0823  0.0534
 9769TIP3    H250799   6.682   4.166  11.439 -0.5069 -1.6223 -0.9072
 9770TIP3   OH250800   6.189   4.851   6.395 -0.1906  0.7199 -0.0053
 9770TIP3    H150801   6.249   4.886   6.461 -0.9751  3.3582 -0.6238
 9770TIP3    H250802   6.184   4.920   6.328 -1.3738 -0.8311 -1.5704
 9771TIP3   OH250803   1.334   6.256  12.526 -0.2742 -0.5876 -0.9519
 9771TIP3    H150804   1.275   6.301  12.465 -0.2198  0.9056  0.0722
 9771TIP3    H250805   1.390   6.325  12.561 -0.2958 -1.4164  0.7711
 9772TIP3   OH250806   4.801   3.158  11.854  0.3005  0.1713 -0.0148
 9772TIP3    H150807   4.778   3.101  11.780  0.0506  1.4859 -0.9660
 9772TIP3    H250808   4.718   3.173  11.898  0.5114 -0.9416  0.7908
 9773TIP3   OH250809   6.554   0.310   5.776  0.0167 -0.0049  0.1533
 9773TIP3    H150810   6.539   0.358   5.858 -0.7487 -1.7983  1.1089
 9773TIP3    H250811   6.511   0.363   5.709 -2.3465 -0.1845  1.4468
 9774TIP3   OH250812   1.680   4.247   0.144 -0.0431 -0.6768 -0.0809
 9774TIP3    H150813   1.685   4.265   0.050  0.5646 -0.0455  0.0623
 9774TIP3    H250814   1.655   4.331   0.183  0.9929 -0.6067  0.4411
 9775TIP3   OH250815   5.206   2.547  15.084 -0.2641 -0.3550  0.5186
 9775TIP3    H150816   5.196   2.633  15.044 -0.3631  0.3358  2.0027
 9775TIP3    H250817   5.230   2.565  15.175  0.1193 -1.8964  0.7368
 9776TIP3   OH250818   1.825   1.253  11.565 -0.2624 -0.1774  0.2771
 9776TIP3    H150819   1.885   1.326  11.582  1.8819 -2.2487  1.8369
 9776TIP3    H250820   1.819   1.249  11.470  0.9070  0.9601  0.1398
 9777TIP3   OH250821   1.660   6.209   3.092 -0.4833 -0.7643 -0.0880
 9777TIP3    H150822   1.606   6.256   3.028  1.5034  0.2959 -1.0257
 9777TIP3    H250823   1.728   6.166   3.040 -0.1283 -1.6880  1.1085
 9778TIP3   OH250824   6.147   0.724  13.652  1.0510 -0.4917  0.0200
 9778TIP3    H150825   6.146   0.660  13.581  1.2484 -1.4239  0.8342
 9778TIP3    H250826   6.063   0.769  13.644  1.0464 -0.6295 -0.7654
 9779TIP3   OH250827   1.264   0.842  13.581  0.3505 -0.7118  0.1932
 9779TIP3    H150828   1.219   0.865  13.500  1.8006 -3.1899 -1.3650
 9779TIP3    H250829   1.356   0.866  13.565  0.3979  0.1561  1.6724
 9780TIP3   OH250830   6.590   1.681  13.665 -0.2781  0.1420  0.1578
 9780TIP3    H150831   6.628   1.595  13.680  1.4905  1.1306  1.4677
 9780TIP3    H250832   6.578   1.718  13.752 -1.4633  1.0474 -0.3739
 9781TIP3   OH250833   4.596   3.760  14.613  0.1638 -0.5057 -0.3200
 9781TIP3    H150834   4.528   3.802  14.666  1.3525 -0.0984  0.8932
 9781TIP3    H250835   4.660   3.829  14.596 -0.1197 -0.6592 -2.1894
 9782TIP3   OH250836   5.328   3.934   6.095  0.5739  0.0408 -0.2100
 9782TIP3    H150837   5.242   3.970   6.070  0.3862 -0.0930  0.2477
 9782TIP3    H250838   5.316   3.903   6.184  1.2457  0.4811  0.0332
 9783TIP3   OH250839   3.485   2.069  13.211  0.1418  0.1140  0.6582
 9783TIP3    H150840   3.566   2.019  13.220 -0.3996 -1.2528 -1.7973
 9783TIP3    H250841   3.514   2.155  13.181  0.6142 -0.9149 -1.9805
 9784TIP3   OH250842   6.235   6.078  12.348  0.8788 -0.2946 -0.8452
 9784TIP3    H150843   6.312   6.078  12.291  1.1802  2.2278 -0.5016
 9784TIP3    H250844   6.264   6.121  12.428 -1.0215  1.1994 -0.9137
 9785TIP3   OH250845   5.058   3.927   4.731 -0.7402  0.8764  0.3954
 9785TIP3    H150846   5.130   3.913   4.792 -1.0136  0.5321  0.6389
 9785TIP3    H250847   5.005   3.848   4.737 -0.7407  0.8120 -0.3297
 9786TIP3   OH250848   2.626   0.961  13.492 -0.0786 -0.1266  0.0902
 9786TIP3    H150849   2.612   1.050  13.461  0.4308 -0.4509 -1.1022
 9786TIP3    H250850   2.654   0.971  13.583 -1.3614  0.8478  0.3911
 9787TIP3   OH250851   0.027   0.207  11.530 -0.4958 -0.2395  0.0828
 9787TIP3    H150852  -0.055   0.177  11.491 -0.7576 -0.1159  0.5376
 9787TIP3    H250853   0.026   0.302  11.519  0.1184 -0.3484 -0.9399
 9788TIP3   OH250854   6.019   1.112  17.165  0.7143 -0.0968  0.2339
 9788TIP3    H150855   6.047   1.153  17.246  1.2897  1.8268 -0.8921
 9788TIP3    H250856   5.994   1.023  17.189 -2.8155  1.5762  3.2113
 9789TIP3   OH250857   2.314   0.742  14.310 -0.3905  0.6636  0.1549
 9789TIP3    H150858   2.298   0.836  14.310  0.8261  0.8795  0.1857
 9789TIP3    H250859   2.407   0.733  14.287 -0.2100 -0.4668  1.2236
 9790TIP3   OH250860   0.054   1.244  17.203  0.1353  0.0518 -0.0937
 9790TIP3    H150861   0.039   1.207  17.290  0.2663 -0.9631 -0.5016
 9790TIP3    H250862   0.093   1.173  17.152  0.5869  0.8095 -0.8223
 9791TIP3   OH250863   5.884   1.859  14.645 -0.1004  0.1208  0.8687
 9791TIP3    H150864   5.954   1.924  14.657  1.8576 -1.9878  1.2415
 9791TIP3    H250865   5.864   1.864  14.551 -0.4211  1.7122  1.0160
 9792TIP3   OH250866   0.663   0.755  16.235 -0.6059 -0.1821 -0.6356
 9792TIP3    H150867   0.664   0.844  16.269 -0.5669 -0.1580 -0.6994
 9792TIP3    H250868   0.634   0.765  16.144  0.1619 -0.1543 -0.8768
 9793TIP3   OH250869   6.119   0.938   1.400  0.3912 -0.1064  0.4591
 9793TIP3    H150870   6.191   0.881   1.373 -0.5750 -0.9324 -0.3743
 9793TIP3    H250871   6.044   0.881   1.408 -0.4748  0.9588  0.1031
 9794TIP3   OH250872   4.847   5.141  11.093  0.1623 -0.1957  0.6663
 9794TIP3    H150873   4.921   5.144  11.153  0.5020  2.8039  0.1685
 9794TIP3    H250874   4.838   5.231  11.062 -2.6207 -0.8671 -0.5876
 9795TIP3   OH250875   3.737   1.431  16.271 -0.7659 -0.2434 -0.3398
 9795TIP3    H150876   3.704   1.356  16.320  1.1870 -0.3659  0.8059
 9795TIP3    H250877   3.800   1.394  16.209 -1.0368  0.2700 -0.9392
 9796TIP3   OH250878   0.688   6.075   3.217 -0.0620  0.6278 -0.0381
 9796TIP3    H150879   0.648   6.128   3.286  0.3760  1.2476 -0.2503
 9796TIP3    H250880   0.648   6.107   3.137 -1.0475 -0.5403 -0.0144
 9797TIP3   OH250881   4.706   6.563   1.492  0.6090  0.5176 -0.4186
 9797TIP3    H150882   4.625   6.571   1.442 -0.0694  0.1439  0.6031
 9797TIP3    H250883   4.768   6.621   1.447  0.1779 -0.2107 -1.9999
 9798TIP3   OH250884   1.429   5.264  11.083  1.0703 -0.3635 -0.1942
 9798TIP3    H150885   1.435   5.297  10.993 -0.0534  0.4081  0.0105
 9798TIP3    H250886   1.469   5.176  11.079 -1.5686 -1.5329 -2.0668
 9799TIP3   OH250887   2.269   3.546  13.049  0.4716  0.1547  0.0484
 9799TIP3    H150888   2.195   3.539  12.988 -0.2084  2.2962  0.6051
 9799TIP3    H250889   2.244   3.491  13.123  0.4548 -0.9457 -0.7657
 9800TIP3   OH250890   1.069   4.232  15.629 -0.8507 -0.3214  0.0204
 9800TIP3    H150891   1.106   4.143  15.625  0.2654  0.0431  1.6623
 9800TIP3    H250892   1.135   4.287  15.587 -0.8953 -0.0884  0.2523
 9801TIP3   OH250893   2.313   4.945  14.996  0.1688  0.2972 -0.1355
 9801TIP3    H150894   2.322   5.003  14.920  1.8422  0.8806  0.4781
 9801TIP3    H250895   2.359   4.865  14.970  1.1173  0.6604  0.4244
 9802TIP3   OH250896   3.880   2.315  15.596  0.3934  0.1171 -0.4726
 9802TIP3    H150897   3.920   2.253  15.536  0.9732 -0.3518  0.3966
 9802TIP3    H250898   3.787   2.315  15.572  0.4119 -0.9790 -0.5595
 9803TIP3   OH250899   4.818   3.930  12.799  0.0927  0.2404  0.0498
 9803TIP3    H150900   4.799   3.931  12.893  0.0336 -0.9813  0.0607
 9803TIP3    H250901   4.852   3.842  12.782  3.1515  1.4573 -0.4929
 9804TIP3   OH250902   2.266   2.154   3.288  0.2374  0.4090  0.3773
 9804TIP3    H150903   2.344   2.100   3.276 -0.8777 -0.7110 -2.0674
 9804TIP3    H250904   2.228   2.123   3.370  1.5981  0.0252  0.8816
 9805TIP3   OH250905   6.607   3.687   0.461 -0.5601 -0.0489 -0.0681
 9805TIP3    H150906   6.634   3.632   0.388  0.4679  0.0222  0.2449
 9805TIP3    H250907   6.521   3.653   0.486  0.5691 -2.3197  0.8875
 9806TIP3   OH250908   6.803   1.572  15.791  0.0669 -0.1200  0.4875
 9806TIP3    H150909   6.865   1.502  15.809  0.3789  0.2168  0.7588
 9806TIP3    H250910   6.796   1.619  15.875 -0.4083 -0.0422  0.4063
 9807TIP3   OH250911   5.335   3.052  11.656 -0.2048  0.1493 -0.0930
 9807TIP3    H150912   5.382   3.135  11.661  1.5754 -0.8812  1.1113
 9807TIP3    H250913   5.301   3.037  11.744 -0.2862 -0.5176 -0.2322
 9808TIP3   OH250914   0.700   5.572  14.953  0.2598 -0.0790 -0.6443
 9808TIP3    H150915   0.687   5.666  14.969  1.3410  0.0124 -0.2390
 9808TIP3    H250916   0.613   5.534  14.960 -0.0923  0.8028 -0.1328
 9809TIP3   OH250917   6.380   2.871  13.169 -0.4783 -0.6739  0.0381
 9809TIP3    H150918   6.327   2.805  13.212  1.3890 -1.1944  1.5707
 9809TIP3    H250919   6.319   2.944  13.154 -1.9010 -1.7093  0.6652
 9810TIP3   OH250920   3.887   3.660   0.159 -0.1099 -0.0064  0.1900
 9810TIP3    H150921   3.872   3.613   0.076  0.5817 -1.7547  1.0313
 9810TIP3    H250922   3.980   3.680   0.158 -0.4883  1.7897 -0.3694
 9811TIP3   OH250923   5.702   2.158   5.612 -0.1314 -0.2849  0.0336
 9811TIP3    H150924   5.692   2.090   5.678  1.4798 -0.2687  0.3337
 9811TIP3    H250925   5.645   2.131   5.540  0.4582 -1.9428  0.1718
 9812TIP3   OH250926   3.988   5.681   0.990 -0.0748 -0.1616  0.4059
 9812TIP3    H150927   4.009   5.739   0.917 -0.9728 -0.7841 -0.3639
 9812TIP3    H250928   3.896   5.698   1.009  0.1873  0.0731  1.4632
 9813TIP3   OH250929   3.354   1.525   0.244 -0.0593 -0.3328 -0.0829
 9813TIP3    H150930   3.442   1.487   0.246  0.2716  0.3800 -0.6209
 9813TIP3    H250931   3.295   1.451   0.252  0.6080 -0.5398  3.8624
 9814TIP3   OH250932   3.351   2.098  11.551 -0.0382 -0.3950  0.5554
 9814TIP3    H150933   3.431   2.146  11.572 -0.0813 -0.7861  1.6475
 9814TIP3    H250934   3.336   2.115  11.458  0.8665  0.3374  0.5417
 9815TIP3   OH250935   5.495   4.113   4.337 -0.0590  0.0548 -0.5854
 9815TIP3    H150936   5.552   4.038   4.322  1.5887  1.5494 -2.0556
 9815TIP3    H250937   5.408   4.075   4.352  0.9665 -2.1692 -0.0589
 9816TIP3   OH250938   3.178   2.576   3.367 -0.0771 -0.2999  0.0534
 9816TIP3    H150939   3.256   2.527   3.391  0.1838 -0.2892 -0.7594
 9816TIP3    H250940   3.182   2.655   3.421  1.7328  0.8380 -1.6871
 9817TIP3   OH250941   1.396   2.393   1.175 -0.1542 -0.4808 -0.3948
 9817TIP3    H150942   1.406   2.461   1.108 -1.9446 -0.8067 -1.0340
 9817TIP3    H250943   1.456   2.324   1.148  0.1056 -0.0575 -0.9220
 9818TIP3   OH250944   0.324   1.980  16.575  0.2018  0.7746  0.2868
 9818TIP3    H150945   0.271   1.997  16.497  0.2376  0.6075  0.2270
 9818TIP3    H250946   0.335   2.067  16.615 -2.4646  0.4463  1.8340
 9819TIP3   OH250947   2.616   0.874   2.986  0.2054 -0.2149  0.2195
 9819TIP3    H150948   2.542   0.935   2.982  0.3818  0.2431  3.1127
 9819TIP3    H250949   2.575   0.787   2.987 -0.1497 -0.0825 -1.2272
 9820TIP3   OH250950   4.787   1.959  15.294  0.3979 -0.2860  0.2606
 9820TIP3    H150951   4.732   1.970  15.371 -0.1073 -1.7907  0.1102
 9820TIP3    H250952   4.749   2.018  15.229  0.3394  0.3747  0.8800
 9821TIP3   OH250953   5.362   3.886   1.020  0.1331  0.5317 -0.9913
 9821TIP3    H150954   5.275   3.914   0.992 -0.1315  2.1464  1.3249
 9821TIP3    H250955   5.392   3.829   0.950 -2.4876  0.5346 -2.1764
 9822TIP3   OH250956   3.703   2.103   3.347 -0.1476 -0.1601  0.0808
 9822TIP3    H150957   3.703   2.017   3.304 -0.0943 -0.7805  1.3036
 9822TIP3    H250958   3.736   2.085   3.435  1.4567  1.3848 -0.1812
 9823TIP3   OH250959   0.550   2.749   6.634  0.2705 -0.3463 -0.1363
 9823TIP3    H150960   0.486   2.684   6.661  0.4865 -1.2748 -1.7857
 9823TIP3    H250961   0.502   2.808   6.575  0.0590  1.0522  1.3885
 9824TIP3   OH250962   4.766   2.227   1.472 -0.2948  0.5926 -0.3542
 9824TIP3    H150963   4.774   2.243   1.566 -1.0635 -0.3338 -0.1266
 9824TIP3    H250964   4.690   2.279   1.444  0.1925  1.2080 -0.5527
 9825TIP3   OH250965   3.034   0.842  16.443 -0.2326 -0.3196  0.3478
 9825TIP3    H150966   3.058   0.925  16.484 -0.8159 -0.5895  1.2687
 9825TIP3    H250967   3.116   0.809  16.406 -0.1366  0.9661 -0.5852
 9826TIP3   OH250968   6.520   2.936  12.896  0.3601 -0.7659 -0.2702
 9826TIP3    H150969   6.495   2.939  12.988 -0.0627 -0.2895 -0.3953
 9826TIP3    H250970   6.615   2.943  12.896  0.1245  3.4916 -0.0418
 9827TIP3   OH250971   2.904   0.070  15.211 -0.1520 -0.4355 -0.1753
 9827TIP3    H150972   2.866   0.094  15.127 -0.8346  1.5305  0.6670
 9827TIP3    H250973   2.949   0.149  15.241 -2.3003 -0.2040  2.6289
 9828TIP3   OH250974   5.772   1.397   2.675 -0.2200 -0.5075 -0.4167
 9828TIP3    H150975   5.724   1.399   2.592 -2.0512  2.0231  0.6134
 9828TIP3    H250976   5.752   1.311   2.712 -0.4768 -1.1380 -1.9906
 9829TIP3   OH250977   6.528   2.282   3.165  0.3662  0.0289 -0.0581
 9829TIP3    H150978   6.523   2.191   3.194 -0.7357 -0.3426 -1.3894
 9829TIP3    H250979   6.622   2.297   3.153  0.4590 -1.4769 -1.4701
 9830TIP3   OH250980   5.780   3.703  10.904 -0.8664 -0.4068  0.2222
 9830TIP3    H150981   5.808   3.665  10.821  2.7232  2.6478 -0.1247
 9830TIP3    H250982   5.710   3.646  10.934 -2.1380 -1.7738 -4.7725
 9831TIP3   OH250983   2.167   5.450   4.000  0.8251  0.3670  0.0439
 9831TIP3    H150984   2.171   5.358   4.028  1.8668  0.1725 -0.7234
 9831TIP3    H250985   2.228   5.495   4.058  2.0024  0.1856 -1.0348
 9832TIP3   OH250986   2.262   1.205  13.305  0.7296  0.1451  0.3372
 9832TIP3    H150987   2.315   1.272  13.262  0.4652 -0.2968 -0.6908
 9832TIP3    H250988   2.205   1.254  13.365  2.7450  0.5755  1.9470
 9833TIP3   OH250989   3.952   5.848   0.725 -0.3844  0.3887 -0.2694
 9833TIP3    H150990   4.005   5.838   0.646  0.8235 -0.4257  0.6185
 9833TIP3    H250991   3.862   5.840   0.695  0.0555  0.3776 -1.6092
 9834TIP3   OH250992   1.334   4.288   4.740 -0.3951  0.6355  0.0243
 9834TIP3    H150993   1.366   4.237   4.814 -1.1261  1.2810  0.7924
 9834TIP3    H250994   1.274   4.352   4.778 -2.0375 -0.0669 -1.2790
 9835TIP3   OH250995   3.527   0.973   3.505  0.2560  0.0536  0.6798
 9835TIP3    H150996   3.449   0.935   3.463  0.3171  0.2795  0.3596
 9835TIP3    H250997   3.509   1.067   3.507  0.3686  0.0682  0.9233
 9836TIP3   OH250998   3.332   4.954   3.949 -0.6932  0.2493  0.1156
 9836TIP3    H150999   3.383   4.986   3.875 -0.6172  0.0034  0.0627
 9836TIP3    H251000   3.353   4.861   3.955  0.9759  0.7270  1.8202
 9837TIP3   OH251001   3.308   1.566  12.025  0.3498 -0.2464  0.1456
 9837TIP3    H151002   3.320   1.473  12.046  0.7479 -0.0754  0.6930
 9837TIP3    H251003   3.215   1.582  12.040  0.0388 -0.8430 -1.1107
 9838TIP3   OH251004   4.498   2.187   3.957  0.8466  0.4547 -0.2835
 9838TIP3    H151005   4.446   2.158   4.032 -2.2168  3.9710 -0.8695
 9838TIP3    H251006   4.460   2.141   3.882 -0.0015  1.3715 -0.4235
 9839TIP3   OH251007   6.513   2.980  11.145 -0.7371 -0.3794 -0.2941
 9839TIP3    H151008   6.422   3.008  11.150 -0.5619  0.2488 -0.5881
 9839TIP3    H251009   6.511   2.886  11.166 -1.6248 -0.6911 -1.6983
 9840TIP3   OH251010   5.404   2.392  13.580 -0.0942  0.0049  0.2844
 9840TIP3    H151011   5.359   2.475  13.564  0.8580  0.2636 -1.1163
 9840TIP3    H251012   5.415   2.354  13.493  0.8791 -0.8691  0.7833
 9841TIP3   OH251013   3.230   1.763   5.572  0.3972  0.0288  0.4755
 9841TIP3    H151014   3.248   1.824   5.644 -0.9474 -0.4743  1.2677
 9841TIP3    H251015   3.229   1.677   5.614 -2.5130 -0.0758  0.2885
 9842TIP3   OH251016   6.818   6.150  17.079  0.1090  0.1618  0.4783
 9842TIP3    H151017   6.737   6.140  17.029  0.8257  1.0100 -0.8923
 9842TIP3    H251018   6.805   6.228  17.132  0.6996  1.3977 -1.1396
 9843TIP3   OH251019   0.086   0.888   1.641  0.3461 -0.6079  0.0940
 9843TIP3    H151020   0.002   0.854   1.610 -1.1104 -0.1467  3.2926
 9843TIP3    H251021   0.129   0.812   1.681  0.6741 -0.4570  0.0282
 9844TIP3   OH251022   5.057   3.529   2.614  0.0494  0.6844 -0.1255
 9844TIP3    H151023   4.965   3.537   2.639 -0.3666  0.1664 -1.4241
 9844TIP3    H251024   5.088   3.451   2.659 -0.1844  0.7773  0.1985
 9845TIP3   OH251025   4.589   2.678   5.157 -0.2567  0.1913  0.3531
 9845TIP3    H151026   4.666   2.735   5.165 -0.9373  0.8722  2.4533
 9845TIP3    H251027   4.625   2.591   5.141  0.8445  0.9535 -1.5286
 9846TIP3   OH251028   5.221   0.336  16.152 -0.1739 -0.4865 -0.4726
 9846TIP3    H151029   5.263   0.333  16.238 -1.9753 -0.4112  0.4237
 9846TIP3    H251030   5.261   0.411  16.108 -1.2256  1.1667  1.3483
 9847TIP3   OH251031   0.753   2.281  14.076 -0.3619 -0.3961  0.4933
 9847TIP3    H151032   0.828   2.333  14.049  0.2593 -1.9895 -0.9509
 9847TIP3    H251033   0.774   2.255  14.166  0.0549  0.5359  0.6650
 9848TIP3   OH251034   5.754   6.750   1.014 -0.1527 -0.6730 -0.6198
 9848TIP3    H151035   5.792   6.670   1.051  2.4086  0.4190 -0.7530
 9848TIP3    H251036   5.797   6.821   1.062 -2.8867  0.6425 -0.0488
 9849TIP3   OH251037   1.320   3.636  14.458  0.1510  0.3461  0.2157
 9849TIP3    H151038   1.245   3.690  14.432 -0.9138 -1.5169 -0.6323
 9849TIP3    H251039   1.345   3.589  14.379  1.6242  0.2324  0.7341
 9850TIP3   OH251040   0.450   6.511  15.006 -0.1818  0.4381  0.0038
 9850TIP3    H151041   0.481   6.420  15.014  1.1872  0.7592 -1.4718
 9850TIP3    H251042   0.465   6.549  15.093  1.5444 -0.0589 -0.0537
 9851TIP3   OH251043   5.569   3.182  15.996  0.7598  0.5437  0.0572
 9851TIP3    H151044   5.612   3.183  15.910  3.6085  2.2537  1.4041
 9851TIP3    H251045   5.511   3.257  15.995 -1.2566 -0.9931 -1.3007
 9852TIP3   OH251046   4.303   3.294   5.714 -0.4152  0.2748  0.4603
 9852TIP3    H151047   4.375   3.335   5.760 -0.5865 -0.1242  1.0957
 9852TIP3    H251048   4.303   3.203   5.746 -2.1207  0.6537  1.5923
 9853TIP3   OH251049   0.196   4.991  10.798 -0.5349 -0.1507 -0.3896
 9853TIP3    H151050   0.153   5.075  10.814  0.7066  0.3378  0.3463
 9853TIP3    H251051   0.187   4.978  10.703 -3.4240 -0.6666 -0.1019
 9854TIP3   OH251052   4.135   1.330   1.196  0.0682  0.1230  0.2033
 9854TIP3    H151053   4.197   1.337   1.122 -1.4949 -0.4147 -1.1889
 9854TIP3    H251054   4.117   1.420   1.220 -0.2096  0.3314 -0.7603
 9855TIP3   OH251055   0.113   5.283   4.767  0.2284 -0.6387 -0.3157
 9855TIP3    H151056   0.122   5.211   4.705  1.8355 -0.1169 -0.6917
 9855TIP3    H251057   0.054   5.344   4.724 -2.2500 -2.3144  0.5634
 9856TIP3   OH251058   6.496   2.904  11.587  0.4221 -1.0065 -0.2503
 9856TIP3    H151059   6.509   2.902  11.492 -0.5339 -1.1461 -0.3787
 9856TIP3    H251060   6.404   2.880  11.599  1.1951 -3.6067  0.8687
 9857TIP3   OH251061   1.604   3.804   3.880 -0.6064  0.2702 -0.4801
 9857TIP3    H151062   1.617   3.829   3.971 -0.1377  1.4172 -0.8520
 9857TIP3    H251063   1.616   3.885   3.831  0.6303 -0.6206 -1.6869
 9858TIP3   OH251064   5.978   4.668   6.161 -0.0743  0.1185 -0.1477
 9858TIP3    H151065   6.011   4.646   6.248  2.2488  1.4035 -0.6619
 9858TIP3    H251066   6.046   4.640   6.100 -1.7933 -1.0303 -1.6117
 9859TIP3   OH251067   1.619   2.972   2.462 -0.2799  0.0319 -0.2748
 9859TIP3    H151068   1.526   2.969   2.485 -0.0077 -0.0431  0.8286
 9859TIP3    H251069   1.629   2.906   2.394 -1.1062  0.2892 -0.6440
 9860TIP3   OH251070   2.332   2.321  16.280  0.2952 -0.0021 -0.3224
 9860TIP3    H151071   2.304   2.366  16.200 -0.9205 -0.9674 -0.4551
 9860TIP3    H251072   2.253   2.314  16.332  1.0069  0.2672  0.8072
 9861TIP3   OH251073   2.503   5.428   5.660  0.2873 -0.1882 -0.1681
 9861TIP3    H151074   2.446   5.382   5.599 -0.0560 -0.4317  0.3302
 9861TIP3    H251075   2.444   5.460   5.728  0.7796 -0.6636  0.4907
 9862TIP3   OH251076   0.805   0.715  13.543 -0.0097 -0.0037 -0.0398
 9862TIP3    H151077   0.806   0.807  13.570  1.6310  0.7857 -2.6099
 9862TIP3    H251078   0.824   0.717  13.449 -0.1323 -2.9661 -0.1772
 9863TIP3   OH251079   0.626   3.429  12.903  0.1875 -0.0502  0.2002
 9863TIP3    H151080   0.625   3.521  12.929 -2.5527  0.3321 -0.9887
 9863TIP3    H251081   0.701   3.421  12.844  0.8334  1.2710  0.8177
 9864TIP3   OH251082   2.577   5.495  17.179  0.1629  0.3423 -0.6905
 9864TIP3    H151083   2.523   5.470  17.255 -0.0133 -0.8477 -1.1944
 9864TIP3    H251084   2.607   5.412  17.143 -0.4650  0.8627 -2.4414
 9865TIP3   OH251085   3.004   4.523   5.878  0.5155  0.3950  0.4094
 9865TIP3    H151086   2.957   4.565   5.950 -2.8693 -2.1486 -0.2329
 9865TIP3    H251087   2.953   4.544   5.800  1.5878 -0.7276 -0.6244
 9866TIP3   OH251088   3.208   4.015   5.355 -0.4269  0.1265 -0.4347
 9866TIP3    H151089   3.263   4.086   5.321  0.5406  0.2402  1.3165
 9866TIP3    H251090   3.170   4.051   5.435  0.2865 -1.4042  0.6207
 9867TIP3   OH251091   2.322   3.525  11.926 -0.1600 -0.0025  1.2411
 9867TIP3    H151092   2.261   3.478  11.983 -2.3379  0.4057 -0.6853
 9867TIP3    H251093   2.343   3.605  11.975 -3.4550  1.2396  0.7563
 9868TIP3   OH251094   0.456   4.391   3.742 -0.0562  0.3637 -0.4986
 9868TIP3    H151095   0.422   4.481   3.735 -2.0167 -0.4761 -2.4937
 9868TIP3    H251096   0.393   4.346   3.798  0.4409 -0.0067 -0.2318
 9869TIP3   OH251097   0.424   3.543  16.779  0.2899  0.6543 -0.1542
 9869TIP3    H151098   0.339   3.576  16.806 -0.2135  0.5891 -1.6501
 9869TIP3    H251099   0.432   3.567  16.687  1.1149 -0.9170 -0.5127
 9870TIP3   OH251100   4.339   0.612   0.835  0.2317 -0.1964  0.3144
 9870TIP3    H151101   4.287   0.648   0.906  2.2205  0.6308  1.4067
 9870TIP3    H251102   4.365   0.525   0.866  0.7379 -0.0055  0.4450
 9871TIP3   OH251103   5.685   6.100  11.523  0.1691 -0.3038 -0.4494
 9871TIP3    H151104   5.699   6.016  11.566 -0.6828 -0.2627 -0.0915
 9871TIP3    H251105   5.655   6.158  11.592  0.1848  0.1438 -0.8137
 9872TIP3   OH251106   0.884   2.362   0.179 -0.1888  1.1049 -0.2038
 9872TIP3    H151107   0.839   2.400   0.103 -2.4264 -1.0486 -0.0325
 9872TIP3    H251108   0.942   2.296   0.141 -0.1306  1.1273 -0.1533
 9873TIP3   OH251109   0.865   2.621   5.894  0.6862  0.0428 -0.5405
 9873TIP3    H151110   0.959   2.608   5.881  0.5298 -0.5719 -1.0980
 9873TIP3    H251111   0.827   2.610   5.807  0.1471  0.7372 -0.3946
 9874TIP3   OH251112   5.296   6.068   5.869  0.1372  0.2467  0.0547
 9874TIP3    H151113   5.260   5.980   5.875 -1.0689  0.6837 -0.7006
 9874TIP3    H251114   5.221   6.126   5.879  0.7560  1.1745 -0.5870
 9875TIP3   OH251115   6.163   0.982  13.465  0.0331  0.2594  0.3804
 9875TIP3    H151116   6.134   0.993  13.556  0.1514 -1.8688  0.7169
 9875TIP3    H251117   6.242   0.928  13.472  0.2498  0.3841 -0.9624
 9876TIP3   OH251118   5.338   0.364  13.130 -0.0864  0.1481  0.2280
 9876TIP3    H151119   5.395   0.437  13.154  1.9067 -1.1202 -0.4826
 9876TIP3    H251120   5.315   0.380  13.039 -1.1337  0.8108  0.5991
 9877TIP3   OH251121   3.895   0.491   1.359  0.3555  0.2365  0.2824
 9877TIP3    H151122   3.955   0.515   1.288 -1.0997 -0.7548 -1.3065
 9877TIP3    H251123   3.908   0.398   1.372  0.8934  0.4812  1.6199
 9878TIP3   OH251124   0.701   3.981   6.335 -0.4607  0.7994 -0.5331
 9878TIP3    H151125   0.676   4.056   6.389 -0.5060  0.4533 -0.0677
 9878TIP3    H251126   0.724   4.019   6.251  0.1939  1.4074 -0.0881
 9879TIP3   OH251127   1.895   2.264  15.238  0.0231  0.1277 -0.5307
 9879TIP3    H151128   1.967   2.210  15.270 -0.2230 -0.3650 -0.8016
 9879TIP3    H251129   1.910   2.272  15.144  0.5062  1.2133 -0.3607
 9880TIP3   OH251130   2.052   3.849   4.521 -0.0328 -0.0568 -0.1975
 9880TIP3    H151131   2.070   3.757   4.502  0.5901 -0.2732  1.3810
 9880TIP3    H251132   2.080   3.895   4.441  1.8321 -1.0072 -0.1274
 9881TIP3   OH251133   6.206   1.689   5.754  0.3542 -0.2815 -0.3262
 9881TIP3    H151134   6.300   1.701   5.770  0.2907  1.4811 -1.1419
 9881TIP3    H251135   6.165   1.767   5.792 -0.9730 -1.8600  1.5628
 9882TIP3   OH251136   5.418   6.154  11.583 -0.5090 -0.2389 -0.3960
 9882TIP3    H151137   5.331   6.132  11.616  0.6051 -2.7289  1.0090
 9882TIP3    H251138   5.421   6.117  11.495 -0.6310 -0.8016 -0.1677
 9883TIP3   OH251139   2.217   5.706  12.773  0.0021  0.4896 -0.2557
 9883TIP3    H151140   2.181   5.624  12.737 -0.7388 -0.5425  2.6371
 9883TIP3    H251141   2.307   5.684  12.796  0.3936  1.0669 -1.2174
 9884TIP3   OH251142   2.431   1.667   1.944 -0.0482  0.5313 -0.2840
 9884TIP3    H151143   2.419   1.577   1.973 -0.0792  0.4653 -0.4959
 9884TIP3    H251144   2.402   1.721   2.018  2.3378  0.3861  0.7957
 9885TIP3   OH251145   4.615   0.130  12.802  0.1528 -0.0277 -0.3806
 9885TIP3    H151146   4.664   0.131  12.720 -0.7011  1.2234 -0.8812
 9885TIP3    H251147   4.533   0.175  12.783  0.9416  2.4611  1.7540
 9886TIP3   OH251148   3.244   4.535   0.362  0.4417 -0.0886 -0.0366
 9886TIP3    H151149   3.246   4.629   0.345 -1.8172  0.1322  0.7927
 9886TIP3    H251150   3.163   4.505   0.322 -0.2657 -1.1834  2.1508
 9887TIP3   OH251151   0.138   6.515  12.834 -0.2217 -0.2220  0.2624
 9887TIP3    H151152   0.120   6.423  12.855  0.1669 -0.3635 -0.0252
 9887TIP3    H251153   0.229   6.528  12.862  0.1099 -0.2461 -0.7680
 9888TIP3   OH251154   5.621   0.856   3.202  0.4686  0.3216  0.3183
 9888TIP3    H151155   5.609   0.889   3.290  0.2218 -0.2404  0.5013
 9888TIP3    H251156   5.539   0.811   3.182  1.2498 -1.2864  0.5717
 9889TIP3   OH251157   2.366   3.252   5.991  0.0251  0.3570  0.0031
 9889TIP3    H151158   2.417   3.272   6.070  1.4942 -1.1545 -0.5457
 9889TIP3    H251159   2.277   3.278   6.013  0.5371  0.5332  1.9453
 9890TIP3   OH251160   6.678   1.231  14.330  0.0049 -0.5052  0.4851
 9890TIP3    H151161   6.662   1.193  14.416 -2.2197 -0.1359  0.2651
 9890TIP3    H251162   6.649   1.164  14.268 -1.4593  0.4771  0.0782
 9891TIP3   OH251163   5.138   1.402   3.881 -0.9567 -0.0286 -0.2139
 9891TIP3    H151164   5.060   1.453   3.903 -1.5573 -1.1683  0.3794
 9891TIP3    H251165   5.207   1.467   3.867 -2.1695  1.0257 -1.4059
 9892TIP3   OH251166   3.351   3.276   4.642  0.1282  0.5798  0.7809
 9892TIP3    H151167   3.263   3.238   4.643 -0.0844  0.9946 -0.6559
 9892TIP3    H251168   3.375   3.279   4.549  0.7746  2.5132  0.9849
 9893TIP3   OH251169   6.673   6.706  15.618 -0.1403 -0.6633 -0.0486
 9893TIP3    H151170   6.618   6.716  15.541  0.0163  1.0703  0.0575
 9893TIP3    H251171   6.618   6.657  15.680 -0.9570 -0.3771 -0.5453
 9894TIP3   OH251172   4.207   6.457   4.005  0.2416  0.0550 -0.5849
 9894TIP3    H151173   4.259   6.470   3.926  1.7391  0.1985  0.3964
 9894TIP3    H251174   4.146   6.531   4.007  2.7050  2.1457  0.3155
 9895TIP3   OH251175   1.862   3.302  15.988 -0.3392  0.3502  0.2050
 9895TIP3    H151176   1.850   3.355  16.068  1.3517  0.4392  0.4161
 9895TIP3    H251177   1.869   3.212  16.020 -0.2231  0.3201  0.0924
 9896TIP3   OH251178   2.063   3.074   5.793  0.2789  0.1294 -0.0899
 9896TIP3    H151179   1.997   3.136   5.823  0.4467  0.1207  0.3003
 9896TIP3    H251180   2.087   3.025   5.872 -1.4390 -1.9230 -0.7890
 9897TIP3   OH251181   5.673   4.487  15.897 -0.3059  0.0792 -0.2288
 9897TIP3    H151182   5.738   4.522  15.835  1.0359 -0.3743  0.8910
 9897TIP3    H251183   5.684   4.392  15.892 -0.2677  0.0388  0.6280
 9898TIP3   OH251184   0.071   5.514   0.905 -0.7084  0.3048  0.1058
 9898TIP3    H151185   0.041   5.424   0.912  0.3302 -0.0855 -0.2959
 9898TIP3    H251186   0.149   5.509   0.849 -1.3395  1.6045 -0.9229
 9899TIP3   OH251187   6.284   0.347  13.562  0.2642  0.0146  0.0755
 9899TIP3    H151188   6.191   0.342  13.583  0.7010 -0.7909  1.9506
 9899TIP3    H251189   6.295   0.433  13.522 -1.3758 -0.0967 -0.6414
 9900TIP3   OH251190   6.105   3.193  11.487 -0.6072 -0.1173  0.1346
 9900TIP3    H151191   6.121   3.278  11.528 -0.0089 -0.3384  0.3627
 9900TIP3    H251192   6.190   3.168  11.451 -0.9410 -0.3064 -0.5199
 9901TIP3   OH251193   5.341   5.774   0.763  0.1202  0.0526 -0.1582
 9901TIP3    H151194   5.331   5.806   0.673 -1.2464  2.3059  0.7545
 9901TIP3    H251195   5.353   5.679   0.754 -2.0122 -0.0367 -2.6209
 9902TIP3   OH251196   3.441   4.001   1.595 -0.0878 -0.0464  0.2478
 9902TIP3    H151197   3.369   3.939   1.595 -2.5485  2.6651  2.0200
 9902TIP3    H251198   3.497   3.972   1.667 -0.1368 -1.3390 -0.2163
 9903TIP3   OH251199   6.265   0.889   3.042 -0.2401  0.5199 -0.1097
 9903TIP3    H151200   6.231   0.954   3.103  0.2771  1.0485 -0.3726
 9903TIP3    H251201   6.360   0.895   3.052 -0.1935 -0.3876  0.0602
 9904TIP3   OH251202   3.415   2.695   1.225  0.1775  0.6808  0.0073
 9904TIP3    H151203   3.492   2.688   1.169  1.0846 -1.7660  1.4633
 9904TIP3    H251204   3.341   2.683   1.166  1.0710 -0.5701 -0.9028
 9905TIP3   OH251205   0.290   0.314  11.331 -0.2851 -0.0759  0.2670
 9905TIP3    H151206   0.244   0.276  11.256 -0.5915  0.1688  0.3266
 9905TIP3    H251207   0.317   0.239  11.384  1.4219 -0.3340 -0.9413
 9906TIP3   OH251208   4.982   3.965   1.333 -0.1625  0.2884 -0.3883
 9906TIP3    H151209   5.038   4.030   1.376 -0.2356 -0.8494  1.4408
 9906TIP3    H251210   4.931   4.016   1.270 -0.2165  2.0117  1.0143
 9907TIP3   OH251211   4.198   4.572  16.166 -0.0660 -0.1622 -0.4906
 9907TIP3    H151212   4.151   4.520  16.230 -0.8312  1.7034  0.5106
 9907TIP3    H251213   4.287   4.579  16.201 -0.0466 -0.5345 -0.4688
 9908TIP3   OH251214   2.769   1.587   5.206 -0.0504 -0.2302  0.1234
 9908TIP3    H151215   2.838   1.523   5.222  0.8583  0.8356  0.5523
 9908TIP3    H251216   2.801   1.639   5.132 -0.9266 -0.4687 -0.4293
 9909TIP3   OH251217   0.637   4.086  13.921  0.2810  0.0294 -0.4826
 9909TIP3    H151218   0.715   4.114  13.970  0.3337  0.3823 -0.7627
 9909TIP3    H251219   0.671   4.024  13.856  0.8583  2.7056 -2.8315
 9910TIP3   OH251220   1.687   4.367  12.209 -0.1145  0.3591 -0.0541
 9910TIP3    H151221   1.697   4.334  12.120  2.4110 -0.6028  0.5245
 9910TIP3    H251222   1.662   4.459  12.199 -0.5224  0.0757 -1.7398
 9911TIP3   OH251223   6.011   4.681  15.468 -0.1391  0.3543 -0.1654
 9911TIP3    H151224   5.952   4.744  15.510  0.7616  2.2350 -1.6692
 9911TIP3    H251225   5.953   4.625  15.416 -0.7298  1.3885 -0.6328
 9912TIP3   OH251226   1.845   3.404  16.235  0.0887  0.4959  0.3857
 9912TIP3    H151227   1.845   3.483  16.289  1.6926  0.6884  0.1157
 9912TIP3    H251228   1.873   3.334  16.294  0.3317  0.4258  0.1852
 9913TIP3   OH251229   6.454   0.547   2.151 -0.0105  0.4383  0.6295
 9913TIP3    H151230   6.532   0.571   2.201  0.8932  0.5835 -0.8063
 9913TIP3    H251231   6.403   0.492   2.210  2.7277 -2.3555  0.5114
 9914TIP3   OH251232   4.038   3.482   4.979  0.0067 -0.3167  0.3965
 9914TIP3    H151233   4.079   3.413   4.928  1.4682  0.4912  0.4584
 9914TIP3    H251234   4.030   3.445   5.067  1.0092 -0.3248  0.4905
 9915TIP3   OH251235   6.801   5.304  12.257 -0.3673 -0.2446 -0.3024
 9915TIP3    H151236   6.732   5.341  12.312  1.6821  0.6553  1.7306
 9915TIP3    H251237   6.881   5.317  12.307  1.4818 -0.0880 -3.1829
 9916TIP3   OH251238   4.223   1.921   1.227  0.0668 -0.0095  0.0607
 9916TIP3    H151239   4.285   1.973   1.278 -0.4537  0.4246  0.2495
 9916TIP3    H251240   4.274   1.888   1.153  1.0625 -1.3617  1.3145
 9917TIP3   OH251241   0.701   3.818   0.892 -0.3029  0.0907 -0.6227
 9917TIP3    H151242   0.632   3.751   0.886 -1.1948  0.8991  0.3600
 9917TIP3    H251243   0.761   3.785   0.958 -1.1441  0.6152  0.4050
 9918TIP3   OH251244   2.045   5.343   0.822 -0.4127 -0.5446 -0.0575
 9918TIP3    H151245   1.995   5.335   0.903  1.3695 -0.6969  1.0362
 9918TIP3    H251246   2.063   5.436   0.813  0.1553 -0.6312  0.1857
 9919TIP3   OH251247   3.477   5.025  11.886  0.1879  0.2719  0.4294
 9919TIP3    H151248   3.469   5.119  11.868 -1.3533 -0.0303 -0.5386
 9919TIP3    H251249   3.448   4.983  11.805  0.7881 -1.0508  0.8960
 9920TIP3   OH251250   0.018   6.139  16.623 -0.0354 -0.2033 -0.2061
 9920TIP3    H151251   0.015   6.203  16.552  1.1167  0.0965 -0.0037
 9920TIP3    H251252   0.023   6.055  16.579  1.3503  0.0188 -0.4962
 9921TIP3   OH251253   4.582   5.246   1.334 -0.4222 -0.1212  0.3236
 9921TIP3    H151254   4.521   5.193   1.384 -0.6102  1.1231  1.4629
 9921TIP3    H251255   4.657   5.257   1.392  0.4078 -0.7281 -0.6387
 9922TIP3   OH251256   6.363   3.992  10.537 -0.2120  0.5878  0.0398
 9922TIP3    H151257   6.429   4.047  10.495 -0.7564  0.3351 -1.1936
 9922TIP3    H251258   6.407   3.908  10.550  0.5576  1.2254  1.7459
 9923TIP3   OH251259   0.037   5.718   1.760  0.2235  0.2317 -0.5762
 9923TIP3    H151260   0.083   5.635   1.774  0.9157  0.8326  0.8273
 9923TIP3    H251261  -0.054   5.698   1.784  0.9251  0.5888  2.5866
 9924TIP3   OH251262   5.936   0.914   2.445 -0.1834 -0.1769 -0.4985
 9924TIP3    H151263   5.871   0.976   2.477 -0.2306 -1.5214  2.2010
 9924TIP3    H251264   6.011   0.926   2.502 -0.1542 -2.4759  0.0114
 9925TIP3   OH251265   4.495   3.951   3.954 -0.2040 -0.3233  0.1816
 9925TIP3    H151266   4.493   3.970   4.048 -1.9441  0.1148  0.0721
 9925TIP3    H251267   4.404   3.935   3.931  0.3281 -1.4848 -1.2350
 9926TIP3   OH251268   2.075   4.456  12.498 -0.0950  0.3935 -0.8482
 9926TIP3    H151269   2.012   4.478  12.429  1.3783  2.6781 -1.5272
 9926TIP3    H251270   2.044   4.502  12.575  0.4375  1.0729 -1.0386
 9927TIP3   OH251271   4.257   5.707  15.962  0.5800 -0.4120  0.2076
 9927TIP3    H151272   4.207   5.633  15.927  0.8738  1.0755 -3.6033
 9927TIP3    H251273   4.344   5.671  15.977  0.0750 -1.4355  0.7309
 9928TIP3   OH251274   5.942   2.929   2.354 -0.3022 -0.0478 -0.2489
 9928TIP3    H151275   5.868   2.978   2.317 -0.4004  1.4582  1.8162
 9928TIP3    H251276   5.902   2.849   2.388 -0.9596  0.6367  0.6204
 9929TIP3   OH251277   5.076   6.274   5.174 -0.2572  0.3067  0.2369
 9929TIP3    H151278   5.034   6.233   5.099  0.0785  0.0976  0.1631
 9929TIP3    H251279   5.043   6.364   5.173  0.0204  0.4040 -0.3660
 9930TIP3   OH251280   2.745   5.566   4.805 -0.8228  0.5482 -0.2303
 9930TIP3    H151281   2.705   5.628   4.866  2.6048  1.2754  1.3494
 9930TIP3    H251282   2.759   5.487   4.857 -1.4314 -0.1752 -1.1434
 9931TIP3   OH251283   6.400   1.605  14.879  0.1255  0.3721 -0.1392
 9931TIP3    H151284   6.416   1.600  14.973 -0.6700  0.7856  0.0197
 9931TIP3    H251285   6.418   1.516  14.847 -1.3090 -0.2231  0.6721
 9932TIP3   OH251286   6.049   1.985   5.091 -0.4813 -0.7445  0.2409
 9932TIP3    H151287   6.073   1.993   5.184  0.7469 -1.0094 -0.0479
 9932TIP3    H251288   5.994   2.062   5.075 -0.0683 -0.2766  0.9967
 9933TIP3   OH251289   0.139   5.010  12.063 -0.4121  0.3130  0.8368
 9933TIP3    H151290   0.189   5.062  12.127 -0.8564  2.1293 -0.2527
 9933TIP3    H251291   0.068   5.068  12.036 -0.2996 -0.4818 -1.2227
 9934TIP3   OH251292   5.227   2.189   6.748  0.8672 -0.6874  0.0472
 9934TIP3    H151293   5.263   2.247   6.681  1.1568 -0.5545  0.3169
 9934TIP3    H251294   5.264   2.103   6.727  2.5124 -0.2687  1.1892
 9935TIP3   OH251295   5.607   5.547  16.543  0.2550  0.1894  0.0546
 9935TIP3    H151296   5.675   5.485  16.517  1.5592  2.2345 -1.5137
 9935TIP3    H251297   5.616   5.555  16.638  2.1530  0.3979 -0.1372
 9936TIP3   OH251298   2.169   2.845  15.028  0.1880  0.1097  0.1438
 9936TIP3    H151299   2.181   2.909  14.958  0.8080 -0.4393 -0.2641
 9936TIP3    H251300   2.255   2.842  15.071 -0.2259  0.5315  1.0018
 9937TIP3   OH251301   1.805   5.522  14.994 -0.3057  0.0561 -0.2267
 9937TIP3    H151302   1.822   5.576  15.072 -0.0889 -1.8619  1.0976
 9937TIP3    H251303   1.753   5.449  15.027 -0.5467 -0.5899 -1.9871
 9938TIP3   OH251304   3.226   5.779   3.653  0.2801  0.0323 -0.8117
 9938TIP3    H151305   3.234   5.705   3.713  1.2756  0.2549 -0.6669
 9938TIP3    H251306   3.176   5.744   3.579 -0.6919 -0.3261  0.0025
 9939TIP3   OH251307   0.260   0.745   6.145 -0.7516  0.4490  0.6453
 9939TIP3    H151308   0.288   0.788   6.225  1.4771  2.1032 -0.9707
 9939TIP3    H251309   0.190   0.800   6.110  1.0523  1.9756 -0.6240
 9940TIP3   OH251310   2.121   4.584  15.737 -0.2928 -0.0032  0.4238
 9940TIP3    H151311   2.069   4.610  15.813 -0.0806 -1.0411  0.9233
 9940TIP3    H251312   2.057   4.574  15.667 -0.6582 -0.3602  0.8045
 9941TIP3   OH251313   0.197   3.674  12.791 -0.4798  0.1796  0.4217
 9941TIP3    H151314   0.134   3.711  12.730  0.4164  0.0967 -0.5714
 9941TIP3    H251315   0.149   3.667  12.874 -1.8563 -0.1647 -0.3851
 9942TIP3   OH251316   3.141   6.194   6.757  0.1450  0.9613  0.2620
 9942TIP3    H151317   3.187   6.277   6.748 -1.5578  2.0090  0.8282
 9942TIP3    H251318   3.066   6.214   6.813 -1.8096 -0.3411 -1.7818
 9943TIP3   OH251319   1.107   3.746   1.599  0.2651 -0.1374 -0.5580
 9943TIP3    H151320   1.016   3.776   1.590  0.6748  1.1154 -0.6893
 9943TIP3    H251321   1.155   3.796   1.533  0.8374 -1.7916 -1.4037
 9944TIP3   OH251322   3.869   2.078   4.938  0.0930 -0.1761  0.4283
 9944TIP3    H151323   3.856   2.099   4.845 -1.4388 -0.1167  0.6541
 9944TIP3    H251324   3.781   2.074   4.975  0.6673 -0.7041  1.7790
 9945TIP3   OH251325   6.123   5.833  15.008 -0.9774 -0.0977 -0.1040
 9945TIP3    H151326   6.124   5.745  14.972  1.5750  0.7046 -2.1444
 9945TIP3    H251327   6.110   5.890  14.932  1.5642  1.4687  0.5902
 9946TIP3   OH251328   4.122   5.445  12.103 -1.0680  0.0180 -0.1204
 9946TIP3    H151329   4.096   5.537  12.110  2.8173  1.2148 -0.3844
 9946TIP3    H251330   4.140   5.432  12.010 -0.0771 -0.5309  0.1355
 9947TIP3   OH251331   5.426   3.905  15.628  0.5551  0.4487 -0.2720
 9947TIP3    H151332   5.412   3.991  15.667 -0.0963 -0.2021  0.9614
 9947TIP3    H251333   5.339   3.865  15.625  0.5402  0.5484 -2.6229
 9948TIP3   OH251334   6.644   0.025  12.471  0.2651  0.5068  0.5789
 9948TIP3    H151335   6.626  -0.057  12.518 -0.2784  0.8246  0.9282
 9948TIP3    H251336   6.682   0.083  12.538  1.7435  0.1586  0.0668
 9949TIP3   OH251337   6.032   1.811  15.410 -0.7733 -0.6122  0.9116
 9949TIP3    H151338   6.112   1.830  15.459 -0.4536  1.2488 -0.3297
 9949TIP3    H251339   6.017   1.888  15.356 -2.5433 -1.5987 -0.0484
 9950TIP3   OH251340   0.682   4.978   3.962 -0.1590  0.6465  0.0973
 9950TIP3    H151341   0.630   5.034   3.905 -1.4207 -1.0156 -0.4167
 9950TIP3    H251342   0.704   4.902   3.908 -0.2018 -0.2989  1.3808
 9951TIP3   OH251343   2.453   4.387   3.843  0.6562 -0.6630 -0.2007
 9951TIP3    H151344   2.547   4.380   3.859  0.3254 -1.3100  1.5524
 9951TIP3    H251345   2.443   4.373   3.749  2.4370  0.7856 -0.6271
 9952TIP3   OH251346   1.762   5.259  16.755 -0.1561 -0.2259 -0.3974
 9952TIP3    H151347   1.854   5.233  16.758 -0.7880 -2.5213  0.3214
 9952TIP3    H251348   1.750   5.296  16.667  1.2245 -0.7698 -0.8250
 9953TIP3   OH251349   5.042   0.152   2.095 -0.2283  0.0522 -1.2775
 9953TIP3    H151350   5.082   0.173   2.011  0.4230  2.4137 -0.4301
 9953TIP3    H251351   5.112   0.168   2.159 -0.9682 -0.8917 -0.2185
 9954TIP3   OH251352   3.271   5.217   3.938  0.1390 -0.1734 -0.1316
 9954TIP3    H151353   3.344   5.259   3.892 -0.4185 -0.2235 -1.0702
 9954TIP3    H251354   3.276   5.125   3.912 -0.4320 -0.1223 -0.4265
 9955TIP3   OH251355   1.973   3.500   3.780 -0.0172 -0.1764  0.3904
 9955TIP3    H151356   1.986   3.594   3.770  0.5790 -0.2477  0.4789
 9955TIP3    H251357   2.060   3.462   3.768 -0.2273 -0.7027  0.5031
 9956TIP3   OH251358   1.744   4.714   5.781  0.0892 -0.1568 -0.1722
 9956TIP3    H151359   1.799   4.719   5.860  0.2312  0.7203 -0.3249
 9956TIP3    H251360   1.655   4.724   5.815  0.1137 -0.3096 -0.0613
 9957TIP3   OH251361   2.126   3.177  11.404 -0.0366 -0.5254  0.0122
 9957TIP3    H151362   2.061   3.194  11.336 -0.8855  4.6675  1.8681
 9957TIP3    H251363   2.077   3.182  11.486  2.1127  0.1936  1.3026
 9958TIP3   OH251364   0.295   2.999   6.031 -0.1297 -0.0470 -0.4822
 9958TIP3    H151365   0.290   3.030   6.121 -2.0947 -2.2650  0.2153
 9958TIP3    H251366   0.371   2.941   6.030 -0.8960 -1.0821  0.1152
 9959TIP3   OH251367   2.023   5.442   2.753 -0.3428 -0.2665  0.0587
 9959TIP3    H151368   2.093   5.492   2.710 -0.8097  0.7180  0.4099
 9959TIP3    H251369   2.047   5.442   2.845 -0.1842 -0.9788  0.0209
 9960TIP3   OH251370   4.997   4.850   3.759 -0.0665  0.4343  0.6130
 9960TIP3    H151371   5.060   4.789   3.720 -0.1307  1.1166 -0.5988
 9960TIP3    H251372   5.019   4.851   3.852  2.3985  1.4542  0.0577
 9961TIP3   OH251373   2.306   1.988  14.439  0.0454 -0.1582  0.1536
 9961TIP3    H151374   2.310   2.027  14.526  0.4855 -1.4732  0.7326
 9961TIP3    H251375   2.386   1.935  14.433 -0.3138 -0.5990 -0.7962
 9962TIP3   OH251376   1.270   3.043  12.599 -0.1176 -0.4681 -0.1058
 9962TIP3    H151377   1.274   3.138  12.613 -0.2335 -0.0628 -2.5525
 9962TIP3    H251378   1.341   3.026  12.537 -0.1001 -1.9986  0.3191
 9963TIP3   OH251379   4.495   3.731   4.474 -0.5636 -0.2356  0.5361
 9963TIP3    H151380   4.473   3.799   4.537 -0.8253  0.7765 -0.6343
 9963TIP3    H251381   4.428   3.738   4.407 -0.5303 -1.5804  0.3465
 9964TIP3   OH251382   4.279   0.831  16.886  0.7337  0.2529 -0.4128
 9964TIP3    H151383   4.344   0.763  16.868 -0.2654 -0.4751 -1.3033
 9964TIP3    H251384   4.328   0.898  16.935  1.2198 -2.0276  2.3589
 9965TIP3   OH251385   3.806   4.312  14.482  0.2469 -0.0310 -0.0254
 9965TIP3    H151386   3.754   4.392  14.496 -0.4688 -0.6973  1.2184
 9965TIP3    H251387   3.764   4.269  14.407 -0.7181 -0.3102  0.6577
 9966TIP3   OH251388   0.033   2.165   3.979  0.3733  0.0947 -0.1513
 9966TIP3    H151389   0.090   2.239   3.958  2.4231 -0.8342  1.8782
 9966TIP3    H251390   0.090   2.104   4.027 -1.9848 -1.5230  0.6825
 9967TIP3   OH251391   6.030   4.009  14.678  0.7828  0.2407 -0.2964
 9967TIP3    H151392   6.080   3.954  14.618  1.0791 -0.2430  0.3941
 9967TIP3    H251393   6.000   3.950  14.747  0.4532  0.7934  0.0428
 9968TIP3   OH251394   3.478   0.989  11.281 -0.7478  0.9167 -0.3330
 9968TIP3    H151395   3.449   0.976  11.372  0.6441  0.9483  0.1338
 9968TIP3    H251396   3.415   1.052  11.245 -2.6059 -0.7409 -0.0672
 9969TIP3   OH251397   3.470   1.951   1.732  0.2106  0.0520 -0.0416
 9969TIP3    H151398   3.542   1.939   1.672 -0.4183 -1.5097 -0.5096
 9969TIP3    H251399   3.444   1.863   1.758 -0.4859  0.6355  1.3724
 9970TIP3   OH251400   3.217   0.322   6.151 -0.0436  0.1399  0.2607
 9970TIP3    H151401   3.284   0.307   6.084  0.9523 -0.3122  1.3588
 9970TIP3    H251402   3.137   0.287   6.112  0.4163  0.3553 -0.9145
 9971TIP3   OH251403   3.514   2.118   1.040  0.3746 -0.0243  0.3742
 9971TIP3    H151404   3.460   2.133   1.118  1.2693 -2.2872  1.4986
 9971TIP3    H251405   3.525   2.022   1.037  1.9224  0.1774 -1.4699
 9972TIP3   OH251406   4.426   5.415   4.158 -0.3636  0.2034  0.3489
 9972TIP3    H151407   4.377   5.446   4.235  0.6436 -0.8725  1.4538
 9972TIP3    H251408   4.452   5.495   4.112 -1.0624  0.8593  1.0825
 9973TIP3   OH251409   2.365   2.101   0.166  0.4736  0.3052  0.2746
 9973TIP3    H151410   2.356   2.183   0.118 -1.6405 -0.2693 -0.3484
 9973TIP3    H251411   2.460   2.086   0.170  0.7541  1.1987 -2.2959
 9974TIP3   OH251412   3.619   1.568   0.665 -0.1353 -0.1688 -0.2689
 9974TIP3    H151413   3.534   1.524   0.661 -0.2200 -0.0401  0.0280
 9974TIP3    H251414   3.677   1.516   0.610  0.2685 -1.7679  1.5900
 9975TIP3   OH251415   3.982   6.738   0.266 -0.2521 -0.4240 -0.4932
 9975TIP3    H151416   3.887   6.741   0.260 -0.2237 -0.1613 -0.8040
 9975TIP3    H251417   4.006   6.653   0.228 -0.4157 -0.8135  0.2696
 9976TIP3   OH251418   5.132   1.143   0.457  0.7369  0.1488 -0.9329
 9976TIP3    H151419   5.092   1.204   0.395  1.7883 -0.2334 -1.9854
 9976TIP3    H251420   5.140   1.194   0.538  0.2828  0.9594 -1.3884
 9977TIP3   OH251421   2.087   2.306  11.860  0.0664  0.4188  0.3900
 9977TIP3    H151422   2.112   2.334  11.948  1.2250  0.3338  0.0952
 9977TIP3    H251423   2.153   2.344  11.802  0.7038 -1.4977 -0.1963
 9978TIP3   OH251424   6.284   1.653  13.796 -0.3937  0.5182 -0.4553
 9978TIP3    H151425   6.359   1.653  13.737  0.4109 -1.5168  0.5173
 9978TIP3    H251426   6.321   1.633  13.882 -1.9604  0.0047  0.1248
 9979TIP3   OH251427   0.180   2.101  15.522 -0.4495  0.3850  0.3825
 9979TIP3    H151428   0.184   2.011  15.553 -0.3047  0.3731  0.3293
 9979TIP3    H251429   0.102   2.137  15.564 -0.3985  0.2932  0.5574
 9980TIP3   OH251430   3.658   0.542   0.516 -0.2274 -0.1386  0.5342
 9980TIP3    H151431   3.603   0.554   0.438 -1.4250 -2.4137  0.9902
 9980TIP3    H251432   3.747   0.543   0.482 -0.6842  0.1238 -0.7035
 9981TIP3   OH251433   2.718   2.721   3.583  0.2049  0.1999 -0.4182
 9981TIP3    H151434   2.628   2.721   3.615  0.6906 -0.1392  0.9915
 9981TIP3    H251435   2.724   2.643   3.528 -0.1722 -0.1706  0.0602
 9982TIP3   OH251436   4.392   2.092   1.357  0.3887  0.1674 -0.1253
 9982TIP3    H151437   4.436   2.124   1.278 -0.4538  1.8252  0.0442
 9982TIP3    H251438   4.384   2.169   1.413 -3.7695  0.2395 -0.6577
 9983TIP3   OH251439   3.946   4.022  13.973 -0.2145  0.0149  0.1109
 9983TIP3    H151440   3.936   3.927  13.986  0.5243  0.0406  1.0039
 9983TIP3    H251441   4.026   4.031  13.922  0.2599  0.1850  0.8624
 9984TIP3   OH251442   5.502   6.159   3.512 -0.3388 -0.2077  0.0268
 9984TIP3    H151443   5.574   6.101   3.537  0.6756 -0.2240 -2.7139
 9984TIP3    H251444   5.493   6.219   3.586  0.6310 -1.9474  1.6065
 9985TIP3   OH251445   4.224   5.749   2.677 -0.1049 -0.2865 -0.1048
 9985TIP3    H151446   4.289   5.804   2.721  0.8122 -2.5212  1.3988
 9985TIP3    H251447   4.150   5.746   2.738 -0.0200 -0.9886 -0.0359
 9986TIP3   OH251448   3.682   6.429  13.789 -0.2769 -0.2750  0.2762
 9986TIP3    H151449   3.717   6.410  13.876  1.1888  0.6636 -0.0936
 9986TIP3    H251450   3.713   6.357  13.734  1.6424  0.8837 -0.1886
 9987TIP3   OH251451   0.827   0.279  16.303 -0.6713  0.6591 -0.2732
 9987TIP3    H151452   0.817   0.187  16.279 -2.2774  0.5711  0.6970
 9987TIP3    H251453   0.738   0.310  16.319 -0.0348  2.0082  0.7729
 9988TIP3   OH251454   6.415   4.758  17.196  0.0769 -0.5566  0.5352
 9988TIP3    H151455   6.397   4.813  17.272 -2.3064 -0.9148  0.2596
 9988TIP3    H251456   6.483   4.697  17.227  0.7107  0.6916  1.6831
 9989TIP3   OH251457   0.013   5.827   1.420 -0.2492  0.1166  0.0527
 9989TIP3    H151458   0.026   5.912   1.376 -0.5395  0.5214  0.7456
 9989TIP3    H251459  -0.082   5.818   1.425 -0.2227  0.2654  0.9591
 9990TIP3   OH251460   4.724   3.530   2.213  0.1084 -0.4242  0.6786
 9990TIP3    H151461   4.775   3.478   2.150  0.2985 -0.9956  1.2940
 9990TIP3    H251462   4.732   3.620   2.181  0.6931 -0.6301  0.2161
 9991TIP3   OH251463   5.860   6.427  16.997  0.0056  0.6015 -0.3261
 9991TIP3    H151464   5.832   6.510  17.035  3.0299  0.3607  2.6488
 9991TIP3    H251465   5.915   6.387  17.065  0.0851 -2.9952 -2.4057
 9992TIP3   OH251466   1.465   0.253  14.319  0.8767  0.4966  0.4158
 9992TIP3    H151467   1.553   0.217  14.329  0.9596  0.0775 -1.5394
 9992TIP3    H251468   1.457   0.271  14.225 -0.7549  1.4809  0.7230
 9993TIP3   OH251469   0.546   5.359  13.672 -0.0863  0.1602 -0.2432
 9993TIP3    H151470   0.534   5.453  13.686  0.0372  0.1840 -0.2969
 9993TIP3    H251471   0.585   5.327  13.753 -0.8919  0.0099  0.0849
 9994TIP3   OH251472   2.548   1.074   5.338 -0.0510  0.2677  0.4489
 9994TIP3    H151473   2.511   1.117   5.416 -0.5000  1.2462 -0.2868
 9994TIP3    H251474   2.610   1.137   5.304  0.8879 -0.5845  0.5735
 9995TIP3   OH251475   5.811   6.450  14.002  0.0675  0.1867 -0.4375
 9995TIP3    H151476   5.752   6.375  14.004  2.3187 -1.6697  3.2667
 9995TIP3    H251477   5.898   6.412  13.992  1.2064  2.3538  0.8049
 9996TIP3   OH251478   3.724   3.083  14.085  0.6538 -0.0736 -0.0054
 9996TIP3    H151479   3.643   3.061  14.132  1.1231 -0.0822  0.8024
 9996TIP3    H251480   3.771   3.000  14.079 -0.0999 -0.3770 -1.8458
 9997TIP3   OH251481   2.967   1.547  11.113 -0.1850 -0.3278 -0.5255
 9997TIP3    H151482   2.907   1.502  11.053 -0.1113 -1.8796  0.5296
 9997TIP3    H251483   3.050   1.500  11.103 -0.1957 -0.6586  0.8436
 9998TIP3   OH251484   6.671   1.537   4.566 -0.5635  0.5776 -0.9354
 9998TIP3    H151485   6.590   1.580   4.592 -0.2269 -0.2031  1.5181
 9998TIP3    H251486   6.670   1.539   4.470 -3.5072  0.5055 -0.9336
 9999TIP3   OH251487   0.287   6.403   3.447 -0.1624 -0.0956 -0.7074
 9999TIP3    H151488   0.320   6.477   3.499 -0.7254 -0.6649  0.4730
 9999TIP3    H251489   0.263   6.442   3.363  2.7941  0.4629 -1.3475
10000TIP3   OH251490   3.406   5.353   3.106 -0.4903 -0.5156 -0.4099
10000TIP3    H151491   3.496   5.330   3.083 -0.2440 -0.7270  0.7389
10000TIP3    H251492   3.359   5.269   3.104  0.5334 -1.3628  4.3618
10001TIP3   OH251493   1.465   5.742  16.826  0.5869  0.5203  0.1055
10001TIP3    H151494   1.378   5.702  16.824  0.4343  0.8086  0.8241
10001TIP3    H251495   1.525   5.669  16.813  0.3084  0.0630  1.3918
10002TIP3   OH251496   2.420   6.147   2.256 -0.2657 -0.4401 -0.0754
10002TIP3    H151497   2.395   6.177   2.343 -0.3067  0.0152 -0.2417
10002TIP3    H251498   2.401   6.221   2.199  0.3244 -0.5281 -0.3838
10003TIP3   OH251499   6.733   2.333  15.087  0.4773 -0.1617 -0.6487
10003TIP3    H151500   6.730   2.349  14.993  0.0573 -1.9455 -0.9555
10003TIP3    H251501   6.716   2.239  15.096 -1.1145  0.2817  1.3132
10004TIP3   OH251502   3.971   3.142  17.096  0.4337 -0.1299  0.2169
10004TIP3    H151503   4.041   3.109  17.153  0.3936  0.2346  0.4832
10004TIP3    H251504   4.005   3.131  17.008  1.5674  1.7015  0.4136
10005TIP3   OH251505   0.510   4.886   3.578 -0.0337  0.1341  0.3430
10005TIP3    H151506   0.547   4.924   3.498 -0.8173 -0.3802 -0.2660
10005TIP3    H251507   0.418   4.913   3.577 -0.1334 -0.1874  0.8875
10006TIP3   OH251508   3.094   3.421  11.439 -0.3818 -0.1929 -0.0946
10006TIP3    H151509   3.072   3.382  11.524 -0.7289 -0.0190 -0.1015
10006TIP3    H251510   3.070   3.354  11.375  0.8548 -0.7280 -0.0007
10007TIP3   OH251511   0.812   6.685   5.379 -0.1299  0.0182  0.2349
10007TIP3    H151512   0.833   6.730   5.297 -0.2821  0.1614  0.2760
10007TIP3    H251513   0.730   6.723   5.408 -0.7596 -0.9582 -0.2242
10008TIP3   OH251514   6.346   5.158  13.303 -0.3919 -0.0521  0.1441
10008TIP3    H151515   6.279   5.146  13.371 -1.0391  2.1962 -0.0571
10008TIP3    H251516   6.402   5.228  13.337  0.6030 -0.4593 -0.6463
10009TIP3   OH251517   1.174   6.658   1.529 -0.2370  0.1115  0.3821
10009TIP3    H151518   1.213   6.742   1.554 -0.8584  0.5217 -0.0276
10009TIP3    H251519   1.111   6.680   1.461  0.5992 -0.8594 -0.7280
10010TIP3   OH251520   5.819   0.419  14.638  0.0026  0.1320 -0.1722
10010TIP3    H151521   5.745   0.405  14.580  0.7613  0.2457 -1.1803
10010TIP3    H251522   5.782   0.415  14.726 -1.4885  1.8619 -0.6950
10011TIP3   OH251523   6.259   0.036   4.111  0.0186  0.0963  0.6851
10011TIP3    H151524   6.318   0.060   4.183  1.0371  0.4691 -0.2535
10011TIP3    H251525   6.240  -0.057   4.125  2.6239 -0.6134 -0.2316
10012TIP3   OH251526   2.423   4.519   4.475 -0.0344 -0.5350 -0.1081
10012TIP3    H151527   2.478   4.559   4.408  2.1011 -2.8911  0.1905
10012TIP3    H251528   2.348   4.485   4.427 -0.2890  0.9403 -0.7891
10013TIP3   OH251529   4.184   3.646   1.956  0.0128 -0.3994 -0.0070
10013TIP3    H151530   4.092   3.638   1.931  0.1801  0.6747 -1.0187
10013TIP3    H251531   4.222   3.701   1.888  1.9928 -2.9199 -1.0140
10014TIP3   OH251532   1.351   4.881  11.836 -0.3387 -0.5890 -0.3440
10014TIP3    H151533   1.364   4.957  11.780  0.3512 -0.0369  0.5713
10014TIP3    H251534   1.424   4.823  11.816  1.3903  0.7687  1.8947
10015TIP3   OH251535   4.969   1.188  16.591  0.1856  0.3798 -0.0236
10015TIP3    H151536   5.004   1.099  16.603  0.8283  0.4243 -1.4690
10015TIP3    H251537   4.939   1.214  16.678  1.5443 -0.6099  0.7532
10016TIP3   OH251538   3.283   3.337  15.230  0.5148  0.1907 -0.0344
10016TIP3    H151539   3.293   3.432  15.228  2.0188  0.0700  1.2610
10016TIP3    H251540   3.368   3.302  15.204 -0.9979 -0.8447 -4.0711
10017TIP3   OH251541   5.462   3.735  13.565  0.4474 -0.6550  0.0599
10017TIP3    H151542   5.488   3.798  13.498 -0.2929 -0.4963 -0.0829
10017TIP3    H251543   5.544   3.695  13.594  0.7049 -1.3390 -1.5474
10018TIP3   OH251544   3.319   2.800  11.351  0.6846  0.4375  0.2979
10018TIP3    H151545   3.293   2.861  11.282  0.1161 -0.5612 -0.3964
10018TIP3    H251546   3.350   2.855  11.423 -0.5630  1.5699 -0.0148
10019TIP3   OH251547   0.427   3.594   1.423  0.0531  0.2509  0.7711
10019TIP3    H151548   0.448   3.654   1.351 -1.4439 -0.0239  0.0803
10019TIP3    H251549   0.456   3.508   1.392 -1.0888  0.0416  0.2464
10020TIP3   OH251550   4.653   6.261   3.871 -0.1013 -0.5139 -0.0028
10020TIP3    H151551   4.614   6.188   3.919  2.5836 -2.1583 -0.2641
10020TIP3    H251552   4.622   6.339   3.918 -2.6569 -1.7873  0.5319
10021TIP3   OH251553   6.640   6.363   3.803  0.0308  0.1925 -0.1086
10021TIP3    H151554   6.731   6.359   3.832  0.1205  0.3736 -0.3664
10021TIP3    H251555   6.614   6.271   3.794 -0.0568  0.1323  0.7349
10022TIP3   OH251556   2.800   6.440   0.767 -0.0754  0.4493 -0.0845
10022TIP3    H151557   2.736   6.511   0.763  0.1606  0.5756 -1.8507
10022TIP3    H251558   2.877   6.475   0.721  1.0521  0.0675  1.4627
10023TIP3   OH251559   4.208   4.138   3.513 -0.3274  0.3662  0.1606
10023TIP3    H151560   4.213   4.097   3.600 -1.0794  0.2948  0.1759
10023TIP3    H251561   4.299   4.145   3.485 -0.1644 -1.3029  0.1720
10024TIP3   OH251562   3.925   6.542  16.596  0.0598 -0.2273 -0.5293
10024TIP3    H151563   3.945   6.466  16.651 -0.0175 -0.1061 -0.3336
10024TIP3    H251564   3.998   6.602  16.611  0.6604 -0.7058 -1.4965
10025TIP3   OH251565   2.421   3.922  14.377  0.2192 -0.2826  0.3985
10025TIP3    H151566   2.328   3.935  14.398  0.3835 -0.2833  1.1334
10025TIP3    H251567   2.421   3.896  14.284 -0.3431  1.6943 -0.1780
10026TIP3   OH251568   2.146   2.962  13.312  0.5296 -0.3509  0.0330
10026TIP3    H151569   2.189   3.034  13.265  1.3480 -0.2469  0.9171
10026TIP3    H251570   2.133   2.894  13.246 -0.0095  0.5120 -0.7499
10027TIP3   OH251571   5.952   4.005   2.186 -0.1638  0.5537 -0.7118
10027TIP3    H151572   5.902   4.069   2.238 -0.0174  0.5291 -0.5410
10027TIP3    H251573   6.044   4.025   2.206 -0.1036  0.6710 -1.1121
10028TIP3   OH251574   2.111   2.583  11.548  0.4074 -0.4357  0.1928
10028TIP3    H151575   2.193   2.550  11.584  0.7674  0.8604  0.5991
10028TIP3    H251576   2.047   2.570  11.617  0.8247  0.8700  0.8505
10029TIP3   OH251577   4.587   6.423  12.857 -0.1748 -0.1806 -0.1325
10029TIP3    H151578   4.573   6.329  12.850 -0.2415 -0.0669 -1.6822
10029TIP3    H251579   4.647   6.432  12.931 -2.1338 -1.2242  1.6524
10030TIP3   OH251580   1.704   0.567  17.147 -0.3359  0.1806  0.8332
10030TIP3    H151581   1.739   0.497  17.092 -1.4540  0.2617 -0.0078
10030TIP3    H251582   1.780   0.604  17.191  0.3837 -0.9052  0.5132
10031TIP3   OH251583   2.918   5.931   0.247  0.1991 -0.3208  0.3123
10031TIP3    H151584   2.994   5.909   0.193 -0.0210 -0.7427  0.1670
10031TIP3    H251585   2.888   6.015   0.213 -0.5525 -1.0602 -0.9219
10032TIP3   OH251586   3.920   4.858  16.136 -0.4650 -0.0917 -0.0361
10032TIP3    H151587   3.945   4.948  16.160  1.4024 -0.3546 -0.9122
10032TIP3    H251588   3.875   4.824  16.213 -0.5973  1.3638  0.5528
10033TIP3   OH251589   1.689   4.048   5.675 -0.6095 -0.0844 -0.0553
10033TIP3    H151590   1.716   3.961   5.644  1.0832 -0.0127  1.1357
10033TIP3    H251591   1.762   4.077   5.730 -1.6515  1.6269  0.4513
10034TIP3   OH251592   4.086   0.681   1.299  0.6321 -0.0158  0.8583
10034TIP3    H151593   4.079   0.676   1.394  0.9163  0.7702  0.9237
10034TIP3    H251594   4.177   0.658   1.280  0.0471 -2.1558  0.6241
10035TIP3   OH251595   6.222   4.433  11.675  0.2403 -0.5716  0.5282
10035TIP3    H151596   6.260   4.416  11.589 -1.3078 -1.0156 -0.0645
10035TIP3    H251597   6.270   4.375  11.734  2.4342  0.8761  0.2718
10036TIP3   OH251598   1.685   1.897  16.500 -0.4555  0.1649 -0.0119
10036TIP3    H151599   1.647   1.841  16.567  0.3467 -1.2571 -0.7317
10036TIP3    H251600   1.639   1.874  16.420 -1.2541  1.7051 -0.0200
10037TIP3   OH251601   2.135   3.476  16.753 -0.8233 -0.2722 -0.1981
10037TIP3    H151602   2.187   3.472  16.833 -0.7085  2.9600 -0.0144
10037TIP3    H251603   2.200   3.483  16.683 -0.9321 -2.5029 -0.5328
10038TIP3   OH251604   6.128   2.796  11.994 -0.1237 -0.6760  0.4493
10038TIP3    H151605   6.092   2.736  11.929  1.3450 -0.5913 -0.4703
10038TIP3    H251606   6.189   2.742  12.045 -1.7172 -0.8904  2.1790
10039TIP3   OH251607   4.800   5.631  10.838  0.1455  0.0321  0.3561
10039TIP3    H151608   4.822   5.555  10.784  1.0523 -0.2598  1.1137
10039TIP3    H251609   4.870   5.694  10.819 -0.5974  0.6741 -0.2588
10040TIP3   OH251610   4.020   3.407  11.452  0.8974  0.3085 -0.3010
10040TIP3    H151611   3.980   3.335  11.501  0.7520  0.8778  0.4261
10040TIP3    H251612   3.949   3.444  11.400  1.3404 -1.1750 -2.0439
10041TIP3   OH251613   1.072   1.292   3.924  0.4625 -0.0269 -0.1043
10041TIP3    H151614   1.052   1.256   3.838 -0.4933  0.2830 -0.0090
10041TIP3    H251615   1.162   1.262   3.941  0.4731 -0.5250 -0.9737
10042TIP3   OH251616   3.997   4.707  12.156  0.3367 -0.3719  0.6661
10042TIP3    H151617   4.058   4.714  12.229 -0.7720 -0.2768  1.5821
10042TIP3    H251618   3.914   4.742  12.189 -0.4829 -1.3836 -0.2703
10043TIP3   OH251619   2.669   0.275  15.920  0.2336 -0.2786  0.0926
10043TIP3    H151620   2.679   0.289  16.014  3.5295 -1.2316 -0.0183
10043TIP3    H251621   2.742   0.323  15.881 -0.2077 -1.1204 -1.8461
10044TIP3   OH251622   4.759   0.440   2.551  0.0056 -0.2350 -0.7142
10044TIP3    H151623   4.761   0.536   2.553  0.0791 -0.2471  0.0760
10044TIP3    H251624   4.851   0.414   2.547  0.0317 -0.2864  0.1669
10045TIP3   OH251625   1.864   4.918   1.565 -0.3057 -0.1025 -0.5833
10045TIP3    H151626   1.913   4.847   1.522  1.2667  1.2032 -0.9825
10045TIP3    H251627   1.799   4.945   1.499 -0.0050 -0.2518 -0.9423
10046TIP3   OH251628   6.145   5.854   1.199 -0.2085  0.4619  0.0758
10046TIP3    H151629   6.163   5.935   1.151 -0.0223  0.5445  0.2868
10046TIP3    H251630   6.164   5.875   1.290  1.4473 -0.3030 -0.0763
10047TIP3   OH251631   2.618   5.617  11.673 -0.2055  0.0978  0.4611
10047TIP3    H151632   2.574   5.691  11.632  0.7908 -0.7053 -2.1488
10047TIP3    H251633   2.557   5.544  11.662 -0.0969 -0.0395  0.7665
10048TIP3   OH251634   5.051   6.724   4.890  0.3449  0.1542  0.1200
10048TIP3    H151635   5.035   6.692   4.802 -0.2926  0.4394  0.1252
10048TIP3    H251636   4.963   6.745   4.924  0.7090  1.5125  0.2486
10049TIP3   OH251637   1.938   0.226  14.503 -0.1108  0.0970 -0.3103
10049TIP3    H151638   1.993   0.154  14.471  0.2294 -0.0376  0.5816
10049TIP3    H251639   1.993   0.273  14.565 -0.0094  1.6818 -1.5450
10050TIP3   OH251640   3.131   3.015  12.938  0.2756 -0.2553 -0.2664
10050TIP3    H151641   3.143   2.971  13.022 -0.3959  0.1583  0.0498
10050TIP3    H251642   3.040   3.045  12.939 -0.0586 -1.1860 -1.5932
10051TIP3   OH251643   1.871   2.290  11.432  0.2251  0.2037 -0.0219
10051TIP3    H151644   1.867   2.285  11.527  0.4602  0.1291 -0.0152
10051TIP3    H251645   1.908   2.205  11.405 -0.2506  0.0523 -0.2050
10052TIP3   OH251646   0.112   3.188  15.962 -0.2933  0.5310 -0.6160
10052TIP3    H151647   0.142   3.187  15.871  3.1378  1.7423  0.4135
10052TIP3    H251648   0.193   3.187  16.013 -2.1226  1.9215  2.4061
10053TIP3   OH251649   5.294   2.798   2.440 -0.1422  0.9015  0.4774
10053TIP3    H151650   5.271   2.797   2.533  0.9658  1.3875  0.7561
10053TIP3    H251651   5.260   2.882   2.408  1.2737  1.6508  0.9052
10054TIP3   OH251652   0.052   0.149   5.328  0.4978  0.3695  0.0517
10054TIP3    H151653   0.127   0.206   5.311  0.6529  0.3102  0.5407
10054TIP3    H251654  -0.021   0.209   5.341  0.7089  0.4612  0.7986
10055TIP3   OH251655   0.367   6.063   1.501 -0.1728 -0.0066 -0.4935
10055TIP3    H151656   0.438   6.065   1.438  0.1071 -0.5015 -0.1929
10055TIP3    H251657   0.366   5.973   1.535 -1.5491 -0.2780 -1.1906
10056TIP3   OH251658   4.072   4.486  16.787  0.7618  0.0664 -0.6447
10056TIP3    H151659   4.024   4.442  16.858  0.1519  1.1372 -0.3758
10056TIP3    H251660   4.007   4.545  16.748  1.2738 -0.0625 -1.6935
10057TIP3   OH251661   4.178   4.059  16.261 -0.2258  0.0064  0.0306
10057TIP3    H151662   4.222   4.064  16.346 -1.4471  2.4872  0.5622
10057TIP3    H251663   4.085   4.060  16.282 -0.5420  1.4299 -1.3733
10058TIP3   OH251664   4.004   3.692  11.290  0.0460  0.0256 -0.4872
10058TIP3    H151665   3.971   3.638  11.218  1.0342 -0.1223 -0.8321
10058TIP3    H251666   4.038   3.771  11.249 -0.4122  0.4450 -0.0758
10059TIP3   OH251667   0.673   4.216  12.246 -0.8410  0.4794 -0.1365
10059TIP3    H151668   0.741   4.280  12.266 -3.2425  3.1136 -0.0467
10059TIP3    H251669   0.691   4.142  12.304  0.3559  2.2604  1.8007
10060TIP3   OH251670   3.501   3.093  14.983 -0.5784  0.2295  0.2151
10060TIP3    H151671   3.410   3.067  14.999 -0.2766 -1.6844 -0.9842
10060TIP3    H251672   3.553   3.033  15.036  0.0195  1.1342  0.6773
10061TIP3   OH251673   6.698   1.600  11.461 -0.1808 -1.2053 -0.0388
10061TIP3    H151674   6.687   1.528  11.400 -1.6438  0.2850 -1.5762
10061TIP3    H251675   6.630   1.586  11.527 -1.2920 -0.5360 -1.0378
10062TIP3   OH251676   6.469   5.969   0.211  0.6001 -1.1819  0.5979
10062TIP3    H151677   6.539   5.905   0.219  1.2370 -0.6699 -0.7481
10062TIP3    H251678   6.484   6.030   0.283  0.0135 -2.5150  1.8584
10063TIP3   OH251679   1.495   6.665   0.424  0.0124 -0.4667 -0.1473
10063TIP3    H151680   1.441   6.595   0.388 -0.4924 -0.5602  0.7872
10063TIP3    H251681   1.497   6.731   0.354 -2.8030  0.3320  0.4596
10064TIP3   OH251682   2.475   2.447   5.680  0.5809 -0.6560  0.0633
10064TIP3    H151683   2.559   2.401   5.689  2.2305  1.7014 -2.3259
10064TIP3    H251684   2.469   2.501   5.759  2.4941  0.8937 -0.8126
10065TIP3   OH251685   2.983   3.312  11.664  0.1734  0.0621 -0.6671
10065TIP3    H151686   2.947   3.237  11.712  4.3486 -0.5567  1.8124
10065TIP3    H251687   2.940   3.388  11.703 -0.9815 -0.7880 -0.2431
10066TIP3   OH251688   3.213   2.872  13.147 -0.4461  0.2712 -0.4057
10066TIP3    H151689   3.171   2.834  13.224  1.4859  0.3325  0.7083
10066TIP3    H251690   3.302   2.837  13.149  0.4958  2.5596 -0.9974
10067TIP3   OH251691   3.150   4.687   5.321  0.5616 -0.0223 -0.2041
10067TIP3    H151692   3.075   4.699   5.379  0.9797  0.8483  0.1544
10067TIP3    H251693   3.126   4.732   5.240  0.1626 -0.8623 -0.5658
10068TIP3   OH251694   3.846   4.611  16.322  0.5064 -0.0302 -0.1340
10068TIP3    H151695   3.800   4.586  16.242 -2.3063  0.5413  1.2504
10068TIP3    H251696   3.909   4.540  16.336  0.7963 -0.3162 -2.6520
10069TIP3   OH251697   2.739   4.452  12.888 -0.9554 -0.0940 -0.3432
10069TIP3    H151698   2.739   4.356  12.894  0.6833 -0.0319  1.0097
10069TIP3    H251699   2.710   4.481  12.974  0.4837  0.6403 -0.0947
10070TIP3   OH251700   5.347   2.350  15.955  1.0726 -0.0452 -0.2080
10070TIP3    H151701   5.273   2.406  15.932 -1.2711 -3.1708 -0.6976
10070TIP3    H251702   5.422   2.409  15.958 -1.8781  3.8734  3.4359
10071TIP3   OH251703   4.770   0.149   3.128  0.6228 -0.8374 -0.0030
10071TIP3    H151704   4.744   0.164   3.037  1.2716 -0.2841 -0.0983
10071TIP3    H251705   4.850   0.200   3.139  0.6220 -1.0145  0.8433
10072TIP3   OH251706   4.886   0.909  13.317 -0.5109  0.1952 -0.4005
10072TIP3    H151707   4.868   0.963  13.240  0.1797  1.5369  0.3780
10072TIP3    H251708   4.844   0.954  13.389 -1.1445 -1.0584  0.0278
10073TIP3   OH251709   4.637   5.598   0.272  0.1892  0.0108 -0.1036
10073TIP3    H151710   4.616   5.507   0.252  1.0142 -0.1441 -0.3237
10073TIP3    H251711   4.718   5.593   0.323 -0.5448  0.5447  1.1341
10074TIP3   OH251712   6.062   1.872   5.886 -0.6820  0.2034 -0.0724
10074TIP3    H151713   6.066   1.874   5.981 -3.5416  3.5285  0.0896
10074TIP3    H251714   5.970   1.889   5.866  0.5208  3.5129 -3.4369
10075TIP3   OH251715   4.076   3.431  17.234  0.1759  0.2472  0.2225
10075TIP3    H151716   4.167   3.402  17.228 -0.0887 -0.4312 -0.6361
10075TIP3    H251717   4.059   3.473  17.150 -0.8335 -1.2262 -0.3370
10076TIP3   OH251718   4.272   4.341   3.035 -0.1131  0.2841 -0.1671
10076TIP3    H151719   4.363   4.347   3.063 -0.2654 -0.0539  0.4025
10076TIP3    H251720   4.229   4.286   3.101 -1.1004  1.8031  0.4981
10077TIP3   OH251721   0.688   1.216  12.389 -0.3458  0.4848 -0.1435
10077TIP3    H151722   0.625   1.222  12.317 -0.6369 -0.3895  0.0355
10077TIP3    H251723   0.721   1.126  12.384 -0.4513  0.3885  0.9034
10078TIP3   OH251724   3.334   5.948   5.899  0.2969 -0.1172 -0.2539
10078TIP3    H151725   3.421   5.974   5.928  0.4354 -2.4581  1.5668
10078TIP3    H251726   3.344   5.926   5.807  1.5467 -0.0491 -0.1390
10079TIP3   OH251727   3.837   0.207   6.365  0.1267  0.1957  0.3623
10079TIP3    H151728   3.833   0.112   6.357  0.2556  0.3738 -2.2757
10079TIP3    H251729   3.760   0.231   6.416 -0.5103 -1.2317  0.0741
10080TIP3   OH251730   4.673   3.594   4.321  0.5742  0.6536  0.8233
10080TIP3    H151731   4.618   3.654   4.372  2.5265  2.2084  1.1898
10080TIP3    H251732   4.614   3.557   4.256 -0.7201  3.0067  0.5750
10081TIP3   OH251733   5.260   4.426  16.911 -0.2710  0.1430 -0.3167
10081TIP3    H151734   5.283   4.333  16.913 -0.1961  0.1757  0.4811
10081TIP3    H251735   5.261   4.453  17.003 -0.8500  0.7965 -0.4958
10082TIP3   OH251736   4.894   3.414   4.267 -0.7596 -0.4040 -0.3658
10082TIP3    H151737   4.962   3.482   4.262 -1.0012 -0.0673  0.8145
10082TIP3    H251738   4.824   3.453   4.319 -2.3051 -0.3953 -2.3622
10083TIP3   OH251739   1.182   2.438  14.387  0.2641 -0.1604  0.1341
10083TIP3    H151740   1.252   2.501  14.400 -0.5067  0.8553 -0.5944
10083TIP3    H251741   1.111   2.470  14.443  0.7306 -1.7777  1.7133
10084TIP3   OH251742   3.352   2.735   6.487 -0.5206 -0.0863  0.0385
10084TIP3    H151743   3.374   2.811   6.542  2.9169 -1.6094  0.9012
10084TIP3    H251744   3.352   2.769   6.398  1.3875  0.8685  0.3812
10085TIP3   OH251745   6.267   3.824   3.067  0.2660 -0.0505  0.0906
10085TIP3    H151746   6.180   3.863   3.066 -0.0361 -0.7194 -0.3499
10085TIP3    H251747   6.326   3.896   3.088 -0.2273  0.7587 -1.2624
10086TIP3   OH251748   0.607   0.746   3.126  0.4341 -0.0097 -0.1860
10086TIP3    H151749   0.693   0.746   3.167  1.1539 -0.4219 -1.6502
10086TIP3    H251750   0.580   0.654   3.127 -0.5084  0.2819  1.3265
10087TIP3   OH251751   0.944   0.382  13.052  0.2084  0.1414  0.1969
10087TIP3    H151752   0.986   0.363  12.968  3.2127  1.5411  1.2895
10087TIP3    H251753   0.988   0.324  13.114 -0.3477  0.7663  1.1834
10088TIP3   OH251754   4.084   0.790  11.937  0.5575 -0.3396 -0.4012
10088TIP3    H151755   4.028   0.724  11.979  0.7740 -0.4876 -0.3472
10088TIP3    H251756   4.027   0.832  11.873  1.0004 -2.0035 -1.9183
10089TIP3   OH251757   1.624   3.094   6.067 -0.1120 -0.0846 -0.3434
10089TIP3    H151758   1.657   3.004   6.063 -0.4846 -0.2739  0.6450
10089TIP3    H251759   1.583   3.101   6.153  1.8805  1.6994  0.5076
10090TIP3   OH251760   2.574   3.418   3.431  0.0377 -0.1397 -0.1570
10090TIP3    H151761   2.538   3.479   3.366  1.6070  1.1154  0.1178
10090TIP3    H251762   2.587   3.336   3.383  0.5161  0.5634 -1.2356
10091TIP3   OH251763   6.594   0.181  15.780 -0.0086  0.1033  0.5443
10091TIP3    H151764   6.669   0.236  15.802  1.4401 -2.7350  3.0225
10091TIP3    H251765   6.632   0.096  15.757 -2.2647 -0.3217 -1.8689
10092TIP3   OH251766   4.621   3.080  16.640  0.1028  0.2776 -0.3864
10092TIP3    H151767   4.651   3.075  16.550  0.8242 -1.0703 -0.0697
10092TIP3    H251768   4.701   3.092  16.692 -0.3780  1.8991  0.0099
10093TIP3   OH251769   1.055   2.269  11.547 -0.0043  0.3841  0.8680
10093TIP3    H151770   1.059   2.204  11.478  1.6735  1.8705 -0.5021
10093TIP3    H251771   0.978   2.246  11.599 -1.0667 -0.9616 -1.2793
10094TIP3   OH251772   5.570   4.822   6.012 -0.1336 -0.1622  0.0939
10094TIP3    H151773   5.589   4.889   6.078  1.4799 -1.1617  0.6870
10094TIP3    H251774   5.512   4.760   6.056 -1.7121  0.8929 -0.4900
10095TIP3   OH251775   4.347   2.593  13.619 -0.1174  0.8141 -1.1039
10095TIP3    H151776   4.289   2.556  13.686  2.4318 -0.5195  0.4357
10095TIP3    H251777   4.345   2.687  13.636  1.3811  0.4056  1.6383
10096TIP3   OH251778   6.813   4.522  13.128 -0.1270  0.5270 -0.2029
10096TIP3    H151779   6.742   4.566  13.175  0.7708  2.4885 -0.6407
10096TIP3    H251780   6.798   4.544  13.036  1.3102  1.3526 -0.2458
10097TIP3   OH251781   5.557   2.015  16.478  0.4318 -0.8247 -0.0799
10097TIP3    H151782   5.559   1.920  16.478  0.2629 -0.8559  2.4797
10097TIP3    H251783   5.476   2.038  16.525  1.0979  0.5736  0.4290
10098TIP3   OH251784   5.960   1.083   1.253  0.1744 -0.0280  0.1490
10098TIP3    H151785   5.894   1.063   1.320 -1.6603 -0.0228 -1.5829
10098TIP3    H251786   6.042   1.049   1.289 -0.9471 -0.9275  1.9513
10099TIP3   OH251787   6.070   5.480  11.377 -0.1335  0.0105  0.1783
10099TIP3    H151788   6.006   5.522  11.320  0.4412  0.1835 -0.3528
10099TIP3    H251789   6.082   5.542  11.450 -0.5966 -0.0423  0.2984
10100TIP3   OH251790   5.960   0.245  14.822 -0.2645  0.2121 -0.3321
10100TIP3    H151791   5.897   0.317  14.820 -0.6040 -0.0725 -0.1260
10100TIP3    H251792   5.980   0.233  14.915 -3.7006 -2.9229  0.1561
10101TIP3   OH251793   5.595   3.726  16.394 -0.1349  0.5325  0.0754
10101TIP3    H151794   5.557   3.681  16.319 -0.7687  0.8534  0.2052
10101TIP3    H251795   5.686   3.695  16.396 -1.4467 -3.5111  2.2929
10102TIP3   OH251796   1.900   4.249  14.468 -0.5846 -0.2189 -0.4517
10102TIP3    H151797   1.813   4.280  14.493 -0.5958 -0.0263 -0.7363
10102TIP3    H251798   1.885   4.197  14.389 -0.3615  0.3245 -0.8567
10103TIP3   OH251799   6.686   5.817   2.413 -0.8623 -0.7152  0.2007
10103TIP3    H151800   6.678   5.840   2.320  0.2765 -1.1827 -0.0102
10103TIP3    H251801   6.761   5.867   2.444 -1.8436  0.2097  1.1245
10104TIP3   OH251802   3.167   4.363  12.011 -0.4766  0.2855  0.7464
10104TIP3    H151803   3.253   4.325  12.027 -0.7255 -1.0471 -0.9164
10104TIP3    H251804   3.182   4.457  12.007  0.9973  0.0271 -0.0419
10105TIP3   OH251805   2.908   3.904   0.097 -0.1198 -0.4160  0.1245
10105TIP3    H151806   2.981   3.880   0.154  0.1555 -2.4928 -1.0460
10105TIP3    H251807   2.831   3.901   0.154  0.2383 -1.8106  0.5590
10106TIP3   OH251808   6.469   3.252  11.928  0.0738  0.0051 -0.0383
10106TIP3    H151809   6.485   3.346  11.928 -1.4983  0.2948  1.2113
10106TIP3    H251810   6.446   3.231  12.018  2.8164 -2.0300  0.2588
10107TIP3   OH251811   5.969   6.027  11.932 -0.1449 -0.9151 -0.0954
10107TIP3    H151812   5.929   6.032  12.018  0.6043 -0.0423  0.2150
10107TIP3    H251813   5.949   6.112  11.891  1.6589 -0.3264  0.2016
10108TIP3   OH251814   0.368   2.633   0.306 -0.4552 -0.0231 -0.2667
10108TIP3    H151815   0.401   2.719   0.331  4.2998 -1.3770 -1.2252
10108TIP3    H251816   0.331   2.646   0.219 -0.1912  1.1213 -0.2189
10109TIP3   OH251817   2.160   2.462  16.804  0.0390  0.0683 -0.0731
10109TIP3    H151818   2.157   2.390  16.867 -2.6163 -0.3974 -0.6652
10109TIP3    H251819   2.154   2.541  16.857 -0.8479 -0.2799  0.3599
10110TIP3   OH251820   0.844   5.820  11.337 -0.4975  0.4910  0.2897
10110TIP3    H151821   0.851   5.831  11.242  0.7505  1.6328  0.4952
10110TIP3    H251822   0.935   5.815  11.367 -0.8894 -0.0647  1.3974
10111TIP3   OH251823   3.959   3.980  15.732  0.0833 -0.2518 -0.1031
10111TIP3    H151824   4.027   3.994  15.666 -0.3262  0.6559 -0.3480
10111TIP3    H251825   3.990   3.906  15.784  0.7363 -0.5342 -0.8882
10112TIP3   OH251826   0.593   5.706  15.713  0.4184  0.0101 -0.3252
10112TIP3    H151827   0.611   5.616  15.739  1.1797  0.4529  0.6902
10112TIP3    H251828   0.666   5.730  15.656  0.5902  0.2183 -0.0214
10113TIP3   OH251829   4.330   6.506   4.242  0.0099  0.0662 -0.3076
10113TIP3    H151830   4.324   6.590   4.197  0.8227  0.0461 -0.4615
10113TIP3    H251831   4.258   6.455   4.207 -0.6420  0.7903 -0.0284
10114TIP3   OH251832   0.770   5.065  11.610  0.1325  0.0014 -0.2952
10114TIP3    H151833   0.680   5.037  11.625  1.0444 -1.6352  2.6231
10114TIP3    H251834   0.783   5.139  11.670  0.0445  1.8237 -2.4562
10115TIP3   OH251835   5.394   5.801  12.917 -0.0907 -0.1758  0.5891
10115TIP3    H151836   5.432   5.825  13.002  0.3441  2.1069 -0.2155
10115TIP3    H251837   5.304   5.774  12.938 -0.1589  0.8975  1.7334
10116TIP3   OH251838   5.823   3.536  14.689  0.8742  0.1623 -0.0100
10116TIP3    H151839   5.758   3.586  14.640 -0.3866 -1.0145  0.4339
10116TIP3    H251840   5.907   3.573  14.662  0.2406 -0.6296 -3.2527
10117TIP3   OH251841   4.070   6.271   0.115 -0.3667  0.0430  0.2470
10117TIP3    H151842   4.086   6.240   0.204  0.2602 -1.2267 -0.2997
10117TIP3    H251843   4.001   6.214   0.082 -0.4891  0.4137 -0.1346
10118TIP3   OH251844   1.230   5.761   2.838  0.0075  0.2205 -0.1917
10118TIP3    H151845   1.174   5.805   2.901 -0.9283 -0.8016 -0.2895
10118TIP3    H251846   1.171   5.736   2.767  0.6183 -0.6383 -0.4130
10119TIP3   OH251847   5.997   2.649   1.240 -0.2008  0.3022 -0.0412
10119TIP3    H151848   5.963   2.693   1.162  0.3809  2.4237  0.8522
10119TIP3    H251849   5.920   2.632   1.294 -0.1660  2.9217  0.9068
10120TIP3   OH251850   5.637   5.599   2.406  0.0061  0.2760  0.0699
10120TIP3    H151851   5.605   5.584   2.317  0.1324 -0.2825  0.1186
10120TIP3    H251852   5.704   5.667   2.396 -0.1478  0.3860 -0.2289
10121TIP3   OH251853   5.117   3.614   3.778  0.0621  0.1482  0.2184
10121TIP3    H151854   5.079   3.625   3.866 -1.3983 -0.9234 -0.2615
10121TIP3    H251855   5.195   3.669   3.779 -1.2146  2.0084  1.4116
10122TIP3   OH251856   4.492   1.566  12.928 -0.6279 -0.4718  0.4763
10122TIP3    H151857   4.539   1.622  12.990  0.5987  1.5964 -2.2643
10122TIP3    H251858   4.403   1.600  12.928 -0.3598  0.2366  0.2614
10123TIP3   OH251859   3.714   4.549  15.829 -0.0350 -0.1847 -0.3403
10123TIP3    H151860   3.716   4.460  15.793  2.5367 -1.1601  1.9502
10123TIP3    H251861   3.775   4.598  15.773  1.0334 -0.7192  0.3336
10124TIP3   OH251862   4.736   3.386   0.798  0.5857  0.0180  0.2973
10124TIP3    H151863   4.810   3.431   0.839 -1.0150  1.5586  1.5121
10124TIP3    H251864   4.677   3.455   0.770  0.2308 -1.1471 -1.9682
10125TIP3   OH251865   2.476   5.619  11.006  0.1737  0.7058 -0.2307
10125TIP3    H151866   2.421   5.629  10.928  0.1669  1.5338 -0.1222
10125TIP3    H251867   2.449   5.691  11.063 -1.3320 -1.1602  1.4600
10126TIP3   OH251868   3.232   4.179  15.113  0.3966  0.3208 -0.0720
10126TIP3    H151869   3.234   4.084  15.127 -0.7888  0.0619 -1.6394
10126TIP3    H251870   3.142   4.204  15.134 -0.0238  0.6846 -2.2698
10127TIP3   OH251871   4.815   2.278  14.194 -0.5461  0.1471  0.1903
10127TIP3    H151872   4.813   2.304  14.102 -1.0674 -1.0167 -0.1467
10127TIP3    H251873   4.723   2.265  14.217 -0.3301 -1.2448  0.3567
10128TIP3   OH251874   3.773   3.234  11.842 -0.7466 -0.3432 -0.5071
10128TIP3    H151875   3.755   3.303  11.906 -0.8175 -0.3974 -0.4694
10128TIP3    H251876   3.759   3.153  11.890  2.6286 -0.4416  0.4361
10129TIP3   OH251877   5.357   0.716  13.123  0.2387 -0.1724 -0.0826
10129TIP3    H151878   5.360   0.631  13.167 -0.4877 -0.6700 -0.9626
10129TIP3    H251879   5.263   0.730  13.106  0.5119 -0.0740 -1.5997
10130TIP3   OH251880   3.963   6.293   0.996 -0.0027 -0.0006  0.0998
10130TIP3    H151881   4.026   6.227   1.027  1.4843  1.1536 -0.3806
10130TIP3    H251882   3.934   6.261   0.911  1.4435  0.4043 -0.5662
10131TIP3   OH251883   1.550   2.570  14.257  0.2196 -0.4014  0.4754
10131TIP3    H151884   1.556   2.633  14.185  0.1221  0.4641  1.2217
10131TIP3    H251885   1.594   2.492  14.224  2.1788  0.7459  0.3001
10132TIP3   OH251886   4.524   6.593  11.011  0.2751 -0.2886 -0.4803
10132TIP3    H151887   4.561   6.618  11.095 -0.3428  0.5133 -0.4351
10132TIP3    H251888   4.585   6.529  10.975  0.5968 -0.5548  0.5258
10133TIP3   OH251889   3.485   3.007   0.641 -0.3687  0.0503  0.1110
10133TIP3    H151890   3.523   3.014   0.554 -0.1639 -0.7052  0.1419
10133TIP3    H251891   3.447   3.094   0.657  0.1120  0.3759 -0.4824
10134TIP3   OH251892   6.268   4.839   0.141  0.2063  0.1463  0.3368
10134TIP3    H151893   6.230   4.805   0.222  0.2713  1.7742  1.0617
10134TIP3    H251894   6.193   4.874   0.092  0.3927  0.7277  0.4655
10135TIP3   OH251895   5.240   0.373   2.695  0.5113  0.6795  0.6153
10135TIP3    H151896   5.252   0.396   2.603 -0.8276  0.6724  0.4275
10135TIP3    H251897   5.151   0.339   2.699  0.5996  0.5976  1.9037
10136TIP3   OH251898   2.220   2.441  11.318 -0.0174 -0.0640  0.2213
10136TIP3    H151899   2.189   2.351  11.331 -1.1648  0.2760 -0.1445
10136TIP3    H251900   2.161   2.495  11.370 -0.4425  0.6463 -0.9686
10137TIP3   OH251901   2.710   2.158  11.474 -0.3392 -1.1142  0.0199
10137TIP3    H151902   2.638   2.113  11.430 -0.3041 -0.5234 -0.6416
10137TIP3    H251903   2.774   2.089  11.493 -0.4089 -1.3839 -0.7315
10138TIP3   OH251904   5.320   6.015  15.684 -0.3435  0.5357 -0.0478
10138TIP3    H151905   5.334   6.108  15.701  1.0589  0.2327  0.5090
10138TIP3    H251906   5.298   5.978  15.769  1.0838  0.0087  0.1010
10139TIP3   OH251907   5.152   2.062   5.898 -0.1492  0.1345 -0.7210
10139TIP3    H151908   5.129   2.068   5.990 -1.6970  2.0034 -1.2027
10139TIP3    H251909   5.117   2.142   5.859  0.2266 -0.7663 -2.9810
10140TIP3   OH251910   3.918   2.821   3.123 -0.0558  0.0792 -0.5113
10140TIP3    H151911   4.010   2.845   3.129 -0.4530  1.1918  1.4787
10140TIP3    H251912   3.919   2.728   3.101  1.5439 -0.1074  0.2649
10141TIP3   OH251913   2.005   2.899   1.325  0.4208  0.2169  0.3721
10141TIP3    H151914   2.063   2.974   1.335  0.0948  0.3623  1.2608
10141TIP3    H251915   1.922   2.935   1.295  0.7303  0.0308 -0.7143
10142TIP3   OH251916   4.878   3.765   3.690 -0.3345 -0.1031  0.3823
10142TIP3    H151917   4.843   3.753   3.778  0.6630 -0.9450  0.6812
10142TIP3    H251918   4.960   3.716   3.690 -0.1396  0.1936 -0.9054
10143TIP3   OH251919   0.755   0.390   5.828 -0.1431 -0.0065  0.0148
10143TIP3    H151920   0.767   0.485   5.830 -0.5926  0.0660 -0.5659
10143TIP3    H251921   0.817   0.360   5.762  1.6056 -0.3727  1.7783
10144TIP3   OH251922   4.048   2.879   1.556  0.3605  0.4627  0.0313
10144TIP3    H151923   4.130   2.840   1.585  0.2323 -0.5745 -0.9404
10144TIP3    H251924   3.994   2.882   1.635  0.8369 -0.1445  0.3853
10145TIP3   OH251925   0.625   2.870  13.115  0.1587 -0.2715  0.4707
10145TIP3    H151926   0.686   2.863  13.042 -0.2317 -4.9767  0.4003
10145TIP3    H251927   0.549   2.916  13.079  1.5043  0.8893 -0.9490
10146TIP3   OH251928   0.363   0.470  16.510  0.2528  0.2423  0.3776
10146TIP3    H151929   0.359   0.546  16.453 -0.1212  0.0707  0.1692
10146TIP3    H251930   0.278   0.427  16.498  0.6476 -0.4737  0.1176
10147TIP3   OH251931   2.313   1.964   2.821 -0.4195 -0.0073 -0.4847
10147TIP3    H151932   2.342   2.048   2.786 -0.3354  0.2827  0.2738
10147TIP3    H251933   2.345   1.899   2.759  1.0225  0.3809 -0.1525
10148TIP3   OH251934   0.595   1.489  17.238 -0.1071 -0.0766  0.0836
10148TIP3    H151935   0.520   1.477  17.296 -1.1384 -0.3501 -1.3054
10148TIP3    H251936   0.667   1.445  17.284 -1.2532 -1.6130  0.4595
10149TIP3   OH251937   2.508   0.245  17.214 -0.5668 -0.5903  0.3330
10149TIP3    H151938   2.600   0.249  17.238 -0.3311  0.3179 -0.7170
10149TIP3    H251939   2.463   0.290  17.286 -0.1624 -0.7132  0.6652
10150TIP3   OH251940   2.070   0.919  10.557  0.5881 -0.0456  0.2541
10150TIP3    H151941   2.125   0.970  10.497 -0.2939  0.3372 -0.2440
10150TIP3    H251942   2.015   0.984  10.600 -1.1404 -0.6154 -1.0062
10151TIP3   OH251943   1.771   2.836  16.060 -0.4794  0.2364 -0.1209
10151TIP3    H151944   1.827   2.771  16.101 -0.1472  1.3621  1.2396
10151TIP3    H251945   1.751   2.799  15.974 -1.2945 -2.2217  1.0770
10152TIP3   OH251946   6.749   0.680   0.747  0.0150 -0.0912 -0.4755
10152TIP3    H151947   6.729   0.644   0.661  0.3293  0.8902 -0.9721
10152TIP3    H251948   6.672   0.732   0.770  0.2070  0.1922 -0.4672
10153TIP3   OH251949   4.582   1.669  17.189 -0.4753  0.8156 -0.1415
10153TIP3    H151950   4.649   1.734  17.172 -1.0407  1.7347  1.0172
10153TIP3    H251951   4.588   1.653  17.284  0.1512 -1.3747 -0.5224
10154TIP3   OH251952   1.137   1.300   5.208 -0.3172  0.7325  0.0993
10154TIP3    H151953   1.103   1.365   5.269  1.2949  1.1907  0.5224
10154TIP3    H251954   1.222   1.334   5.180 -0.3430 -0.2167 -1.2246
10155TIP3   OH251955   4.196   3.050  11.294  0.3871 -0.3029  0.2021
10155TIP3    H151956   4.232   3.138  11.286  0.7572 -0.5482 -0.8752
10155TIP3    H251957   4.272   2.992  11.288 -0.0883 -0.7969 -1.3775
10156TIP3   OH251958   1.447   2.723  14.764  0.5675  0.4481 -0.7016
10156TIP3    H151959   1.533   2.739  14.802  0.3258  2.1183 -0.8345
10156TIP3    H251960   1.461   2.650  14.704  0.8727 -2.5157  2.8378
10157TIP3   OH251961   2.910   5.104  14.503 -0.3294  0.6444 -0.1955
10157TIP3    H151962   3.001   5.079  14.520  0.1399  0.9115 -2.1327
10157TIP3    H251963   2.870   5.111  14.590  1.0489 -1.1279  0.6076
10158TIP3   OH251964   0.155   1.806   5.602  0.3654 -0.8096 -0.3760
10158TIP3    H151965   0.119   1.834   5.518 -3.2018  4.5552  2.6425
10158TIP3    H251966   0.235   1.857   5.612  0.0039 -0.3439  0.1326
10159TIP3   OH251967   2.446   5.562   0.411 -0.5208 -0.3364 -0.3648
10159TIP3    H151968   2.390   5.499   0.366 -1.2163  0.8647 -1.2171
10159TIP3    H251969   2.478   5.620   0.341 -1.3613  1.3574  0.6312
10160TIP3   OH251970   4.315   3.551  13.400 -0.1687  0.1613  0.4123
10160TIP3    H151971   4.374   3.593  13.461 -1.1414  0.8060  0.9266
10160TIP3    H251972   4.356   3.564  13.314  0.3478  0.7349  0.7418
10161TIP3   OH251973   6.228   5.235  15.594 -0.1672  0.1773 -0.0770
10161TIP3    H151974   6.156   5.297  15.592 -0.2149  0.1580  1.0560
10161TIP3    H251975   6.252   5.228  15.686  0.8805 -0.2783 -0.3747
10162TIP3   OH251976   6.052   1.971   3.522 -0.6405  0.0081 -0.7149
10162TIP3    H151977   6.005   1.957   3.605  2.0517 -1.1926  0.6532
10162TIP3    H251978   6.072   2.064   3.522 -0.1557 -0.0886  0.2684
10163TIP3   OH251979   3.156   4.450   4.988 -0.1753 -0.1083 -0.0196
10163TIP3    H151980   3.173   4.364   5.026 -0.1464 -0.5181 -0.9702
10163TIP3    H251981   3.068   4.473   5.019  0.4959  0.3095  1.6884
10164TIP3   OH251982   6.165   1.810   3.207  0.2920  0.4980 -0.3705
10164TIP3    H151983   6.142   1.749   3.277  0.9008 -0.5297 -1.0541
10164TIP3    H251984   6.172   1.895   3.251 -0.6036  0.0936  0.5818
10165TIP3   OH251985   5.215   6.533   3.572 -0.0675  0.2093 -0.1122
10165TIP3    H151986   5.195   6.592   3.499  0.2781  0.9166  0.3625
10165TIP3    H251987   5.255   6.589   3.638 -0.2588 -0.4577  0.5726
10166TIP3   OH251988   3.954   4.198   4.805  0.2279 -0.0408  0.1546
10166TIP3    H151989   3.965   4.290   4.779  2.4681  0.1262  1.6465
10166TIP3    H251990   3.865   4.195   4.842  0.7551  1.9179  1.6833
10167TIP3   OH251991   2.592   5.436   2.666 -0.3755  0.0488  0.0812
10167TIP3    H151992   2.599   5.504   2.599 -1.0866 -0.5388 -0.6048
10167TIP3    H251993   2.508   5.394   2.648  1.0466 -2.4777 -0.9094
10168TIP3   OH251994   1.923   1.670  13.745 -1.0575  0.2473 -0.6636
10168TIP3    H151995   1.975   1.699  13.820 -2.1229  0.1131  0.1262
10168TIP3    H251996   1.974   1.699  13.669 -0.3129  0.9860  0.1018
10169TIP3   OH251997   2.037   6.276  13.862  0.2782 -0.8865 -0.3626
10169TIP3    H151998   2.040   6.245  13.952 -0.8342  0.4851  0.1684
10169TIP3    H251999   2.064   6.201  13.810 -0.4521 -2.1262  1.0167
10170TIP3   OH252000   3.686   3.187   2.043 -0.0050 -0.8706 -0.3164
10170TIP3    H152001   3.659   3.148   1.960  1.4243  0.7889 -1.5831
10170TIP3    H252002   3.757   3.132   2.074 -1.0291 -1.9248  0.1935
10171TIP3   OH252003   1.627   4.107   6.434  0.0237 -0.5289 -0.1402
10171TIP3    H152004   1.537   4.089   6.408  0.8064 -1.5900 -2.2421
10171TIP3    H252005   1.678   4.037   6.394  1.8718  0.4883  0.3889
10172TIP3   OH252006   5.117   1.869  16.121  0.3342 -0.3143 -0.5138
10172TIP3    H152007   5.179   1.882  16.192  2.4322 -0.5685 -2.2339
10172TIP3    H252008   5.137   1.938  16.058  1.2322 -2.4159 -2.6412
10173TIP3   OH252009   4.491   2.383   0.273 -0.2176  0.3206 -0.0711
10173TIP3    H152010   4.411   2.411   0.317 -0.1716  1.2249 -0.5481
10173TIP3    H252011   4.562   2.426   0.321 -0.1757  1.4420 -1.1112
10174TIP3   OH252012   5.832   3.690  12.904  0.1319 -0.0525 -0.3390
10174TIP3    H152013   5.828   3.685  12.808 -0.4385 -0.3112 -0.3082
10174TIP3    H252014   5.906   3.635  12.928 -0.6257 -1.1875 -0.5513
10175TIP3   OH252015   3.063   0.694  11.701 -0.3984 -0.3846 -0.1026
10175TIP3    H152016   3.106   0.667  11.620 -0.3466 -1.0813  0.1545
10175TIP3    H252017   3.012   0.772  11.676  0.1365 -0.2042 -0.6519
10176TIP3   OH252018   4.456   2.900   1.781 -0.2453  0.7989  0.0114
10176TIP3    H152019   4.537   2.937   1.747 -0.0717 -0.1179 -0.5806
10176TIP3    H252020   4.452   2.930   1.871  0.4917  1.2678 -0.1078
10177TIP3   OH252021   1.088   2.544  12.438  0.0076  0.4947 -0.4292
10177TIP3    H152022   1.006   2.573  12.398  0.6805  3.8425  0.4922
10177TIP3    H252023   1.115   2.617  12.494  3.7132 -0.4583 -0.8324
10178TIP3   OH252024   3.351   0.128  12.867 -0.1701 -0.1357 -0.0231
10178TIP3    H152025   3.286   0.176  12.918  0.0333  0.2544 -0.1351
10178TIP3    H252026   3.336   0.156  12.777  1.6012  1.6194  0.2059
10179TIP3   OH252027   3.136   0.522  13.215  0.1679  0.0271 -0.1207
10179TIP3    H152028   3.071   0.564  13.158 -1.0017  0.2522  1.3257
10179TIP3    H252029   3.219   0.533  13.169 -0.4041  2.2377 -0.7232
10180TIP3   OH252030   1.681   5.631   1.403 -0.6310  0.7157  0.5384
10180TIP3    H152031   1.638   5.661   1.483  0.2357  1.5489  0.6973
10180TIP3    H252032   1.628   5.669   1.333 -1.2503  0.1848  0.7122
10181TIP3   OH252033   4.460   5.887   2.787  0.2120  0.4079  0.0947
10181TIP3    H152034   4.486   5.920   2.701 -2.0892  2.5485  0.1755
10181TIP3    H252035   4.442   5.965   2.839 -0.1916 -0.8927  1.9726
10182TIP3   OH252036   6.415   1.576   2.080  0.1388  0.1955 -0.2874
10182TIP3    H152037   6.403   1.512   2.151 -0.5367 -0.8093 -1.2866
10182TIP3    H252038   6.327   1.608   2.062  0.4758  1.4020  0.1852
10183TIP3   OH252039   5.342   4.530  12.293 -0.1812  0.1315  0.3324
10183TIP3    H152040   5.402   4.574  12.233  0.1602  1.1693  1.4290
10183TIP3    H252041   5.255   4.555  12.261  0.0053  1.2136  0.6582
10184TIP3   OH252042   2.150   0.327   4.638 -0.1133 -0.2865  0.4430
10184TIP3    H152043   2.082   0.321   4.706  0.1047 -0.0491  0.6814
10184TIP3    H252044   2.125   0.404   4.586 -0.8206 -1.0240 -0.3404
10185TIP3   OH252045   5.500   2.209   3.408  0.0693 -0.2435  0.4576
10185TIP3    H152046   5.491   2.304   3.398  0.2081 -0.2252  0.5084
10185TIP3    H252047   5.569   2.199   3.473 -2.3092 -0.3209  3.0390
10186TIP3   OH252048   1.623   6.799  12.197 -0.0294 -0.3171 -0.3069
10186TIP3    H152049   1.561   6.846  12.253 -0.4561 -0.4388 -0.6724
10186TIP3    H252050   1.636   6.857  12.122 -0.1163 -0.5250 -0.4853
10187TIP3   OH252051   2.449   5.113   3.633  0.3157 -0.0714  0.3261
10187TIP3    H152052   2.368   5.152   3.665  0.1909  0.1042 -0.1989
10187TIP3    H252053   2.519   5.166   3.672  0.1483  0.5762 -0.2652
10188TIP3   OH252054   5.141   4.208  14.895  0.6938  1.0340 -0.1257
10188TIP3    H152055   5.100   4.272  14.837  1.4875 -0.1555 -2.0331
10188TIP3    H252056   5.185   4.262  14.962  0.1431  2.4251 -0.8584
10189TIP3   OH252057   4.974   0.103   4.088 -0.1645  0.6654  0.5745
10189TIP3    H152058   5.047   0.160   4.066  1.2024 -0.8085  1.2145
10189TIP3    H252059   5.007   0.046   4.158 -2.5522  1.3271  2.3343
10190TIP3   OH252060   1.797   2.830   0.989  0.4204  0.5130 -0.2050
10190TIP3    H152061   1.728   2.897   0.983 -0.5468 -0.4447  0.1646
10190TIP3    H252062   1.780   2.785   1.071  1.5853  0.3557 -0.0436
10191TIP3   OH252063   0.075   3.157  11.780 -0.2063  0.3523  0.4288
10191TIP3    H152064  -0.001   3.111  11.745  0.9009 -1.0095 -0.2373
10191TIP3    H252065   0.115   3.200  11.704  0.0895  0.4812  0.6541
10192TIP3   OH252066   2.967   4.191   0.106 -0.2376  0.4282 -0.2154
10192TIP3    H152067   3.011   4.106   0.109 -0.7126  0.0935 -1.8669
10192TIP3    H252068   2.890   4.180   0.161 -1.7948 -1.1410 -2.5966
10193TIP3   OH252069   3.227   5.102   0.894 -0.6409  0.0827 -0.0642
10193TIP3    H152070   3.225   5.021   0.945 -0.1494 -0.8867 -1.5536
10193TIP3    H252071   3.150   5.150   0.922 -0.1560 -0.2331  1.8999
10194TIP3   OH252072   3.635   1.716   1.250 -0.2963 -0.3067  0.3185
10194TIP3    H152073   3.619   1.629   1.286  1.2317 -0.7347 -0.0199
10194TIP3    H252074   3.730   1.728   1.255 -0.3785  0.9088 -0.6212
10195TIP3   OH252075   3.305   2.099   1.225 -0.1957  0.4849  0.1152
10195TIP3    H152076   3.362   2.051   1.284  1.4173  1.7947 -0.3250
10195TIP3    H252077   3.222   2.106   1.272  0.0234 -1.3194  0.8299
10196TIP3   OH252078   0.830   3.125   1.139 -0.0550 -0.0107  0.3080
10196TIP3    H152079   0.881   3.076   1.203  0.4873  0.3771  0.1768
10196TIP3    H252080   0.739   3.107   1.162  0.1399 -0.2159  0.9230
10197TIP3   OH252081   2.386   2.770  15.816 -0.4886  0.3482 -0.4847
10197TIP3    H152082   2.365   2.682  15.786 -1.0520 -0.0170  0.9471
10197TIP3    H252083   2.474   2.787  15.783  0.6602 -1.7565  1.3915
10198TIP3   OH252084   6.516   1.309   2.488 -0.5952  0.2238 -0.0899
10198TIP3    H152085   6.487   1.382   2.433 -0.5818  0.1985 -0.1308
10198TIP3    H252086   6.531   1.237   2.426 -2.5463 -0.4314  0.1628
10199TIP3   OH252087   2.187   2.208  15.840 -0.7831 -0.3123  0.3759
10199TIP3    H152088   2.195   2.297  15.875  1.5190 -0.1395 -0.5112
10199TIP3    H252089   2.227   2.152  15.906  0.0445 -0.4009 -0.1873
10200TIP3   OH252090   5.296   2.113  13.500  0.4941 -0.1058  1.0600
10200TIP3    H152091   5.391   2.104  13.489  0.2519  0.4737 -1.9312
10200TIP3    H252092   5.258   2.065  13.427 -1.5693 -0.8866  2.5912
10201TIP3   OH252093   4.074   0.410  13.628 -0.4825 -0.4916  0.1784
10201TIP3    H152094   4.053   0.501  13.604  1.1790 -0.3581 -0.8736
10201TIP3    H252095   4.138   0.383  13.563  0.8860 -1.6079  1.9592
10202TIP3   OH252096   2.704   5.195   0.054 -0.9146  0.3699 -0.0310
10202TIP3    H152097   2.652   5.209  -0.026 -1.1756 -1.1090 -0.1338
10202TIP3    H252098   2.792   5.176   0.021 -0.8350  0.5750  0.0645
10203TIP3   OH252099   6.560   5.009   2.047 -0.1783  0.3937 -0.4865
10203TIP3    H152100   6.498   4.951   2.003 -2.0116  1.4224  0.6501
10203TIP3    H252101   6.625   5.030   1.980 -0.1442 -1.9968 -1.2475
10204TIP3   OH252102   1.210   4.275  15.303  0.1449 -0.4762 -0.2905
10204TIP3    H152103   1.283   4.289  15.242 -0.4852  2.7490 -0.3916
10204TIP3    H252104   1.131   4.290  15.252 -0.5977 -2.5068  0.1879
10205TIP3   OH252105   2.578   4.168  16.079 -0.3584  0.3636  1.0825
10205TIP3    H152106   2.500   4.144  16.029  0.2323 -0.0229  0.3343
10205TIP3    H252107   2.545   4.192  16.165 -1.2461 -0.3362  0.9396
10206TIP3   OH252108   0.118   3.611  11.484 -0.1982  0.5744  0.0426
10206TIP3    H152109   0.035   3.625  11.440 -0.4474  2.0582  0.9669
10206TIP3    H252110   0.111   3.660  11.566  1.7098  1.0149 -0.0233
10207TIP3   OH252111   5.361   1.923   5.788 -0.0639  0.1983  0.0209
10207TIP3    H152112   5.421   1.936   5.861 -0.0288  0.4653 -0.0541
10207TIP3    H252113   5.280   1.966   5.815 -0.6184 -1.1730  0.6151
10208TIP3   OH252114   6.546   4.090   4.959 -0.7565 -0.3014 -0.8684
10208TIP3    H152115   6.628   4.056   4.925 -1.1543 -1.8361 -0.3506
10208TIP3    H252116   6.495   4.112   4.882  0.0057  0.3229 -1.1961
10209TIP3   OH252117   6.488   1.161  12.351  0.0586  0.4214  0.0600
10209TIP3    H152118   6.485   1.250  12.316  1.4565  0.1636 -0.7414
10209TIP3    H252119   6.499   1.173  12.445 -0.9208  1.0916  0.1010
10210TIP3   OH252120   6.660   4.279  16.236 -0.0953  0.1768 -0.2053
10210TIP3    H152121   6.653   4.244  16.325 -1.0905  0.2414 -0.2593
10210TIP3    H252122   6.653   4.374  16.246  0.8251  0.2622 -0.2542
10211TIP3   OH252123   2.906   1.865  12.795  0.2737 -0.2696 -0.3918
10211TIP3    H152124   2.966   1.929  12.834  0.6287 -0.4314 -0.6763
10211TIP3    H252125   2.961   1.790  12.774 -0.4841 -1.4351  1.7162
10212TIP3   OH252126   3.045   5.299   4.090 -0.9763 -0.1493  0.1503
10212TIP3    H152127   2.981   5.233   4.116 -2.2809 -0.1339 -2.7773
10212TIP3    H252128   3.102   5.254   4.028  0.9571  0.2626  1.5806
10213TIP3   OH252129   1.422   6.438  15.196  0.1986  0.0176 -0.5638
10213TIP3    H152130   1.486   6.474  15.258 -0.1018  1.1483 -0.9034
10213TIP3    H252131   1.338   6.450  15.239 -0.0696  1.3423 -1.4304
10214TIP3   OH252132   4.002   3.090   6.060 -0.1113  0.0495  0.5467
10214TIP3    H152133   3.951   3.116   6.137 -0.1040  0.0251  0.5596
10214TIP3    H252134   4.092   3.080   6.092 -0.3735 -1.4768  0.8806
10215TIP3   OH252135   5.306   4.071   4.620 -0.5384  0.2112  0.2603
10215TIP3    H152136   5.225   4.028   4.647 -1.2141  0.2462 -1.6602
10215TIP3    H252137   5.371   4.000   4.618 -0.5462  0.1532  1.6418
10216TIP3   OH252138   6.206   3.856  15.052  1.3294  0.2920  0.0030
10216TIP3    H152139   6.284   3.900  15.085  1.4661  1.7670 -2.2125
10216TIP3    H252140   6.171   3.915  14.986 -2.0945 -0.0160  1.4568
10217TIP3   OH252141   6.037   3.686   0.479  1.1663 -0.3188  0.2936
10217TIP3    H152142   5.964   3.678   0.417  1.4605  1.3319 -0.2769
10217TIP3    H252143   6.045   3.598   0.517  1.4654 -1.5601 -2.5510
10218TIP3   OH252144   6.300   6.205  10.657 -0.0222 -0.5945  0.2144
10218TIP3    H152145   6.352   6.259  10.717 -1.4013  0.3355  0.6022
10218TIP3    H252146   6.320   6.239  10.570  0.0266 -0.2319  0.3664
10219TIP3   OH252147   6.073   1.155  13.028  0.7877  0.2232  0.2046
10219TIP3    H152148   6.010   1.083  13.033  1.9944 -0.8209  0.6580
10219TIP3    H252149   6.031   1.219  12.972 -1.0062 -0.1204  1.1111
10220TIP3   OH252150   4.194   1.882  15.673 -0.0467  0.5439  0.0659
10220TIP3    H152151   4.114   1.864  15.623  0.6531  1.4214 -1.4198
10220TIP3    H252152   4.173   1.856  15.762 -1.5763 -0.3969 -0.5461
10221TIP3   OH252153   4.643   4.833   3.205 -0.1015  0.0216  0.0963
10221TIP3    H152154   4.667   4.871   3.120 -0.9351 -0.0718 -0.1848
10221TIP3    H252155   4.550   4.855   3.215  0.2848  1.0737  1.5343
10222TIP3   OH252156   0.341   5.549  10.614  0.6800  0.2454 -0.3585
10222TIP3    H152157   0.260   5.507  10.644  1.0396  0.3888  0.8193
10222TIP3    H252158   0.324   5.643  10.623  1.0388  0.2705  0.0411
10223TIP3   OH252159   0.795   3.533  11.233  0.6048  0.6235 -0.5464
10223TIP3    H152160   0.774   3.455  11.182  0.9783 -0.3410  0.7811
10223TIP3    H252161   0.738   3.601  11.195 -1.3616 -0.8027 -0.2482
10224TIP3   OH252162   3.773   0.465  10.958 -0.2439  0.1035 -0.4149
10224TIP3    H152163   3.808   0.443  10.871  0.6910 -0.1067  0.0001
10224TIP3    H252164   3.802   0.393  11.014 -1.4354 -0.1108 -0.0656
10225TIP3   OH252165   1.218   6.294  14.587 -0.5548  0.2634 -0.0976
10225TIP3    H152166   1.142   6.268  14.535 -0.7153  0.4543  0.0430
10225TIP3    H252167   1.279   6.331  14.524 -1.5436  2.3096  0.1205
10226TIP3   OH252168   0.021   5.227   1.951 -0.7272 -0.1436 -0.3948
10226TIP3    H152169  -0.023   5.164   1.895 -0.4127  0.1776 -1.0084
10226TIP3    H252170  -0.045   5.294   1.969 -0.4271  0.4873 -1.5488
10227TIP3   OH252171   6.770   2.893  13.835 -0.2386 -0.2699  0.5374
10227TIP3    H152172   6.753   2.860  13.747 -0.2148  0.6559  0.1750
10227TIP3    H252173   6.801   2.817  13.884 -2.5740 -1.3542  0.4136
10228TIP3   OH252174   4.454   0.169  15.047  0.8636  0.6078 -0.4767
10228TIP3    H152175   4.506   0.104  15.094  1.4048 -0.4855 -2.5199
10228TIP3    H252176   4.403   0.118  14.985 -1.5698  1.8183  0.4942
10229TIP3   OH252177   0.676   1.853   4.338 -0.0063  0.1787  0.1711
10229TIP3    H152178   0.581   1.859   4.340  0.0511  0.9225  1.5689
10229TIP3    H252179   0.704   1.924   4.280 -0.3598 -1.0368 -1.5143
10230TIP3   OH252180   1.821   1.425   5.864  0.2244  0.1309  0.2264
10230TIP3    H152181   1.895   1.367   5.846  0.9960  0.9185  0.7683
10230TIP3    H252182   1.826   1.441   5.959 -1.8114 -1.3628  0.6058
10231TIP3   OH252183   2.706   5.228   1.058  0.1432 -0.6298 -0.2208
10231TIP3    H152184   2.641   5.298   1.062  0.2451 -0.4418 -1.7678
10231TIP3    H252185   2.669   5.158   1.113 -0.5217  0.1506  0.3451
10232TIP3   OH252186   3.347   6.762  14.288  0.5619  0.7922  0.1441
10232TIP3    H152187   3.267   6.814  14.284 -0.0135 -0.2140 -1.9342
10232TIP3    H252188   3.337   6.707  14.365 -0.8902  0.4747 -0.2521
10233TIP3   OH252189   3.332   0.024   1.053  0.1284 -0.5960  0.3540
10233TIP3    H152190   3.270  -0.001   1.122 -1.5400 -0.3445 -1.0370
10233TIP3    H252191   3.368   0.107   1.083 -0.8363 -0.3221  0.7852
10234TIP3   OH252192   2.846   5.087   5.289  0.5280 -0.0055 -0.6675
10234TIP3    H152193   2.861   4.996   5.314  0.9985  0.0208 -0.8581
10234TIP3    H252194   2.751   5.100   5.301  0.2773 -0.8394 -1.7219
10235TIP3   OH252195   4.442   2.681   3.969  0.0905  0.4464 -0.0728
10235TIP3    H152196   4.455   2.765   4.014 -0.3227  0.6881 -0.4118
10235TIP3    H252197   4.522   2.669   3.918 -0.2572  1.0942 -0.7720
10236TIP3   OH252198   2.404   1.006   4.674 -1.0251  0.1785 -0.0997
10236TIP3    H152199   2.405   1.056   4.592  0.4175  1.5703  0.7337
10236TIP3    H252200   2.495   1.010   4.705 -1.7448  0.4587  2.0232
10237TIP3   OH252201   0.166   0.789   4.451 -0.0544 -0.3064  0.6875
10237TIP3    H152202   0.105   0.734   4.402  1.0149 -1.2235  0.3486
10237TIP3    H252203   0.163   0.755   4.540 -1.4319  0.8716  1.1097
10238TIP3   OH252204   1.049   4.512  14.788  0.0750  0.7280  0.1664
10238TIP3    H152205   1.119   4.485  14.729  0.8735  0.1173  1.3543
10238TIP3    H252206   1.022   4.430  14.831 -1.6061  0.9018 -0.5241
10239TIP3   OH252207   0.786   6.544  14.071  0.0887  0.2571 -0.3691
10239TIP3    H152208   0.794   6.631  14.111  0.3160  0.8396 -1.6485
10239TIP3    H252209   0.753   6.488  14.142 -1.1488  1.6319  0.1833
10240TIP3   OH252210   6.453   6.291   4.941 -0.1341 -0.0820  0.3493
10240TIP3    H152211   6.511   6.225   4.903  0.6360  1.1489 -0.6626
10240TIP3    H252212   6.512   6.349   4.989 -0.7792 -0.0268  1.0748
10241TIP3   OH252213   3.494   3.608  13.345 -0.1886  0.6947  0.0276
10241TIP3    H152214   3.469   3.669  13.276  3.7842  3.6002  0.9947
10241TIP3    H252215   3.508   3.663  13.422  1.1415 -1.7308  1.5824
10242TIP3   OH252216   6.087   6.775   0.745  0.3331 -0.1409 -0.1227
10242TIP3    H152217   6.074   6.870   0.744 -1.2164 -0.3419 -0.2572
10242TIP3    H252218   6.151   6.760   0.815  0.0122  0.9246  0.4064
10243TIP3   OH252219   5.714   5.941  13.724 -0.0545 -0.6638  0.1373
10243TIP3    H152220   5.686   5.929  13.633  0.8917 -0.7805 -0.1424
10243TIP3    H252221   5.783   6.007  13.719 -1.3059  0.7544  1.0001
10244TIP3   OH252222   4.679   5.852  12.764  0.4203 -0.1430  0.0205
10244TIP3    H152223   4.584   5.838  12.760  0.3857  0.0264  0.2523
10244TIP3    H252224   4.715   5.768  12.792  0.0811  0.6059  2.9526
10245TIP3   OH252225   3.069   2.771  17.109  0.7371  0.1056 -0.0800
10245TIP3    H152226   3.015   2.804  17.181  0.9218 -1.4427  0.7845
10245TIP3    H252227   3.156   2.806  17.127  0.8095 -0.3697  0.5217
10246TIP3   OH252228   0.217   6.652   0.288 -0.4388 -0.0158 -0.0213
10246TIP3    H152229   0.302   6.641   0.328 -1.6215  0.5637  2.7633
10246TIP3    H252230   0.228   6.620   0.198  2.7912  0.4977  0.1400
10247TIP3   OH252231   5.219   5.651   4.653 -0.0930 -0.5381 -0.1249
10247TIP3    H152232   5.195   5.713   4.584 -1.8611  0.6981  1.5655
10247TIP3    H252233   5.309   5.676   4.677 -0.4406  0.7452 -0.1275
10248TIP3   OH252234   3.951   2.283   6.005 -0.2417 -0.6021 -0.0302
10248TIP3    H152235   3.859   2.290   6.030 -0.4364 -2.1078 -0.2498
10248TIP3    H252236   3.996   2.348   6.058 -1.0669 -1.6657  1.9956
10249TIP3   OH252237   2.621   3.624   0.452  0.2089 -0.8292  0.4609
10249TIP3    H152238   2.582   3.609   0.366 -1.2250 -1.8229  1.2748
10249TIP3    H252239   2.549   3.654   0.507  1.2193  0.3425  1.1998
10250TIP3   OH252240   0.404   0.944   5.461 -0.2455 -0.0275  0.4114
10250TIP3    H152241   0.434   0.977   5.546  0.0547  1.0795 -0.1229
10250TIP3    H252242   0.332   1.002   5.437  0.9473  0.8895 -1.0029
10251TIP3   OH252243   5.869   5.908   1.477 -0.0239 -0.1503  0.0388
10251TIP3    H152244   5.916   5.890   1.395 -0.6328 -1.5843 -0.0109
10251TIP3    H252245   5.839   5.998   1.468 -0.9472 -0.6110 -1.7576
10252TIP3   OH252246   0.682   4.818  11.137 -0.1850  0.1981 -0.2697
10252TIP3    H152247   0.746   4.858  11.079 -1.1647  1.5988 -0.4288
10252TIP3    H252248   0.691   4.866  11.219  0.2559 -0.8595  0.3038
10253TIP3   OH252249   4.749   0.614   1.745  0.1468 -0.0949  0.7431
10253TIP3    H152250   4.774   0.647   1.658 -2.2557 -0.3399 -0.0782
10253TIP3    H252251   4.791   0.675   1.806  2.0387 -0.0330 -0.5594
10254TIP3   OH252252   3.394   0.218   1.228  0.0148 -0.1750  0.2865
10254TIP3    H152253   3.423   0.139   1.272 -0.3134 -1.2385 -1.3286
10254TIP3    H252254   3.340   0.264   1.293  0.3115 -1.2148  1.2785
10255TIP3   OH252255   5.519   0.808  10.999 -0.4138  1.1503 -0.0260
10255TIP3    H152256   5.431   0.824  10.966  0.5443 -0.4687 -3.6759
10255TIP3    H252257   5.576   0.856  10.939  1.3062  0.1664  0.7845
10256TIP3   OH252258   3.968   3.290  13.625  0.4644 -0.2093 -0.7325
10256TIP3    H152259   3.985   3.375  13.666  1.4590 -0.2600 -1.0423
10256TIP3    H252260   3.872   3.283  13.625  0.4228  0.2710  0.5967
10257TIP3   OH252261   6.793   4.004  15.430  0.2550  0.4859  0.2388
10257TIP3    H152262   6.760   4.047  15.509 -0.5395  0.2415  0.0439
10257TIP3    H252263   6.888   4.011  15.437  0.3095 -1.8357  2.5175
10258TIP3   OH252264   4.035   0.787  13.410  0.7395 -0.3634  0.0679
10258TIP3    H152265   3.966   0.773  13.345  0.2114 -1.8971  0.9221
10258TIP3    H252266   4.014   0.872  13.448 -1.9317 -1.6659  1.7248
10259TIP3   OH252267   6.671   4.562   2.355 -0.4958  0.3650 -0.2149
10259TIP3    H152268   6.644   4.513   2.278 -1.2714  1.3619 -0.5892
10259TIP3    H252269   6.767   4.563   2.351 -0.4358 -1.5941  0.1187
10260TIP3   OH252270   2.960   6.469   2.111 -0.2721  0.3446 -0.1203
10260TIP3    H152271   2.891   6.500   2.053 -1.9259 -1.7088  0.6839
10260TIP3    H252272   2.937   6.505   2.197  1.0531  1.6991 -0.3047
10261TIP3   OH252273   1.092   4.502   1.106  0.1951  0.1352 -0.3916
10261TIP3    H152274   1.161   4.508   1.040  1.7269  0.7913  1.2579
10261TIP3    H252275   1.131   4.536   1.186 -2.0553  0.5966  0.5619
10262TIP3   OH252276   2.946   6.132   4.672  0.4544  0.0269  0.2899
10262TIP3    H152277   2.956   6.132   4.768  0.6561  0.6567  0.2648
10262TIP3    H252278   2.933   6.039   4.650 -2.1496  0.1374  1.2063
10263TIP3   OH252279   2.431   2.966  12.095 -0.1564  0.2626 -0.2494
10263TIP3    H152280   2.336   2.970  12.084 -0.2551 -0.0769  0.4680
10263TIP3    H252281   2.444   2.926  12.181  0.6529 -0.7981 -0.8507
10264TIP3   OH252282   2.687   4.390  13.447 -0.3581  0.3530 -0.3719
10264TIP3    H152283   2.708   4.477  13.413  0.2470  0.6560  0.7478
10264TIP3    H252284   2.648   4.344  13.372 -1.0458  1.7084 -0.8832
10265TIP3   OH252285   3.003   4.715  14.708 -0.3194 -0.4885 -0.5410
10265TIP3    H152286   2.947   4.658  14.655 -0.7874 -0.9526  0.4334
10265TIP3    H252287   2.952   4.731  14.787  0.0025  0.9232 -0.6022
10266TIP3   OH252288   4.016   2.139   4.507  0.2252 -0.6891 -0.4385
10266TIP3    H152289   4.054   2.072   4.565 -0.7576 -1.6324 -0.8896
10266TIP3    H252290   4.014   2.099   4.421  0.8613  0.4064 -0.9766
10267TIP3   OH252291   6.696   6.490   0.395  0.8464  0.1078  0.0778
10267TIP3    H152292   6.717   6.400   0.371 -3.3305 -0.5646 -1.5113
10267TIP3    H252293   6.722   6.541   0.318 -0.1395 -0.2406 -0.4911
10268TIP3   OH252294   3.333   5.717   5.116 -0.4837 -0.0803 -0.0891
10268TIP3    H152295   3.290   5.677   5.041 -1.0918  0.1939  0.1097
10268TIP3    H252296   3.297   5.806   5.120  0.1955  0.1963  0.0017
10269TIP3   OH252297   0.136   4.056  16.676  0.6335 -0.1579  0.2309
10269TIP3    H152298   0.163   3.964  16.675 -0.0082 -0.3652  1.0152
10269TIP3    H252299   0.106   4.073  16.586  1.4249 -0.5068 -0.1014
10270TIP3   OH252300   3.542   1.148  16.705  0.1707  0.4023  0.0690
10270TIP3    H152301   3.494   1.065  16.702  1.9500 -0.6258 -0.6034
10270TIP3    H252302   3.595   1.142  16.784  2.0890 -0.1358 -1.2249
10271TIP3   OH252303   0.196   5.173   3.086 -0.1063  0.4955 -0.2643
10271TIP3    H152304   0.194   5.087   3.129  1.1745 -1.1028 -3.1914
10271TIP3    H252305   0.192   5.236   3.157 -1.7274 -1.9872  1.9496
10272TIP3   OH252306   2.213   0.207   4.875  0.1632  0.5890 -0.1872
10272TIP3    H152307   2.144   0.158   4.919 -1.0950  1.7328 -0.8664
10272TIP3    H252308   2.268   0.140   4.834  0.1922 -0.3806  1.4134
10273TIP3   OH252309   0.809   3.696   4.725 -0.5158 -0.1784  0.7726
10273TIP3    H152310   0.836   3.694   4.634 -1.4778 -1.9244  0.5001
10273TIP3    H252311   0.878   3.650   4.772 -1.7838 -2.5070  0.4065
10274TIP3   OH252312   5.585   6.567   3.022  0.4001  0.0548 -0.1769
10274TIP3    H152313   5.632   6.626   3.082  0.3884 -0.1704  0.0566
10274TIP3    H252314   5.511   6.619   2.990  1.9530  1.1159 -2.1567
10275TIP3   OH252315   2.934   0.587  16.527  0.0581  0.3647 -0.3007
10275TIP3    H152316   2.976   0.667  16.495 -0.0621  1.9719  3.3009
10275TIP3    H252317   2.856   0.618  16.573 -0.8691 -1.9772 -0.2350
10276TIP3   OH252318   0.825   5.839  16.932  1.0251  0.1482  0.0176
10276TIP3    H152319   0.853   5.749  16.916  1.7487  0.2835  0.4937
10276TIP3    H252320   0.771   5.833  17.011  1.3368  0.1735  0.2339
10277TIP3   OH252321   4.115   3.701   0.264  0.6334  0.1645  0.8890
10277TIP3    H152322   4.151   3.731   0.347  0.3838 -1.1183  1.4694
10277TIP3    H252323   4.127   3.606   0.265  1.4520  0.2291 -0.9429
10278TIP3   OH252324   0.354   5.643   5.034  0.3759  0.0893 -0.0041
10278TIP3    H152325   0.351   5.731   4.996 -1.7622  0.0697  0.0755
10278TIP3    H252326   0.312   5.587   4.969 -0.1262 -0.5346  0.8500
10279TIP3   OH252327   0.467   0.587  16.745 -0.0430  0.2680  0.5689
10279TIP3    H152328   0.390   0.555  16.697 -0.5239  1.3513  0.6123
10279TIP3    H252329   0.514   0.641  16.682  0.9337 -0.7486  0.4068
10280TIP3   OH252330   3.497   0.433   2.360  0.7321  0.0339  0.1176
10280TIP3    H152331   3.478   0.517   2.402  0.1654  0.0222 -0.1033
10280TIP3    H252332   3.591   0.434   2.347  0.5125  1.4710 -1.6305
10281TIP3   OH252333   0.235   3.235   3.963 -0.3778  0.2850 -0.0708
10281TIP3    H152334   0.250   3.144   3.940 -1.8050  0.2550 -0.9819
10281TIP3    H252335   0.172   3.232   4.035 -2.1860  0.5668 -1.5812
10282TIP3   OH252336   1.124   4.777   2.470 -0.1278 -0.6445  0.2345
10282TIP3    H152337   1.198   4.773   2.531 -0.7326 -1.0384  0.9598
10282TIP3    H252338   1.140   4.855   2.417 -0.0565  0.2086  1.5016
10283TIP3   OH252339   6.545   4.372   5.109  0.4399 -0.1779 -0.1588
10283TIP3    H152340   6.534   4.280   5.086  1.1490  0.0916 -1.6650
10283TIP3    H252341   6.589   4.410   5.033  1.2451  1.1484  0.9443
10284TIP3   OH252342   5.851   4.039  16.120  0.9724  0.3160  0.5121
10284TIP3    H152343   5.906   4.116  16.102  1.4843 -0.2047 -0.1402
10284TIP3    H252344   5.876   3.975  16.054  0.9239 -0.6184  1.3888
10285TIP3   OH252345   6.228   3.443  15.958  0.0020  0.0728  0.2241
10285TIP3    H152346   6.295   3.466  16.023  0.1682  0.4195 -0.0711
10285TIP3    H252347   6.215   3.523  15.907 -1.3635  0.3056  0.9213
10286TIP3   OH252348   3.733   5.508   2.042  0.0212 -0.2390 -0.5141
10286TIP3    H152349   3.789   5.577   2.005 -1.4442  0.9970 -0.5046
10286TIP3    H252350   3.772   5.489   2.127  1.5268 -0.7625 -1.3062
10287TIP3   OH252351   6.778   1.497   3.771  0.4144  0.5275 -0.2490
10287TIP3    H152352   6.856   1.519   3.721  1.5259  0.0929  1.2578
10287TIP3    H252353   6.734   1.429   3.719  1.4091  0.2746 -0.7598
10288TIP3   OH252354   6.753   5.230   4.524 -0.2805  0.6914 -0.0233
10288TIP3    H152355   6.669   5.200   4.488  0.4565 -0.0056 -1.2109
10288TIP3    H252356   6.761   5.320   4.494 -0.1196  0.4186 -0.8254
10289TIP3   OH252357   1.874   1.849   1.424 -0.1681 -0.5026 -0.3045
10289TIP3    H152358   1.933   1.884   1.358 -0.2162  0.4028  0.1230
10289TIP3    H252359   1.787   1.870   1.392 -0.1386  1.6017  0.9479
10290TIP3   OH252360   3.357   2.491   0.322 -0.1574  0.8136 -0.0152
10290TIP3    H152361   3.285   2.489   0.384 -0.3432  1.0270 -0.2213
10290TIP3    H252362   3.400   2.575   0.339  0.5201  0.3415  0.6447
10291TIP3   OH252363   0.229   3.394   2.163 -0.0605 -0.3672 -0.1436
10291TIP3    H152364   0.294   3.344   2.212 -1.7120 -2.6894 -0.2559
10291TIP3    H252365   0.145   3.354   2.186 -1.3717  1.8362 -0.8782
10292TIP3   OH252366   5.075   5.278  17.256 -0.0699  0.0954  0.3300
10292TIP3    H152367   5.151   5.300  17.201 -1.3955  0.5921 -1.3400
10292TIP3    H252368   5.103   5.200  17.305  1.0501 -0.5449 -1.2788
10293TIP3   OH252369   4.054   2.757  11.211  0.2305 -0.8144 -0.3850
10293TIP3    H152370   4.106   2.716  11.142  0.4476  2.6948 -2.4157
10293TIP3    H252371   3.966   2.764  11.173 -0.2598 -1.0973  0.6729
10294TIP3   OH252372   1.740   4.543  10.587 -0.4516 -0.0018 -0.2548
10294TIP3    H152373   1.692   4.586  10.658  1.3922 -0.9031  1.5731
10294TIP3    H252374   1.677   4.484  10.547 -1.7772  1.2153 -0.0039
10295TIP3   OH252375   4.432   2.810  14.398 -0.6203 -0.2047  0.7722
10295TIP3    H152376   4.513   2.785  14.441 -0.5373  1.2839  1.5173
10295TIP3    H252377   4.459   2.860  14.322 -0.8100 -0.9075  0.2402
10296TIP3   OH252378   1.925   6.433   0.729 -0.3816  0.1464 -0.0713
10296TIP3    H152379   1.995   6.484   0.768  0.2473  0.6670 -1.8087
10296TIP3    H252380   1.946   6.342   0.751 -0.2209  0.4516  1.0308
10297TIP3   OH252381   1.035   4.664  15.139  0.3068  0.1855 -0.6783
10297TIP3    H152382   0.958   4.696  15.094  1.4512  0.2378 -2.6278
10297TIP3    H252383   1.049   4.576  15.104 -1.1406 -1.4468  2.5481
10298TIP3   OH252384   4.338   5.043   1.388  0.7017 -0.9042 -0.2676
10298TIP3    H152385   4.333   5.037   1.484  1.4334 -0.3035 -0.1847
10298TIP3    H252386   4.283   4.971   1.357  0.0680 -0.8086  0.6008
10299TIP3   OH252387   5.690   2.238   2.145  0.4517  0.0321  0.1456
10299TIP3    H152388   5.600   2.221   2.115  1.4685 -0.4402 -2.7445
10299TIP3    H252389   5.744   2.177   2.095  2.4063  0.2904  1.8947
10300TIP3   OH252390   1.294   3.380   3.513 -0.1309  0.4889 -0.0059
10300TIP3    H152391   1.242   3.301   3.529 -2.0606  1.9349  1.1963
10300TIP3    H252392   1.273   3.437   3.587  1.0526  2.2050 -0.9590
10301TIP3   OH252393   0.804   1.232   1.829 -0.3330 -0.4637  0.1405
10301TIP3    H152394   0.731   1.197   1.879  0.0216 -1.4627 -0.0317
10301TIP3    H252395   0.842   1.156   1.786 -0.8854  0.4486 -1.9957
10302TIP3   OH252396   0.951   4.595   2.947 -0.4888 -0.3577 -0.0293
10302TIP3    H152397   0.961   4.688   2.965 -1.6658 -0.1049 -0.6558
10302TIP3    H252398   1.024   4.554   2.994  0.1401  0.8844  0.1033
10303TIP3   OH252399   1.289   1.057   6.328 -0.3596  0.2493 -0.3572
10303TIP3    H152400   1.300   1.049   6.423 -0.5697 -3.8455 -0.5963
10303TIP3    H252401   1.378   1.058   6.293 -0.3058  0.1209 -0.2206
10304TIP3   OH252402   1.099   2.870  10.969 -0.3027  0.1855  0.4634
10304TIP3    H152403   1.033   2.808  10.938  2.2388 -3.0018  1.2463
10304TIP3    H252404   1.129   2.914  10.889  0.0721 -1.8210 -0.5337
10305TIP3   OH252405   2.938   6.169  16.293  0.5707 -0.3056 -0.1101
10305TIP3    H152406   2.994   6.212  16.229 -1.0818 -0.9730 -2.0389
10305TIP3    H252407   2.953   6.076  16.279 -0.9747 -0.4860 -0.5940
10306TIP3   OH252408   2.071   4.339  13.112  0.4566 -0.6013  0.6222
10306TIP3    H152409   2.162   4.332  13.143  0.2684 -0.7499  1.1403
10306TIP3    H252410   2.043   4.249  13.098  0.9064 -0.5082 -1.0743
10307TIP3   OH252411   5.618   4.064  11.803  0.5524 -0.0160 -0.7192
10307TIP3    H152412   5.691   4.005  11.787  0.3915 -0.8124  1.2593
10307TIP3    H252413   5.649   4.123  11.872 -0.5119 -0.1062 -0.1440
10308TIP3   OH252414   0.390   6.142  15.522  0.5396  0.4103  0.2125
10308TIP3    H152415   0.383   6.225  15.474 -1.7734 -0.1436 -0.4790
10308TIP3    H252416   0.374   6.166  15.613 -0.0475  0.7374  0.0280
10309TIP3   OH252417   0.153   1.289   1.241 -0.1833  0.0812  0.1597
10309TIP3    H152418   0.205   1.360   1.205 -0.1462 -0.0929 -0.1245
10309TIP3    H252419   0.214   1.216   1.249  0.4885  0.8574  2.9776
10310TIP3   OH252420   3.300   5.411  15.514 -0.3375 -0.2491 -0.3770
10310TIP3    H152421   3.360   5.413  15.589 -0.6652 -0.6934 -0.1030
10310TIP3    H252422   3.310   5.324  15.476  0.2922  0.1901 -1.2329
10311TIP3   OH252423   6.260   5.171  15.339 -0.7786  0.0919 -0.4009
10311TIP3    H152424   6.284   5.080  15.325  2.9497  1.0248 -0.5199
10311TIP3    H252425   6.272   5.185  15.433 -1.5780  0.4354 -0.3378
10312TIP3   OH252426   6.360   2.561  16.765  0.3560  0.3133  0.6417
10312TIP3    H152427   6.389   2.471  16.755  0.5865  0.5942 -1.3881
10312TIP3    H252428   6.437   2.608  16.797  0.9117  0.2054 -0.4866
10313TIP3   OH252429   2.309   0.455   4.149 -0.0161  0.3766 -0.1162
10313TIP3    H152430   2.305   0.464   4.244 -0.5763 -0.1952 -0.0846
10313TIP3    H252431   2.317   0.361   4.134 -0.5180  0.4192 -0.6614
10314TIP3   OH252432   1.926   1.022  16.946 -0.5829  0.0397  0.2051
10314TIP3    H152433   1.979   1.054  16.873  3.3056  1.0039  3.3010
10314TIP3    H252434   1.960   0.934  16.964 -0.2329  0.5164  1.9893
10315TIP3   OH252435   2.723   6.624   1.972 -0.0574  0.0559  1.0862
10315TIP3    H152436   2.649   6.610   2.031 -1.7298  2.1711 -0.3877
10315TIP3    H252437   2.682   6.649   1.889  2.3064  0.4688  0.0054
10316TIP3   OH252438   6.197   5.081  16.375 -0.1825  0.3161  0.2010
10316TIP3    H152439   6.254   5.152  16.347  3.1032 -2.9198 -1.8088
10316TIP3    H252440   6.242   5.041  16.450  0.0643 -2.0734 -1.1773
10317TIP3   OH252441   0.931   4.998  15.340 -0.3119  0.2516  0.4202
10317TIP3    H152442   0.915   5.044  15.257 -0.5858  3.0479  1.9446
10317TIP3    H252443   0.859   5.025  15.397  1.0383  0.0946  2.2528
10318TIP3   OH252444   0.004   4.262  15.097  0.4752 -0.1471 -0.3038
10318TIP3    H152445  -0.082   4.283  15.134  0.5947 -0.4829  0.1613
10318TIP3    H252446   0.057   4.235  15.172  1.5123  1.7072 -0.3300
10319TIP3   OH252447   3.114   5.609   3.445  0.1565 -0.0135  0.0252
10319TIP3    H152448   3.170   5.535   3.423 -0.7237 -0.5327 -0.4940
10319TIP3    H252449   3.046   5.572   3.501  0.7309  0.7503  1.2724
10320TIP3   OH252450   6.790   3.912   2.120  0.1784 -0.4408  0.5301
10320TIP3    H152451   6.745   3.829   2.135  1.0112 -1.0353 -0.2409
10320TIP3    H252452   6.883   3.889   2.117  0.3605  0.3889 -0.5437
10321TIP3   OH252453   2.216   3.231   4.019  0.8550 -0.0194 -0.0025
10321TIP3    H152454   2.236   3.199   3.931  0.7437 -1.3643  0.4493
10321TIP3    H252455   2.265   3.173   4.077  0.2572  0.3222  0.8496
10322TIP3   OH252456   1.177   6.211  16.135  0.0813  0.2408  0.0314
10322TIP3    H152457   1.244   6.258  16.184 -0.9145  1.1193  0.5873
10322TIP3    H252458   1.223   6.137  16.094  1.0474 -0.1515  1.7972
10323TIP3   OH252459   1.027   1.302   1.385 -0.9084 -0.3719 -0.2687
10323TIP3    H152460   0.981   1.244   1.325 -1.2586  0.6079 -0.9597
10323TIP3    H252461   0.971   1.379   1.393 -0.6304 -0.2815  0.9379
10324TIP3   OH252462   0.460   0.778   3.868 -0.5075 -0.2682  0.0621
10324TIP3    H152463   0.392   0.748   3.928 -3.3243  2.2805 -1.6434
10324TIP3    H252464   0.506   0.848   3.915 -1.7765  0.7484 -0.1647
10325TIP3   OH252465   3.739   2.560  13.530  0.1797 -0.1500  1.1662
10325TIP3    H152466   3.764   2.469  13.542  1.3784  0.0729  0.3858
10325TIP3    H252467   3.762   2.581  13.440 -0.4182  0.8195  1.2252
10326TIP3   OH252468   3.333   4.925  13.664 -0.7168 -0.4899  0.0704
10326TIP3    H152469   3.372   4.979  13.596 -1.7185 -0.8660 -0.8212
10326TIP3    H252470   3.318   4.985  13.737 -0.2351  0.0641 -0.2847
10327TIP3   OH252471   6.764   5.274  15.341 -0.7577 -0.1533  0.3050
10327TIP3    H152472   6.697   5.251  15.276  0.0149 -0.7247 -0.2987
10327TIP3    H252473   6.803   5.190  15.366  0.1244  0.2296  0.2225
10328TIP3   OH252474   2.833   3.520  15.975 -0.5366 -0.1821  0.2310
10328TIP3    H152475   2.838   3.522  16.071  0.5500  2.1995  0.1744
10328TIP3    H252476   2.753   3.568  15.954  0.1570  0.8493 -0.0869
10329TIP3   OH252477   4.457   6.215  14.303 -0.2461 -0.2775 -0.5831
10329TIP3    H152478   4.541   6.258  14.290 -0.9434  0.6290 -2.2055
10329TIP3    H252479   4.400   6.284  14.336 -0.9681 -0.3273 -1.7174
10330TIP3   OH252480   0.072   5.030  15.440 -0.0412 -0.2581 -0.4224
10330TIP3    H152481   0.057   4.936  15.433  0.2195 -0.2743 -0.7801
10330TIP3    H252482   0.167   5.039  15.447 -0.0493 -0.0057 -0.6236
10331TIP3   OH252483   1.409   3.954  15.400  0.2621 -0.2887  0.0487
10331TIP3    H152484   1.314   3.942  15.399  0.1037  1.0080 -0.8886
10331TIP3    H252485   1.434   3.934  15.491 -0.7293 -1.7880  0.0206
10332TIP3   OH252486   1.018   2.401  14.656 -0.3196 -0.6424 -0.4002
10332TIP3    H152487   1.062   2.328  14.699  0.6763  0.3474  0.2962
10332TIP3    H252488   0.933   2.366  14.630 -0.6523 -1.4873  1.7090
10333TIP3   OH252489   0.803   4.051  16.887  0.2008  0.2135  0.3831
10333TIP3    H152490   0.788   4.116  16.955 -1.3229  0.5610 -0.2398
10333TIP3    H252491   0.777   4.095  16.806 -1.5059 -1.3406  0.0231
10334TIP3   OH252492   2.760   0.701  10.607 -0.1010  0.0625 -0.2360
10334TIP3    H152493   2.684   0.705  10.666  2.1760  0.1233  2.8103
10334TIP3    H252494   2.757   0.612  10.571 -0.1344 -0.8627  1.9750
10335TIP3   OH252495   3.491   4.110   3.423  0.4700  0.1962  0.4104
10335TIP3    H152496   3.519   4.180   3.364  0.9928 -0.3406  0.0212
10335TIP3    H252497   3.416   4.070   3.379  0.9389 -0.2853  0.0596
10336TIP3   OH252498   4.145   1.452   4.381  0.3678  0.1821  0.0789
10336TIP3    H152499   4.197   1.532   4.384  0.7623 -0.0618 -0.2349
10336TIP3    H252500   4.068   1.471   4.436 -0.5211  1.4583 -1.5626
10337TIP3   OH252501   2.764   3.711  12.477  0.5624 -0.6318  0.3269
10337TIP3    H152502   2.778   3.789  12.532  0.5019 -1.0857  0.9887
10337TIP3    H252503   2.841   3.656  12.494 -0.4259 -1.6723  1.4821
10338TIP3   OH252504   0.698   2.404  15.436  0.2280  0.0420 -0.1372
10338TIP3    H152505   0.659   2.413  15.349 -0.3711  0.3690  0.1667
10338TIP3    H252506   0.770   2.342  15.424  0.4261  0.4301 -0.9611
10339TIP3   OH252507   1.100   6.025  15.196  0.2784 -0.0455  0.4896
10339TIP3    H152508   1.035   5.963  15.228  1.3758 -1.0315  0.8490
10339TIP3    H252509   1.146   6.054  15.275  0.0838  0.8762  0.2690
10340TIP3   OH252510   0.271   5.930  16.373 -0.2514 -0.2154 -0.2297
10340TIP3    H152511   0.290   6.017  16.336 -1.7665  0.6734  0.9856
10340TIP3    H252512   0.355   5.899  16.406  0.5569  0.2288 -1.8348
10341TIP3   OH252513   2.548   6.099   3.367  0.4243  0.1652  0.0324
10341TIP3    H152514   2.604   6.046   3.425  1.0308  0.2460 -0.4688
10341TIP3    H252515   2.544   6.184   3.410 -2.1329 -0.8192  1.8389
10342TIP3   OH252516   3.944   2.906   0.811  0.3006  0.1782 -0.4939
10342TIP3    H152517   4.005   2.865   0.873 -1.6933 -1.2810  0.5929
10342TIP3    H252518   3.926   2.837   0.747 -1.4565 -0.0043  0.1558
10343TIP3   OH252519   1.895   5.778  13.868 -0.2231  0.2415 -0.3612
10343TIP3    H152520   1.831   5.844  13.839  0.6073  0.1739 -2.3956
10343TIP3    H252521   1.967   5.785  13.806  0.5821 -1.5250  0.3372
10344TIP3   OH252522   2.978   1.981   1.946  0.1339 -0.0878  0.3690
10344TIP3    H152523   2.952   1.901   1.993  1.5110 -0.2137  0.9392
10344TIP3    H252524   2.985   2.047   2.015 -1.4332  0.6421 -0.1606
10345TIP3   OH252525   2.882   5.108   6.152  0.2395 -0.0143  0.3770
10345TIP3    H152526   2.940   5.122   6.226 -0.2409  0.5116  0.6574
10345TIP3    H252527   2.901   5.180   6.092 -0.2889  0.2976  0.5793
10346TIP3   OH252528   2.452   0.276  15.738 -0.2571 -0.1466  0.4648
10346TIP3    H152529   2.431   0.365  15.711  2.2799  0.3234 -0.0840
10346TIP3    H252530   2.516   0.286  15.808 -0.4664 -1.5301  0.8840
10347TIP3   OH252531   5.632   5.473  12.137  0.2902  0.3786 -0.1986
10347TIP3    H152532   5.694   5.409  12.173  0.9062  0.4563 -1.1113
10347TIP3    H252533   5.558   5.472  12.198  1.3606  0.5614  1.1215
10348TIP3   OH252534   1.942   2.642   2.496 -0.5863 -0.2553  0.4356
10348TIP3    H152535   1.857   2.619   2.533 -0.4452  0.1665  1.0328
10348TIP3    H252536   1.921   2.694   2.418 -0.8827 -0.9144  0.0754
10349TIP3   OH252537   2.827   0.248  14.090 -0.5835  0.3504  0.0137
10349TIP3    H152538   2.747   0.262  14.140 -1.3206  0.1781 -1.1238
10349TIP3    H252539   2.819   0.306  14.014  0.9271  1.2747  0.5210
10350TIP3   OH252540   4.474   5.273  10.430 -0.0077  0.0268 -0.0897
10350TIP3    H152541   4.549   5.249  10.375  0.0754  0.7270 -0.2895
10350TIP3    H252542   4.398   5.256  10.374  0.0505  0.2106 -0.2273
10351TIP3   OH252543   1.046   2.209   3.992 -0.7379  0.3831  0.3968
10351TIP3    H152544   0.966   2.159   4.008  0.1293 -1.4088 -0.6297
10351TIP3    H252545   1.116   2.148   4.012  0.3585  1.2677 -0.6947
10352TIP3   OH252546   4.570   0.325   4.451 -0.0659  0.0217  0.0618
10352TIP3    H152547   4.569   0.367   4.365 -0.3875  1.4644  0.7540
10352TIP3    H252548   4.554   0.233   4.433  0.8384  0.1541 -1.5084
10353TIP3   OH252549   1.009   1.843   6.573 -0.1546 -0.5005 -0.3453
10353TIP3    H152550   1.088   1.836   6.520 -0.7208 -1.9831 -1.0095
10353TIP3    H252551   0.988   1.937   6.573  1.0094 -0.2336 -1.0176
10354TIP3   OH252552   1.991   0.853  14.049 -0.1347 -0.0457 -0.6753
10354TIP3    H152553   2.043   0.789  14.099 -1.0312  0.4151  0.8708
10354TIP3    H252554   2.054   0.921  14.027  0.2904 -0.2751 -0.2060
10355TIP3   OH252555   2.160   1.437   2.164  0.2240 -0.4152  0.8222
10355TIP3    H152556   2.068   1.435   2.188 -0.6075  0.7535 -2.0194
10355TIP3    H252557   2.195   1.354   2.198 -2.3633 -1.8515  0.1842
10356TIP3   OH252558   3.748   0.604   4.182  0.9708 -0.3698  0.2303
10356TIP3    H152559   3.821   0.573   4.234  0.2096 -0.6209  1.1473
10356TIP3    H252560   3.754   0.554   4.100  2.4552  0.3878 -0.1503
10357TIP3   OH252561   3.238   1.476  11.453 -0.0143  0.2786  0.5315
10357TIP3    H152562   3.300   1.422  11.502 -0.5905 -1.7891 -0.9031
10357TIP3    H252563   3.164   1.488  11.512  0.2957 -0.1932  1.0164
10358TIP3   OH252564   1.892   2.835   3.433  0.0182  0.0030 -0.0859
10358TIP3    H152565   1.913   2.895   3.504 -1.3778  2.6099 -1.8119
10358TIP3    H252566   1.867   2.891   3.360 -0.7472 -2.6597 -1.9591
10359TIP3   OH252567   0.517   4.816   0.462 -0.6474  0.4404 -0.0738
10359TIP3    H152568   0.603   4.828   0.502  0.3976 -2.2040 -1.3919
10359TIP3    H252569   0.459   4.793   0.535  0.1387  0.5738  0.5959
10360TIP3   OH252570   3.751   1.331   4.085 -0.7791 -1.1433 -0.6259
10360TIP3    H152571   3.780   1.354   3.997 -2.5223  0.6313 -0.7773
10360TIP3    H252572   3.695   1.254   4.072 -0.7814 -1.0735 -1.0223
10361TIP3   OH252573   5.844   3.411  13.964 -0.1418 -0.0464  0.3962
10361TIP3    H152574   5.807   3.389  14.050  1.1629 -1.9514  0.5171
10361TIP3    H252575   5.892   3.332  13.939 -0.3999  0.5516 -2.0336
10362TIP3   OH252576   6.519   3.824  12.075  0.0670  0.0518 -0.7306
10362TIP3    H152577   6.488   3.852  11.989 -0.4528  1.0858 -0.2118
10362TIP3    H252578   6.533   3.729  12.066  2.0297  0.4812 -2.5718
10363TIP3   OH252579   1.536   4.693   3.224  0.4032 -0.7720  0.0933
10363TIP3    H152580   1.615   4.745   3.211  0.8667 -1.4652  0.1184
10363TIP3    H252581   1.566   4.602   3.220 -0.4189 -1.0417 -0.0820
10364TIP3   OH252582   3.441   2.270  11.260  0.1080  1.2733 -0.0509
10364TIP3    H152583   3.368   2.209  11.250 -0.7086  2.1487  0.4984
10364TIP3    H252584   3.402   2.349  11.297  1.0352  2.3854 -1.3924
10365TIP3   OH252585   1.513   5.208  14.528  0.4538 -1.0358  0.3077
10365TIP3    H152586   1.573   5.138  14.503 -0.7123 -2.1622  0.6131
10365TIP3    H252587   1.520   5.213  14.624 -0.1593 -1.3757  0.3721
10366TIP3   OH252588   2.908   0.801  13.828 -0.1684  0.2027 -0.6737
10366TIP3    H152589   2.813   0.798  13.835 -0.1116  2.2777  1.5963
10366TIP3    H252590   2.938   0.738  13.894  0.0431  0.0220 -0.9441
10367TIP3   OH252591   1.091   6.066   5.062 -0.2095  0.1972  0.3111
10367TIP3    H152592   1.009   6.040   5.105 -0.7275 -1.1552 -1.4460
10367TIP3    H252593   1.063   6.097   4.976  1.1130 -0.0051 -0.1917
10368TIP3   OH252594   1.809   3.313  11.889  0.2787  0.0769  0.2596
10368TIP3    H152595   1.829   3.393  11.839 -2.2482 -0.0216 -0.9836
10368TIP3    H252596   1.789   3.248  11.822 -3.1610 -0.0652  1.3788
10369TIP3   OH252597   4.187   2.601  11.040 -0.4231 -0.2400  0.1015
10369TIP3    H152598   4.144   2.561  10.965  0.0382  1.1917 -0.9591
10369TIP3    H252599   4.259   2.652  11.003 -1.0762  1.6906  1.3462
10370TIP3   OH252600   1.515   1.861  11.799 -0.0433  0.7175 -0.1232
10370TIP3    H152601   1.543   1.770  11.800 -2.7559 -0.1548  1.8044
10370TIP3    H252602   1.498   1.880  11.707  2.5007 -0.0549 -0.7848
10371TIP3   OH252603   4.094   0.994   4.401  0.4242 -0.2262 -0.2515
10371TIP3    H152604   4.059   1.035   4.480 -0.8066  0.2019 -1.0079
10371TIP3    H252605   4.048   1.037   4.329  2.7069  0.5222 -1.2989
10372TIP3   OH252606   0.041   6.689  14.213 -0.0831  0.4424  0.0211
10372TIP3    H152607   0.099   6.655  14.146 -0.4509  1.5126 -0.8545
10372TIP3    H252608   0.077   6.774  14.235 -0.4201  0.4374  0.6056
10373TIP3   OH252609   0.321   1.562  13.479  0.1140 -0.1963 -0.1768
10373TIP3    H152610   0.340   1.656  13.477 -0.8807 -0.0000 -1.0228
10373TIP3    H252611   0.321   1.539  13.572  0.4094  0.6286  0.0303
10374TIP3   OH252612   1.331   5.063  11.638 -0.1107  0.5772 -0.9958
10374TIP3    H152613   1.322   5.087  11.545 -0.8787  0.7619 -0.8760
10374TIP3    H252614   1.423   5.082  11.658 -0.1743  1.4466 -1.4664
10375TIP3   OH252615   3.864   1.011  12.893 -0.0686 -0.1103 -0.1764
10375TIP3    H152616   3.884   1.078  12.827  2.2994  0.3007  0.8989
10375TIP3    H252617   3.936   0.948  12.886 -1.1864 -1.4654  0.2444
10376TIP3   OH252618   6.724   5.976  13.064  0.6499  0.1233 -0.2012
10376TIP3    H152619   6.762   5.900  13.107  0.4765 -0.1886 -0.5987
10376TIP3    H252620   6.796   6.014  13.014  0.3159 -0.7819 -1.3933
10377TIP3   OH252621   6.009   6.028  17.038  0.3136 -0.1707 -0.0796
10377TIP3    H152622   6.081   6.034  17.101 -0.0924 -1.7181  0.5566
10377TIP3    H252623   6.050   5.993  16.959  0.7513  1.4259 -0.5930
10378TIP3   OH252624   4.799   5.553  12.415  0.2997 -0.2239  0.5890
10378TIP3    H152625   4.761   5.636  12.442 -1.4403 -2.0291  4.0601
10378TIP3    H252626   4.753   5.530  12.335  0.1117  1.6544  0.1395
10379TIP3   OH252627   6.795   4.555   3.621  0.2422 -0.6441  0.4285
10379TIP3    H152628   6.795   4.460   3.627  0.2239 -0.7796 -1.4415
10379TIP3    H252629   6.811   4.574   3.528  0.7853  1.1795  0.8551
10380TIP3   OH252630   1.943   0.448   4.454 -0.3366 -0.2458  0.1136
10380TIP3    H152631   1.894   0.414   4.379  0.2147  0.2826 -0.4909
10380TIP3    H252632   1.900   0.410   4.530 -1.3307 -0.2342 -0.4406
10381TIP3   OH252633   2.866   5.338   4.433 -0.1920  0.0732 -0.4064
10381TIP3    H152634   2.899   5.335   4.343 -1.6156 -0.4100 -0.9251
10381TIP3    H252635   2.911   5.412   4.472  2.3110 -1.1795 -0.7726
10382TIP3   OH252636   2.066   3.361   3.119  0.1727  0.1319 -0.5517
10382TIP3    H152637   1.973   3.384   3.126  0.1676  0.2449 -0.9562
10382TIP3    H252638   2.071   3.271   3.150  0.0299  0.3379  0.0884
10383TIP3   OH252639   5.002   3.593  15.572 -0.0166  0.2951 -0.0623
10383TIP3    H152640   5.083   3.582  15.524  0.1459  0.4699  0.1704
10383TIP3    H252641   5.026   3.645  15.649 -0.0228 -1.0315  0.8646
10384TIP3   OH252642   4.150   3.405   1.621 -0.0550 -0.3757 -0.2706
10384TIP3    H152643   4.187   3.474   1.675  2.6178 -1.7161 -0.3436
10384TIP3    H252644   4.178   3.426   1.532 -0.9830 -0.4381 -0.5877
10385TIP3   OH252645   4.915   3.610  11.986  0.0991 -0.1762 -0.3220
10385TIP3    H152646   4.870   3.639  12.065  0.2891 -0.0193 -0.2718
10385TIP3    H252647   4.963   3.687  11.955 -0.4923 -0.0563 -0.9618
10386TIP3   OH252648   1.183   3.111  15.817 -0.3236 -0.0802 -0.1036
10386TIP3    H152649   1.136   3.186  15.782  0.7119  0.4032 -0.4596
10386TIP3    H252650   1.268   3.112  15.774  0.0429 -0.9289  0.5619
10387TIP3   OH252651   2.878   6.088   1.537 -0.5170 -0.0859  0.0800
10387TIP3    H152652   2.892   6.139   1.617  1.4396 -0.6744  0.1279
10387TIP3    H252653   2.888   5.997   1.565  0.6281 -0.2769 -0.9146
10388TIP3   OH252654   4.068   1.743  16.764 -0.2539  0.3166  0.2426
10388TIP3    H152655   3.991   1.786  16.726 -1.2977 -1.0807  0.7572
10388TIP3    H252656   4.033   1.682  16.828  1.2651 -0.7344  0.0998
10389TIP3   OH252657   1.816   0.365   2.833 -0.8082 -0.3436 -0.1863
10389TIP3    H152658   1.768   0.426   2.889  0.4727  0.2760  0.2509
10389TIP3    H252659   1.818   0.283   2.883  1.2512  0.5009  1.1925
10390TIP3   OH252660   4.292   0.913   4.177  0.1725 -0.0817 -0.0588
10390TIP3    H152661   4.266   0.914   4.269  0.3244 -0.2044 -0.0153
10390TIP3    H252662   4.358   0.982   4.170 -1.2238  1.2528 -0.4803
10391TIP3   OH252663   0.092   0.947   1.334  0.6340  0.1281 -0.8867
10391TIP3    H152664   0.063   0.898   1.257  1.4605 -1.6719 -0.0748
10391TIP3    H252665   0.062   0.896   1.409  0.2407  1.6276  0.0003
10392TIP3   OH252666   5.681   3.031  14.591  0.3254 -0.2452 -0.6564
10392TIP3    H152667   5.610   3.007  14.650 -0.3523  1.0077 -0.9540
10392TIP3    H252668   5.733   3.094  14.640  1.3182 -1.2358 -0.3980
10393TIP3   OH252669   3.612   6.114  14.666 -0.3127  0.1067 -0.0614
10393TIP3    H152670   3.633   6.145  14.578 -1.4874  1.8482  0.2616
10393TIP3    H252671   3.525   6.075  14.658 -0.4805  0.3927  0.3543
10394TIP3   OH252672   3.393   1.220   0.389  0.4544 -0.2446  0.1730
10394TIP3    H152673   3.334   1.149   0.361  0.0808  0.8420 -1.9317
10394TIP3    H252674   3.477   1.177   0.403 -0.0337 -1.2869 -0.0506
10395TIP3   OH252675   2.791   2.229  17.105 -0.0856 -0.1792  0.2093
10395TIP3    H152676   2.756   2.216  17.193  1.4069  0.2461  0.8906
10395TIP3    H252677   2.861   2.164  17.097 -0.3206 -0.3238 -0.7304
10396TIP3   OH252678   3.540   2.410  14.848 -0.7425 -0.1325  0.2208
10396TIP3    H152679   3.487   2.373  14.777 -0.9157  0.3555  0.0941
10396TIP3    H252680   3.623   2.363  14.843 -0.7201 -0.0445 -0.3642
10397TIP3   OH252681   2.175   3.584  12.638 -0.4419 -0.0357 -0.0991
10397TIP3    H152682   2.093   3.626  12.612 -0.0988 -0.9908 -2.9235
10397TIP3    H252683   2.229   3.657  12.670 -2.4475  0.5546  2.0614
10398TIP3   OH252684   1.783   2.202   6.750  0.1197 -0.0782 -0.3450
10398TIP3    H152685   1.715   2.253   6.795 -0.8001 -0.5143 -1.2258
10398TIP3    H252686   1.863   2.251   6.765 -0.1260 -0.2796  1.9223
10399TIP3   OH252687   2.710   1.706   3.716  0.2112 -0.0858  0.9458
10399TIP3    H152688   2.712   1.622   3.760 -1.1422  0.2417  1.6630
10399TIP3    H252689   2.627   1.746   3.743 -0.2847  0.4645 -1.2443
10400TIP3   OH252690   1.856   6.734   5.726 -0.3160 -0.3225  0.2615
10400TIP3    H152691   1.900   6.807   5.683  1.4228 -1.2671  0.4161
10400TIP3    H252692   1.892   6.655   5.684  0.7059 -1.2320  2.7433
10401TIP3   OH252693   4.477   4.290   1.837 -0.1527 -0.2597  0.7117
10401TIP3    H152694   4.452   4.380   1.855  0.3342 -0.4405  2.3815
10401TIP3    H252695   4.567   4.296   1.803 -1.3184  0.1408 -2.5106
10402TIP3   OH252696   6.547   5.016  13.905  0.2259 -0.0103 -0.5711
10402TIP3    H152697   6.512   5.017  13.817  1.1436  0.2202 -0.9424
10402TIP3    H252698   6.502   4.944  13.949  1.2136 -1.4341 -1.8466
10403TIP3   OH252699   5.093   0.451   0.843 -0.2202 -0.0796 -0.3067
10403TIP3    H152700   5.153   0.418   0.910 -0.7556  0.5147  0.4785
10403TIP3    H252701   5.023   0.385   0.839 -0.2734 -0.0313 -0.1617
10404TIP3   OH252702   0.043   2.596  13.981 -0.5290 -0.0513  0.5361
10404TIP3    H152703   0.007   2.546  13.908 -0.0261  0.0953  0.1775
10404TIP3    H252704  -0.017   2.582  14.053 -0.2807 -1.3399  0.4941
10405TIP3   OH252705   6.208   0.648  14.170 -0.0669  0.1026  0.1224
10405TIP3    H152706   6.199   0.628  14.077 -0.2024 -0.1740  0.1914
10405TIP3    H252707   6.118   0.650  14.203  0.0242 -0.6776  0.4246
10406TIP3   OH252708   5.602   1.395  12.236 -0.5709 -0.3107 -0.6779
10406TIP3    H152709   5.561   1.463  12.290  0.8372  0.4545 -0.5409
10406TIP3    H252710   5.572   1.414  12.147 -0.2372  0.4592 -0.6304
10407TIP3   OH252711   1.298   5.230  12.532 -0.0595 -0.0238 -0.4113
10407TIP3    H152712   1.256   5.295  12.476 -0.1593 -0.7677 -1.2008
10407TIP3    H252713   1.337   5.167  12.472  1.9260  0.4742  0.3112
10408TIP3   OH252714   0.319   5.889   2.577 -0.1026  0.3178  0.5301
10408TIP3    H152715   0.349   5.803   2.605  0.6995  0.5020  0.2825
10408TIP3    H252716   0.400   5.938   2.561 -0.5432  0.8625 -0.0928
10409TIP3   OH252717   4.069   2.893   5.635  0.3733 -0.5817 -0.7615
10409TIP3    H152718   3.991   2.845   5.608 -1.8208  1.1147  2.3484
10409TIP3    H252719   4.088   2.862   5.723  1.5433  1.0747 -0.3987
10410TIP3   OH252720   4.236   1.394  15.144 -0.8570 -0.3590  0.3862
10410TIP3    H152721   4.169   1.377  15.078 -1.5168 -1.2523  1.2743
10410TIP3    H252722   4.319   1.382  15.097 -1.3226 -0.9486 -0.2964
10411TIP3   OH252723   2.206   2.947  12.975  0.0251 -0.0333 -0.0729
10411TIP3    H152724   2.197   2.865  13.023 -1.0095 -0.5706 -1.1530
10411TIP3    H252725   2.117   2.983  12.972  0.1737  0.2610 -1.1080
10412TIP3   OH252726   1.515   2.849   2.827 -0.0498 -0.3284  0.2600
10412TIP3    H152727   1.553   2.906   2.894  1.3578 -1.4497  0.4235
10412TIP3    H252728   1.569   2.864   2.749 -1.2048  0.3934 -0.4255
10413TIP3   OH252729   0.267   4.906   1.771  0.1961 -0.3481 -0.1226
10413TIP3    H152730   0.222   4.887   1.689 -2.4238 -0.7972  1.3916
10413TIP3    H252731   0.227   4.849   1.836  2.9873 -0.8067  1.3055
10414TIP3   OH252732   2.594   3.527  13.832 -0.5478  0.7388 -0.6361
10414TIP3    H152733   2.621   3.611  13.793  0.1684  0.2845 -1.1353
10414TIP3    H252734   2.600   3.465  13.760 -2.5355  0.5337 -0.6418
10415TIP3   OH252735   4.020   6.148  15.764 -0.9130 -0.2250 -0.3005
10415TIP3    H152736   3.954   6.149  15.695  1.5122 -2.3740 -2.7781
10415TIP3    H252737   4.002   6.068  15.814 -1.3497  0.2117  0.2532
10416TIP3   OH252738   5.300   3.819  16.284 -0.0113 -0.2539 -0.1267
10416TIP3    H152739   5.356   3.768  16.342  0.3611  0.2693 -0.0172
10416TIP3    H252740   5.337   3.806  16.197  0.3893  0.2276 -0.0326
10417TIP3   OH252741   5.793   2.390   2.359 -0.1142 -0.4852  0.5312
10417TIP3    H152742   5.786   2.348   2.273 -0.7452 -0.1505  0.4078
10417TIP3    H252743   5.864   2.344   2.403  1.1148  0.2251 -0.6790
10418TIP3   OH252744   2.896   3.986  15.058 -0.2708  0.3135 -0.0778
10418TIP3    H152745   2.969   3.933  15.089  0.4393  1.0253 -0.4997
10418TIP3    H252746   2.916   4.074  15.088 -1.2307  0.4210  0.2562
10419TIP3   OH252747   4.271   4.000  16.514 -0.0079 -0.0088 -0.1713
10419TIP3    H152748   4.230   3.960  16.591  1.1810 -1.3198 -0.2006
10419TIP3    H252749   4.324   4.072  16.550  1.2141 -1.1445  0.3486
10420TIP3   OH252750   4.428   3.556  13.112 -0.0468  0.6970 -0.3173
10420TIP3    H152751   4.426   3.489  13.043 -0.6765  1.0728 -0.6662
10420TIP3    H252752   4.516   3.550  13.148  0.3106  0.5333 -1.1935
10421TIP3   OH252753   4.513   2.125   2.115 -0.5101 -0.2808 -0.0823
10421TIP3    H152754   4.499   2.218   2.097  1.1038  0.3720  1.7589
10421TIP3    H252755   4.607   2.112   2.101 -0.4563 -1.2744  1.0877
10422TIP3   OH252756   5.926   3.082   1.673  0.5507  0.0106 -0.4460
10422TIP3    H152757   6.009   3.083   1.720  0.3267  0.0859 -0.0537
10422TIP3    H252758   5.894   2.993   1.682  1.5956 -0.6050 -2.3735
10423TIP3   OH252759   1.981   2.944  15.866  0.7222 -0.1817  0.4241
10423TIP3    H152760   1.894   2.940  15.827  0.7419 -0.7711  0.4377
10423TIP3    H252761   2.012   3.033  15.847  0.9161 -0.5983 -1.2978
10424TIP3   OH252762   5.244   4.338   0.311  0.2953 -0.1259 -0.1490
10424TIP3    H152763   5.283   4.269   0.364  0.3959  0.4975  0.5904
10424TIP3    H252764   5.238   4.413   0.369  0.0916  0.4645 -0.9199
10425TIP3   OH252765   0.586   4.190  11.613 -0.6290 -0.0030 -0.2788
10425TIP3    H152766   0.631   4.146  11.541 -0.4579  0.0971 -0.2339
10425TIP3    H252767   0.556   4.118  11.670  2.3945  0.0155  1.4490
10426TIP3   OH252768   2.577   0.991  16.707 -0.4492 -0.0531  0.4485
10426TIP3    H152769   2.576   0.976  16.612  1.2573 -2.7925  0.7900
10426TIP3    H252770   2.622   1.075  16.718 -0.1556  0.0116 -1.1486
10427TIP3   OH252771   0.558   3.900  14.127  0.5324  0.4596  0.3411
10427TIP3    H152772   0.560   3.986  14.084 -2.3972 -0.2816 -1.4007
10427TIP3    H252773   0.523   3.917  14.214 -2.0539  0.8110 -0.7230
10428TIP3   OH252774   4.260   0.971  11.006 -0.6114  0.1408  0.8119
10428TIP3    H152775   4.315   1.048  10.995  1.4199 -1.1188  1.7277
10428TIP3    H252776   4.184   1.002  11.054 -0.4741  1.8469 -0.0652
10429TIP3   OH252777   0.525   2.558  16.152 -0.0062 -0.0895  0.6235
10429TIP3    H152778   0.564   2.565  16.239 -1.5268  0.5445  1.2730
10429TIP3    H252779   0.468   2.635  16.145 -1.2932 -1.1051 -0.2015
10430TIP3   OH252780   3.991   1.148   5.204  0.2926 -0.8294  0.0928
10430TIP3    H152781   3.954   1.189   5.282 -0.0348  0.4310 -0.7306
10430TIP3    H252782   3.919   1.144   5.142  0.7633 -1.0940 -0.4428
10431TIP3   OH252783   5.843   4.679   1.568 -0.3747  0.2664 -0.3783
10431TIP3    H152784   5.763   4.699   1.617 -0.6045  0.0243 -0.6477
10431TIP3    H252785   5.843   4.584   1.559 -0.6158  0.3406 -1.2940
10432TIP3   OH252786   2.851   4.400  11.614 -0.6376  0.6207  0.3048
10432TIP3    H152787   2.809   4.319  11.642 -0.8406  0.4038 -0.5917
10432TIP3    H252788   2.945   4.383  11.625 -0.5584 -0.4480 -1.6273
10433TIP3   OH252789   1.759   1.474   0.651 -0.4564  0.1331  0.1774
10433TIP3    H152790   1.834   1.528   0.677 -1.4694  1.0082  1.3908
10433TIP3    H252791   1.706   1.468   0.731 -1.2424 -1.2061 -0.4268
10434TIP3   OH252792   3.930   2.883   1.812  0.5645 -0.6870  0.3201
10434TIP3    H152793   3.894   2.876   1.900  0.3123  0.2126  0.2933
10434TIP3    H252794   3.951   2.793   1.788  0.1511 -0.9996  1.0941
10435TIP3   OH252795   3.401   1.379  16.565  0.1303  0.2389 -0.1691
10435TIP3    H152796   3.482   1.359  16.519 -1.6615 -2.7162 -2.2177
10435TIP3    H252797   3.401   1.320  16.641 -1.1629 -1.5135 -1.4923
10436TIP3   OH252798   6.618   5.133   6.014  1.1964 -0.0035 -0.2765
10436TIP3    H152799   6.614   5.153   6.107 -1.0240  1.5445 -0.6649
10436TIP3    H252800   6.622   5.037   6.010 -0.9575 -0.1950  1.3916
10437TIP3   OH252801   1.719   1.897  15.717 -0.6616  0.1687 -0.6624
10437TIP3    H152802   1.806   1.937  15.717 -1.2404  1.5508  1.5749
10437TIP3    H252803   1.675   1.934  15.641  0.8390 -0.8691 -2.0470
10438TIP3   OH252804   1.200   1.246  15.740 -0.0278  0.1070  0.1165
10438TIP3    H152805   1.178   1.307  15.669 -0.4876 -1.5231 -1.1593
10438TIP3    H252806   1.285   1.277  15.771  0.1780  0.8703 -1.1271
10439TIP3   OH252807   0.330   3.478  15.828 -0.2135 -0.1551  0.1463
10439TIP3    H152808   0.378   3.506  15.750 -1.1526 -0.3978 -0.5256
10439TIP3    H252809   0.241   3.461  15.797 -0.6687  0.0120  1.3250
10440TIP3   OH252810   4.999   0.122   4.702 -0.2326  0.4419 -0.6095
10440TIP3    H152811   4.918   0.082   4.732  0.5875 -1.8611 -1.3426
10440TIP3    H252812   5.059   0.049   4.690  1.8814  2.0750 -0.3480
10441TIP3   OH252813   3.952   3.722   4.822  0.1129  0.2126 -0.2606
10441TIP3    H152814   3.865   3.761   4.821  0.4076  0.8933 -0.0648
10441TIP3    H252815   3.942   3.640   4.869 -0.6050 -0.1526 -1.0456
10442TIP3   OH252816   5.043   5.947   0.735  0.4568  0.2000  0.3530
10442TIP3    H152817   5.037   5.852   0.745 -0.1486  0.0909 -0.9690
10442TIP3    H252818   5.137   5.964   0.726  0.5125 -0.3568 -0.1635
10443TIP3   OH252819   6.051   6.066  15.198  0.4631 -0.8110  0.0293
10443TIP3    H152820   5.960   6.071  15.169  0.9789 -0.9246 -1.6763
10443TIP3    H252821   6.102   6.084  15.119  1.9009  2.6751  1.6306
10444TIP3   OH252822   2.894   3.138   2.150 -0.1255  0.2504 -0.5252
10444TIP3    H152823   2.821   3.103   2.200 -1.9136  3.2599 -0.8692
10444TIP3    H252824   2.937   3.199   2.209  1.9120 -1.2343 -0.4510
10445TIP3   OH252825   0.173   5.663  16.261 -0.3075  0.2749  0.0378
10445TIP3    H152826   0.181   5.750  16.223  2.2926  0.0032 -0.1479
10445TIP3    H252827   0.133   5.677  16.347 -1.6275  1.4240 -0.7413
10446TIP3   OH252828   2.755   2.320   4.000  0.3589  0.2675 -0.3297
10446TIP3    H152829   2.700   2.243   3.987  0.3423  0.1477  0.4302
10446TIP3    H252830   2.733   2.350   4.088  0.6521  0.9090 -0.4782
10447TIP3   OH252831   5.160   4.450  12.882  0.2160  0.0038  0.8642
10447TIP3    H152832   5.117   4.378  12.836  0.2219  1.2728 -1.2131
10447TIP3    H252833   5.247   4.416  12.903  0.0457 -0.7761  0.3392
10448TIP3   OH252834   6.570   5.454  17.212  0.0071 -0.2432 -0.0817
10448TIP3    H152835   6.586   5.433  17.304 -0.4904  2.9739  0.7913
10448TIP3    H252836   6.657   5.454  17.172  0.3517 -0.4090  0.6650
10449TIP3   OH252837   4.117   2.012  12.801  0.0255 -0.5171  0.2830
10449TIP3    H152838   4.155   1.964  12.874 -1.0255 -2.3116 -0.3171
10449TIP3    H252839   4.023   2.012  12.818  0.0034  1.5172  0.3561
10450TIP3   OH252840   6.453   6.370   3.108 -0.4136 -0.2405 -0.2545
10450TIP3    H152841   6.431   6.360   3.015  1.5290  1.0019 -0.8976
10450TIP3    H252842   6.534   6.421   3.107 -0.1481 -0.5769  2.1242
10451TIP3   OH252843   5.373   0.174  11.497 -0.1438 -0.4630  0.4250
10451TIP3    H152844   5.356   0.233  11.570 -1.6206 -0.2650 -0.0485
10451TIP3    H252845   5.468   0.174  11.487 -0.1205  2.2082  0.1574
10452TIP3   OH252846   6.649   5.540  11.367  0.2336 -0.1306  0.3379
10452TIP3    H152847   6.561   5.512  11.341 -0.1725  0.7683  0.7328
10452TIP3    H252848   6.702   5.460  11.363 -0.3546 -0.4677 -0.9539
10453TIP3   OH252849   5.036   6.165   5.809  0.0641 -0.4277  0.2550
10453TIP3    H152850   4.967   6.231   5.804 -0.0072 -0.4103  1.4341
10453TIP3    H252851   5.061   6.150   5.718 -0.6084  0.4962 -0.0885
10454TIP3   OH252852   3.182   2.495   5.312  0.1067 -0.3166  0.2666
10454TIP3    H152853   3.127   2.509   5.389 -0.8482 -1.9642 -0.1056
10454TIP3    H252854   3.241   2.570   5.311 -1.4058  0.9099  1.2916
10455TIP3   OH252855   2.614   5.843  14.108 -0.0334 -0.1601  0.3047
10455TIP3    H152856   2.640   5.757  14.074  0.3071 -0.4366  1.2427
10455TIP3    H252857   2.685   5.901  14.081  0.2828 -0.3948  0.6284
10456TIP3   OH252858   6.480   4.130   3.508  0.1991 -0.3124  0.2757
10456TIP3    H152859   6.443   4.142   3.595  0.5966  0.1952  0.3805
10456TIP3    H252860   6.477   4.036   3.493  1.1584 -0.5143  1.2889
10457TIP3   OH252861   2.083   4.657  15.167  0.5459  0.0003  0.1563
10457TIP3    H152862   2.036   4.741  15.164 -2.1036 -1.4214 -0.1700
10457TIP3    H252863   2.146   4.663  15.096 -0.8828  1.0443 -1.0753
10458TIP3   OH252864   2.896   3.165   4.755  0.6012 -0.4301 -0.1912
10458TIP3    H152865   2.980   3.127   4.783  0.7412  0.0558  0.0609
10458TIP3    H252866   2.921   3.243   4.705  0.2812  0.3814  0.8780
10459TIP3   OH252867   3.853   4.044  15.269 -0.1101  0.0927  0.6035
10459TIP3    H152868   3.800   4.019  15.193 -0.6352  0.1160  0.9588
10459TIP3    H252869   3.804   4.115  15.310 -0.0068 -0.1569  1.1653
10460TIP3   OH252870   5.666   2.935  16.410  0.1282  0.7968  0.0782
10460TIP3    H152871   5.758   2.932  16.438  0.4421 -1.9738 -1.1568
10460TIP3    H252872   5.660   3.015  16.358  2.2848  0.1493 -1.2307
10461TIP3   OH252873   1.045   4.045  11.986  0.1687  0.4478  0.3251
10461TIP3    H152874   1.095   4.067  11.907 -0.5851 -2.5051 -1.0380
10461TIP3    H252875   0.958   4.082  11.970  0.0261 -0.1142 -0.2475
10462TIP3   OH252876   0.489   1.111  12.693  0.1598 -0.5420  0.0379
10462TIP3    H152877   0.414   1.140  12.745 -0.5169 -3.7562  1.0018
10462TIP3    H252878   0.556   1.177  12.707 -1.2396  0.4647  2.1825
10463TIP3   OH252879   5.354   0.554   1.254 -0.0284 -0.4590  0.1329
10463TIP3    H152880   5.289   0.510   1.308 -1.3638  0.8699 -0.3595
10463TIP3    H252881   5.397   0.616   1.314 -1.0664  0.5543 -0.1454
10464TIP3   OH252882   0.008   4.912  14.694 -0.1167  0.0099  0.2886
10464TIP3    H152883  -0.049   4.987  14.677  2.6382  1.9341 -0.7322
10464TIP3    H252884   0.039   4.885  14.607  0.9730 -0.6564  0.8732
10465TIP3   OH252885   2.480   5.704   5.592  0.7134  0.2147  0.9234
10465TIP3    H152886   2.498   5.708   5.498 -0.2093 -1.1280  0.6779
10465TIP3    H252887   2.503   5.614   5.616 -1.3582 -0.1837  1.4849
10466TIP3   OH252888   0.756   3.086   3.462  0.1235  0.4223  0.1917
10466TIP3    H152889   0.730   3.170   3.499  2.5591  0.9486  0.7901
10466TIP3    H252890   0.824   3.107   3.398 -0.6637 -0.9227 -1.1233
10467TIP3   OH252891   5.732   5.282   4.684 -0.1299  0.0931 -0.5237
10467TIP3    H152892   5.786   5.203   4.672 -0.6284 -0.3008 -0.2335
10467TIP3    H252893   5.792   5.355   4.668  0.7953 -0.3135  0.9270
10468TIP3   OH252894   2.454   5.172   4.700  0.1417  0.1539  0.0589
10468TIP3    H152895   2.464   5.082   4.732  2.1964  0.7603  1.1928
10468TIP3    H252896   2.521   5.181   4.633 -0.2745  0.7545 -0.2828
10469TIP3   OH252897   0.316   1.161   4.309  0.3368  0.3027  0.7193
10469TIP3    H152898   0.367   1.139   4.387  3.1015  1.1031 -0.8037
10469TIP3    H252899   0.354   1.243   4.277 -1.9840  0.9796 -0.4338
10470TIP3   OH252900   2.178   5.437   1.650 -0.2498 -0.2824 -0.5969
10470TIP3    H152901   2.198   5.494   1.724  0.3601  1.3864 -1.9986
10470TIP3    H252902   2.099   5.475   1.611 -0.6073 -1.1859 -0.7657
10471TIP3   OH252903   0.130   0.219   4.467  0.1554 -0.8713  0.1523
10471TIP3    H152904   0.175   0.227   4.383  0.8305 -0.6746  0.5285
10471TIP3    H252905   0.155   0.297   4.515 -0.4100 -0.8737  0.4535
10472TIP3   OH252906   1.676   1.810   0.205 -0.0844  0.1259 -0.3341
10472TIP3    H152907   1.693   1.722   0.239 -1.8578 -0.5843 -1.1909
10472TIP3    H252908   1.586   1.806   0.172 -0.1512  2.2403 -0.4836
10473TIP3   OH252909   3.273   5.272  14.124 -0.2818 -0.2093  0.3958
10473TIP3    H152910   3.330   5.241  14.194  0.1478  1.1237  0.6340
10473TIP3    H252911   3.211   5.330  14.167  0.5378  1.3320 -0.4588
10474TIP3   OH252912   4.489   5.676  11.053  0.3265 -0.4538 -0.2376
10474TIP3    H152913   4.466   5.606  10.992 -1.9322  1.8393 -2.1216
10474TIP3    H252914   4.442   5.654  11.134  0.0668 -1.4134 -0.6500
10475TIP3   OH252915   5.329   1.097   6.045  0.1552 -0.0559 -0.6204
10475TIP3    H152916   5.302   1.020   6.095 -2.2114  2.6537  2.5444
10475TIP3    H252917   5.247   1.134   6.012  1.4188  0.0300 -3.8917
10476TIP3   OH252918   6.160   1.721  15.842  0.5694  0.4992  0.3785
10476TIP3    H152919   6.129   1.675  15.764 -0.7845  1.7240  0.1740
10476TIP3    H252920   6.230   1.778  15.809  0.5276  0.4372  0.1795
10477TIP3   OH252921   4.008   3.050  12.966  0.1338  0.4707  0.3003
10477TIP3    H152922   3.933   3.105  12.988  0.8424  1.1184  1.1163
10477TIP3    H252923   4.068   3.061  13.039  0.4994 -1.0121  0.2335
10478TIP3   OH252924   2.877   0.344   0.571  0.2149  0.3755 -0.1529
10478TIP3    H152925   2.853   0.366   0.661 -0.0525 -0.1254 -0.0994
10478TIP3    H252926   2.878   0.428   0.525  4.2400  1.1540  1.1916
10479TIP3   OH252927   3.408   1.495   5.886 -0.2353  0.2833 -0.0102
10479TIP3    H152928   3.489   1.447   5.902  0.5581  1.5795 -0.0790
10479TIP3    H252929   3.432   1.588   5.896 -2.0044  0.6326  1.3726
10480TIP3   OH252930   6.658   0.770   0.088  0.1080 -0.0595 -0.0706
10480TIP3    H152931   6.644   0.729   0.003  1.1383  1.1106 -0.8209
10480TIP3    H252932   6.596   0.726   0.147 -1.8828  0.3242 -1.8103
10481TIP3   OH252933   3.004   3.368   3.548 -0.3840 -0.5148  0.3710
10481TIP3    H152934   3.010   3.315   3.628  0.2215 -1.1382 -0.0798
10481TIP3    H252935   2.924   3.420   3.559  0.2251  0.1315  1.8176
10482TIP3   OH252936   2.803   0.173  13.204  0.2444  0.5418  0.5491
10482TIP3    H152937   2.829   0.245  13.261  0.7186  0.9273 -0.1367
10482TIP3    H252938   2.821   0.205  13.116 -0.8146  0.0997  0.1556
10483TIP3   OH252939   4.018   5.496  11.280  0.2988  0.2810 -0.9120
10483TIP3    H152940   3.954   5.534  11.219 -2.0571 -1.0048  0.6624
10483TIP3    H252941   4.076   5.445  11.224 -0.0651  1.4572 -2.3996
10484TIP3   OH252942   0.249   4.251   5.867 -0.5589 -0.6632 -0.3479
10484TIP3    H152943   0.194   4.197   5.811 -0.1764  0.0486 -1.4412
10484TIP3    H252944   0.202   4.334   5.875 -1.5555 -1.4256  2.0226
10485TIP3   OH252945   6.178   6.029  11.766  0.5847  0.0343 -0.0084
10485TIP3    H152946   6.093   6.012  11.807  0.6494  0.1826  0.1836
10485TIP3    H252947   6.176   5.976  11.686 -0.4439  1.4511 -0.9584
10486TIP3   OH252948   5.369   1.556  15.895  0.1099  0.1082 -0.4736
10486TIP3    H152949   5.457   1.546  15.932 -0.8660  0.0452  1.9425
10486TIP3    H252950   5.347   1.649  15.908 -0.5359 -0.0727 -0.2337
10487TIP3   OH252951   0.706   0.707   3.518  0.3747  0.3497 -0.1155
10487TIP3    H152952   0.777   0.644   3.511 -0.5414 -0.5434 -1.4079
10487TIP3    H252953   0.740   0.787   3.477  0.9781  0.2375  0.1615
10488TIP3   OH252954   0.480   2.756   4.631 -0.1864  0.2932  0.5047
10488TIP3    H152955   0.537   2.794   4.564  0.1529  0.7477  1.0410
10488TIP3    H252956   0.392   2.785   4.607 -0.0567  0.5338  0.3080
10489TIP3   OH252957   5.703   5.137  10.468 -0.5836 -0.0874  0.0840
10489TIP3    H152958   5.779   5.084  10.443 -0.5817 -0.1033  0.1244
10489TIP3    H252959   5.730   5.227  10.450 -1.1512 -0.2108 -1.4853
10490TIP3   OH252960   2.076   3.666   1.230 -0.4237  0.1757  0.1954
10490TIP3    H152961   2.082   3.716   1.149 -0.5696  0.9540  0.6589
10490TIP3    H252962   2.141   3.707   1.288 -0.5912 -0.1290  0.6002
10491TIP3   OH252963   2.849   5.136  14.762 -0.1644 -0.5602  0.1378
10491TIP3    H152964   2.778   5.137  14.826 -0.2052 -0.8551  0.0977
10491TIP3    H252965   2.927   5.110  14.812 -0.3418 -1.5358 -0.0783
10492TIP3   OH252966   2.341   4.967   5.508  0.0046 -0.3119 -0.4731
10492TIP3    H152967   2.261   4.961   5.455 -0.4409 -0.5443  0.2168
10492TIP3    H252968   2.342   4.885   5.558  1.0323 -0.6055 -0.9752
10493TIP3   OH252969   3.494   5.871   0.788  0.0490  0.6146  0.7337
10493TIP3    H152970   3.444   5.946   0.819 -1.2990 -0.1892  0.5693
10493TIP3    H252971   3.478   5.869   0.693  1.3290  1.0193  0.4968
10494TIP3   OH252972   2.684   0.828  16.910  0.0015  0.1247 -0.1901
10494TIP3    H152973   2.611   0.783  16.952  0.7202 -0.2030  0.7554
10494TIP3    H252974   2.644   0.884  16.844 -0.9483 -1.5745 -1.0937
10495TIP3   OH252975   4.629   3.068   5.282 -0.2778  0.1653 -0.3207
10495TIP3    H152976   4.720   3.094   5.271 -0.1210  0.0133  0.5478
10495TIP3    H252977   4.610   3.087   5.374 -1.2379  0.5543 -0.5913
10496TIP3   OH252978   2.054   4.198  13.613 -0.2738 -0.3736 -0.4522
10496TIP3    H152979   2.013   4.194  13.699 -0.2474 -3.4490 -0.5277
10496TIP3    H252980   1.981   4.212  13.552 -0.6530 -1.0903 -0.1714
10497TIP3   OH252981   4.282   3.987   0.692  0.5631 -0.5047  0.4604
10497TIP3    H152982   4.307   3.910   0.641 -0.6078  1.4191 -3.1763
10497TIP3    H252983   4.193   4.008   0.662  0.2083  1.2864  2.6203
10498TIP3   OH252984   2.665   4.462   2.213 -0.2038  0.5148 -0.4148
10498TIP3    H152985   2.725   4.401   2.170 -0.5101 -0.7557  0.9013
10498TIP3    H252986   2.591   4.407   2.241  1.4646  0.5577  4.7031
10499TIP3   OH252987   5.199   2.680   2.718  0.4021 -0.2612  0.1659
10499TIP3    H152988   5.111   2.705   2.690  0.5309  0.6424  0.5216
10499TIP3    H252989   5.207   2.717   2.806  0.7919 -1.1696  0.5202
10500TIP3   OH252990   3.621   3.500   5.427  0.3093 -0.4996  0.0153
10500TIP3    H152991   3.712   3.495   5.457  0.8112 -1.0869 -1.5641
10500TIP3    H252992   3.570   3.506   5.507  1.6158 -2.1756  1.0051
10501TIP3   OH252993   3.351   6.196  12.904  0.1154 -0.2089  0.1312
10501TIP3    H152994   3.348   6.145  12.823 -0.7345 -0.6147  0.4104
10501TIP3    H252995   3.268   6.244  12.904  1.0283  1.4161 -0.2778
10502TIP3   OH252996   4.490   2.692   0.826 -0.1137  0.4025  0.8460
10502TIP3    H152997   4.581   2.685   0.854 -0.2816  0.7748  1.5042
10502TIP3    H252998   4.494   2.745   0.746  0.6141 -2.6919 -1.2472
10503TIP3   OH252999   4.493   3.196  11.416  0.2546  0.3686 -0.0269
10503TIP3    H153000   4.448   3.145  11.483  1.2504 -0.4162  0.0547
10503TIP3    H253001   4.578   3.154  11.406  1.3066  2.3005  0.4039
10504TIP3   OH253002   5.058   1.022  16.789 -0.3216 -0.0876  0.2106
10504TIP3    H153003   5.109   1.099  16.814 -2.6708  1.5032  0.2344
10504TIP3    H253004   5.025   0.987  16.872 -0.9678  0.0970  0.0300
10505TIP3   OH253005   2.246   3.621  14.430  0.3766 -0.3882  0.1740
10505TIP3    H153006   2.293   3.666  14.501  0.3108 -0.5789  0.3390
10505TIP3    H253007   2.224   3.535  14.466 -2.0843  0.5027  0.8998
10506TIP3   OH253008   5.316   2.958   0.403 -0.1048  0.0385  0.1409
10506TIP3    H153009   5.229   2.995   0.390 -0.1720  0.6157  2.0560
10506TIP3    H253010   5.376   3.023   0.366 -0.4367  0.1405 -0.2163
10507TIP3   OH253011   3.856   1.995   0.364 -0.0078 -0.0264 -0.0684
10507TIP3    H153012   3.808   1.939   0.425  1.5008 -1.8477 -0.5024
10507TIP3    H253013   3.804   1.995   0.284 -0.0633 -0.7207 -0.0312
10508TIP3   OH253014   0.847   6.195   3.454 -0.2741  0.2280 -0.5707
10508TIP3    H153015   0.931   6.193   3.499  0.2744  0.1617 -1.5905
10508TIP3    H253016   0.831   6.288   3.437 -1.4970  0.4537  1.6214
10509TIP3   OH253017   5.848   2.353  15.701  0.3970  0.1201 -0.2312
10509TIP3    H153018   5.895   2.320  15.624  0.1126 -1.6681  0.3407
10509TIP3    H253019   5.889   2.309  15.775 -0.6949  0.2443  0.4625
10510TIP3   OH253020   4.992   4.811   0.598 -0.0836 -0.3375 -0.3223
10510TIP3    H153021   4.990   4.738   0.660 -1.5052 -0.2780 -0.2839
10510TIP3    H253022   4.900   4.828   0.578  0.2895  0.7341 -1.1725
10511TIP3   OH253023   5.161   0.405   3.758  0.4918 -0.4566  0.0106
10511TIP3    H153024   5.209   0.462   3.818  0.8686 -0.5507 -0.1955
10511TIP3    H253025   5.071   0.405   3.791  0.5179  0.1475  0.0939
10512TIP3   OH253026   6.323   1.166  13.996 -0.5641  0.1025  0.4283
10512TIP3    H153027   6.258   1.100  13.974 -2.2124  1.4847  1.0689
10512TIP3    H253028   6.328   1.164  14.092 -0.4480  0.7493  0.4355
10513TIP3   OH253029   1.952   4.046  12.411 -0.0833  0.1512 -0.4276
10513TIP3    H153030   2.022   4.089  12.461 -0.3957 -0.4314  0.5345
10513TIP3    H253031   1.939   3.962  12.455 -0.8982 -0.0465 -1.0316
10514TIP3   OH253032   5.388   6.530   0.962 -0.6292  0.1743 -0.8251
10514TIP3    H153033   5.444   6.461   0.927 -1.4943 -0.6787 -0.5466
10514TIP3    H253034   5.428   6.611   0.931  1.3927 -0.3563  0.3069
10515TIP3   OH253035   1.781   5.596   5.577  0.6045  0.0406 -0.1714
10515TIP3    H153036   1.818   5.521   5.530 -0.2464  0.0557 -0.8663
10515TIP3    H253037   1.775   5.665   5.512  0.7817  0.5219  0.3172
10516TIP3   OH253038   0.496   4.652  15.008  0.1162  0.1863 -0.0697
10516TIP3    H153039   0.492   4.747  15.011  0.5406  0.1554  1.9514
10516TIP3    H253040   0.543   4.632  14.927  3.4244  1.8013  1.3769
10517TIP3   OH253041   1.260   5.850  14.649 -0.6126 -0.1803 -0.1389
10517TIP3    H153042   1.308   5.837  14.567 -0.5354  0.8350 -0.2622
10517TIP3    H253043   1.250   5.762  14.686 -0.4660 -0.6160 -1.1352
10518TIP3   OH253044   2.306   1.427   0.522  0.3211 -0.1419 -0.0559
10518TIP3    H153045   2.235   1.482   0.489 -0.5634 -0.8627  0.6089
10518TIP3    H253046   2.262   1.348   0.553  1.3773 -0.4245  0.7360
10519TIP3   OH253047   5.602   4.802   0.965  0.1642  0.0359  0.2058
10519TIP3    H153048   5.597   4.781   1.058 -2.7837 -2.3984 -0.4168
10519TIP3    H253049   5.526   4.859   0.949 -0.3826 -1.0029 -1.0111
10520TIP3   OH253050   4.858   1.366  16.777  0.3415  0.8053 -0.0871
10520TIP3    H153051   4.819   1.336  16.859 -0.0031  0.6553 -0.2980
10520TIP3    H253052   4.790   1.420  16.737  0.7742  1.4573  0.0583
10521TIP3   OH253053   2.329   4.039  13.204 -0.7915 -0.0049 -0.4123
10521TIP3    H153054   2.329   4.121  13.253 -1.2280 -0.5224  0.4712
10521TIP3    H253055   2.403   4.047  13.143 -0.1962  0.6116  0.3833
10522TIP3   OH253056   1.652   1.442  13.148  0.2434  0.4618 -0.1299
10522TIP3    H153057   1.583   1.498  13.183 -0.2144 -0.0249 -0.2441
10522TIP3    H253058   1.637   1.443  13.053 -0.2360 -0.4641 -0.0659
10523TIP3   OH253059   2.220   5.882  13.002  0.1670 -0.1033  0.2036
10523TIP3    H153060   2.223   5.815  13.070 -1.9918  1.5806  2.0137
10523TIP3    H253061   2.189   5.836  12.924 -0.8775 -1.3071  1.3145
10524TIP3   OH253062   3.906   5.151  11.131 -0.3486  0.1697  0.0322
10524TIP3    H153063   3.990   5.193  11.109 -0.2488  1.4565  2.6875
10524TIP3    H253064   3.911   5.135  11.225 -3.0201  0.1186  0.1972
10525TIP3   OH253065   5.046   5.194   2.120 -0.2891 -0.3888  0.5657
10525TIP3    H153066   5.086   5.135   2.184 -0.5856  0.8213  1.8955
10525TIP3    H253067   5.022   5.138   2.047  3.2443 -1.2792 -0.0096
10526TIP3   OH253068   0.254   2.477  13.635 -0.0582 -0.1909  0.2337
10526TIP3    H153069   0.242   2.557  13.583  0.8941 -0.9373 -1.1507
10526TIP3    H253070   0.200   2.412  13.591  0.5317 -0.7592  0.3562
10527TIP3   OH253071   4.026   5.944   2.917 -0.0829  0.4134  0.3223
10527TIP3    H153072   4.060   6.028   2.887 -1.3007  1.2602  1.2910
10527TIP3    H253073   3.935   5.943   2.887 -1.4102  1.3553  4.0607
10528TIP3   OH253074   5.216   2.374   4.405 -0.1561 -0.2658  0.5751
10528TIP3    H153075   5.254   2.287   4.412 -0.7687 -0.5776  0.0913
10528TIP3    H253076   5.130   2.360   4.366  0.3447  0.6858 -0.9580
10529TIP3   OH253077   4.111   6.461   1.934 -0.3713 -0.5947  0.9477
10529TIP3    H153078   4.107   6.514   2.013 -1.3160  0.0909  0.4477
10529TIP3    H253079   4.175   6.505   1.878 -0.7926 -0.2447  0.7345
10530TIP3   OH253080   2.441   2.714  15.029  0.0062 -0.1334  0.0885
10530TIP3    H153081   2.419   2.620  15.027  1.9170 -0.6121 -0.0516
10530TIP3    H253082   2.523   2.720  14.979  0.0192  1.5862  0.2902
10531TIP3   OH253083   0.090   5.446   6.544  0.1327 -0.5949 -0.5150
10531TIP3    H153084   0.013   5.441   6.602  0.3449  0.6557 -0.1049
10531TIP3    H253085   0.153   5.386   6.584 -0.2756 -0.8882 -0.3012
10532TIP3   OH253086   1.798   2.291  15.788  0.4410  0.2629 -0.1157
10532TIP3    H153087   1.857   2.223  15.756 -0.0054  0.8892 -2.3115
10532TIP3    H253088   1.781   2.347  15.712 -0.1591  2.1487  1.3434
10533TIP3   OH253089   2.115   4.611   5.581  0.2359 -0.1661 -0.5468
10533TIP3    H153090   2.184   4.572   5.635  0.7509  0.1375 -0.9758
10533TIP3    H253091   2.160   4.636   5.500 -0.1579  0.9870 -0.4181
10534TIP3   OH253092   1.030   2.325   1.105 -0.1517  0.1280  0.3177
10534TIP3    H153093   0.945   2.291   1.079 -0.7996 -0.0858  2.6497
10534TIP3    H253094   1.093   2.266   1.064 -1.1860 -1.2209  0.6524
10535TIP3   OH253095   4.437   5.346  11.181  0.6493  0.1001 -0.0062
10535TIP3    H153096   4.413   5.431  11.217 -2.1849 -0.4628 -0.4670
10535TIP3    H253097   4.454   5.363  11.089  0.8133  0.3068  0.0619
10536TIP3   OH253098   3.033   6.439  12.279  0.2677  0.6851  0.4265
10536TIP3    H153099   3.022   6.400  12.193 -0.2913 -1.1635  1.3111
10536TIP3    H253100   3.091   6.514  12.265  0.3168  0.2861 -1.5089
10537TIP3   OH253101   1.840   2.084  16.372 -0.0813 -0.1179  0.6418
10537TIP3    H153102   1.793   2.034  16.438 -0.6861 -1.5108 -0.8105
10537TIP3    H253103   1.778   2.152  16.344 -0.8053 -1.1832 -0.3833
10538TIP3   OH253104   6.311   5.478  12.232  0.6210 -0.2656 -0.0776
10538TIP3    H153105   6.403   5.455  12.217  0.4646 -0.0296 -1.4235
10538TIP3    H253106   6.298   5.559  12.181 -0.2172 -0.0612  0.4565
10539TIP3   OH253107   4.097   4.894  12.650  0.0800 -0.3131 -0.0204
10539TIP3    H153108   4.123   4.986  12.654 -0.4297 -0.2080  1.1393
10539TIP3    H253109   4.067   4.881  12.560  0.6977  0.5012 -0.3439
10540TIP3   OH253110   1.535   0.649  15.517 -0.3253  0.0867 -0.2506
10540TIP3    H153111   1.444   0.618  15.514 -0.4240  0.3191  0.2332
10540TIP3    H253112   1.586   0.571  15.537 -0.4443  0.0006 -0.2807
10541TIP3   OH253113   3.199   1.722  16.841 -0.0991  0.1641 -0.0184
10541TIP3    H153114   3.116   1.699  16.798 -0.3778 -0.6954  0.9401
10541TIP3    H253115   3.217   1.812  16.813 -0.0329 -0.5138 -2.2771
10542TIP3   OH253116   4.702   6.238   1.168 -0.6387  0.2506  0.4384
10542TIP3    H153117   4.745   6.176   1.109 -0.9657  0.6484 -0.2272
10542TIP3    H253118   4.657   6.300   1.110 -1.8467  0.0328  1.1109
10543TIP3   OH253119   5.274   4.418  15.079 -0.2704  0.2179  0.0137
10543TIP3    H153120   5.317   4.494  15.039 -0.9859  0.5126 -0.2076
10543TIP3    H253121   5.288   4.430  15.173  0.9923 -0.2188 -0.1006
10544TIP3   OH253122   2.236   1.096   0.076 -0.1660  0.2331  0.3376
10544TIP3    H153123   2.142   1.096   0.089 -0.7314 -0.0780 -3.2572
10544TIP3    H253124   2.259   1.189   0.066 -0.9433  0.0674 -3.7571
10545TIP3   OH253125   5.877   4.972  11.527  0.3826 -0.2688  0.8717
10545TIP3    H153126   5.944   4.904  11.518  2.4574  1.7789  0.1147
10545TIP3    H253127   5.888   5.004  11.617 -1.6539 -1.9788  1.7461
10546TIP3   OH253128   2.526   2.236  10.920 -0.5248 -0.1367 -0.2301
10546TIP3    H153129   2.604   2.218  10.974  0.9402  1.6643 -1.6824
10546TIP3    H253130   2.534   2.175  10.847  0.6617  1.4514 -1.4583
10547TIP3   OH253131   3.311   6.668   5.957 -0.2639 -0.2748  0.0313
10547TIP3    H153132   3.294   6.688   5.865  1.5918 -0.1824 -0.3071
10547TIP3    H253133   3.391   6.615   5.955  0.2408  0.4157  1.6512
10548TIP3   OH253134   6.016   1.052   0.160 -0.3608  0.0729 -0.0911
10548TIP3    H153135   5.953   1.035   0.229 -0.0440 -2.2125 -0.2993
10548TIP3    H253136   6.101   1.029   0.199 -0.1102 -0.5842 -1.0026
10549TIP3   OH253137   4.711   0.251  14.599  0.4166 -0.2507  0.0974
10549TIP3    H153138   4.782   0.313  14.618  0.0227 -0.0491  0.9667
10549TIP3    H253139   4.634   0.289  14.643 -0.6927  0.5364 -2.4070
10550TIP3   OH253140   6.366   4.017  12.758 -0.0826 -0.1601  0.2252
10550TIP3    H153141   6.417   4.075  12.815 -0.2506 -0.6148  0.8479
10550TIP3    H253142   6.388   3.929  12.788 -0.4585 -0.3895 -0.1727
10551TIP3   OH253143   0.428   6.731  13.324  0.0052 -0.2698 -0.2532
10551TIP3    H153144   0.434   6.821  13.291  0.7275 -0.0824  0.3865
10551TIP3    H253145   0.336   6.722  13.352 -0.0489  0.2938 -0.2412
10552TIP3   OH253146   2.926   5.435  15.574  0.2296  0.2778 -0.0977
10552TIP3    H153147   2.836   5.415  15.601  0.4681 -0.8703 -0.1230
10552TIP3    H253148   2.980   5.378  15.628  0.9252  0.7022 -0.3438
10553TIP3   OH253149   5.865   2.985  13.389  0.0843 -0.1177  0.3684
10553TIP3    H153150   5.907   2.968  13.473  0.4174  1.1826  0.4789
10553TIP3    H253151   5.792   2.923  13.385 -0.3596  0.2765  1.9229
10554TIP3   OH253152   1.338   3.018   1.153 -0.0704 -0.3052  0.3064
10554TIP3    H153153   1.307   3.059   1.072  0.2981  0.0898  0.3628
10554TIP3    H253154   1.407   2.958   1.124  0.6058  0.4193  0.4096
10555TIP3   OH253155   1.374   2.698  12.671  0.1060  0.5512 -0.3005
10555TIP3    H153156   1.400   2.699  12.579  0.2069 -1.2419 -0.3146
10555TIP3    H253157   1.338   2.610  12.685 -0.1674  0.8948  1.3050
10556TIP3   OH253158   0.650   2.673   0.770  0.1617  0.1888  0.2598
10556TIP3    H153159   0.569   2.691   0.723 -0.5871  1.1343  1.8689
10556TIP3    H253160   0.701   2.618   0.710 -0.9622  0.9411 -1.4336
10557TIP3   OH253161   6.340   1.694   2.425  0.1544 -0.0227 -0.3899
10557TIP3    H153162   6.273   1.634   2.458 -0.0385  0.0605 -0.6395
10557TIP3    H253163   6.306   1.781   2.444  1.1440 -0.0021  1.4166
10558TIP3   OH253164   1.791   0.168  15.772 -0.1533 -0.3333  0.5091
10558TIP3    H153165   1.881   0.201  15.783  0.0395 -0.6363 -0.1338
10558TIP3    H253166   1.796   0.110  15.696 -0.7510 -0.8980  0.9030
10559TIP3   OH253167   0.613   0.802   0.436 -0.3952  0.1625 -0.6026
10559TIP3    H153168   0.659   0.848   0.366  0.6787  0.8966  0.5758
10559TIP3    H253169   0.529   0.777   0.397  0.0876  0.7869 -2.0675
10560TIP3   OH253170   5.149   5.318  13.568 -0.1876  0.3945  0.3491
10560TIP3    H153171   5.122   5.265  13.493 -0.0195  1.7476 -0.6976
10560TIP3    H253172   5.187   5.397  13.528  0.5720  0.7994  1.8534
10561TIP3   OH253173   6.253   1.039  10.851 -0.1122  0.6315  0.0554
10561TIP3    H153174   6.282   1.125  10.819 -0.0210  0.5028 -0.2100
10561TIP3    H253175   6.165   1.030  10.815 -0.8366  1.3991  1.5684
10562TIP3   OH253176   4.215   5.435   1.227 -0.6552  0.0248 -0.2896
10562TIP3    H153177   4.215   5.481   1.143 -1.4408 -1.2028 -0.9748
10562TIP3    H253178   4.123   5.417   1.244 -0.4097 -0.7131  0.2902
10563TIP3   OH253179   4.211   3.434  14.714  0.2251 -0.0210  0.7109
10563TIP3    H153180   4.292   3.403  14.755  0.7819  2.8046  1.8447
10563TIP3    H253181   4.143   3.411  14.777  0.1422 -2.1940 -0.1402
10564TIP3   OH253182   0.546   6.233  16.439 -0.2118 -0.2753  0.4353
10564TIP3    H153183   0.590   6.163  16.393 -0.0615 -0.5667  1.0254
10564TIP3    H253184   0.479   6.264  16.377 -0.1508 -0.8021  0.1044
10565TIP3   OH253185   3.811   4.378   3.790 -0.6321 -0.4325 -0.0911
10565TIP3    H153186   3.853   4.325   3.858 -4.3986 -2.1820  1.0198
10565TIP3    H253187   3.831   4.334   3.708 -1.4415 -2.0693  0.5716
10566TIP3   OH253188   5.857   0.394  12.188  0.2297 -0.4047 -0.4422
10566TIP3    H153189   5.804   0.346  12.125  0.5993 -0.2381 -0.8892
10566TIP3    H253190   5.838   0.353  12.273  0.9001 -1.6549 -0.8843
10567TIP3   OH253191   5.010   3.127  15.221  0.4354 -0.2076  0.0624
10567TIP3    H153192   4.967   3.082  15.294 -0.6284 -0.5492 -0.7593
10567TIP3    H253193   5.008   3.064  15.149 -0.6037  0.9565 -0.9500
10568TIP3   OH253194   0.245   6.537   3.811  0.1264 -0.7689  0.2871
10568TIP3    H153195   0.192   6.540   3.731 -0.4948 -0.1308  0.7165
10568TIP3    H253196   0.209   6.464   3.862  0.4500 -1.1046  0.0371
10569TIP3   OH253197   6.447   1.778   4.173 -0.0036 -0.0285  0.3550
10569TIP3    H153198   6.529   1.783   4.123 -1.3540  0.9401 -1.8236
10569TIP3    H253199   6.393   1.848   4.138 -2.2284 -1.3918  0.9492
10570TIP3   OH253200   0.554   4.325  11.071  0.1613  0.2191  0.1348
10570TIP3    H153201   0.472   4.335  11.023 -0.4389 -0.6406  0.9615
10570TIP3    H253202   0.621   4.314  11.003 -0.2775  1.7500 -0.5651
10571TIP3   OH253203   5.143   3.218  15.935  0.0565 -0.4696 -0.1692
10571TIP3    H153204   5.223   3.218  15.881 -0.8416 -2.0200 -1.5419
10571TIP3    H253205   5.080   3.268  15.884 -0.6641 -1.5671 -0.3636
10572TIP3   OH253206   0.758   1.281   0.886  0.4726  0.1560 -0.2846
10572TIP3    H153207   0.832   1.302   0.942  0.7812  1.6609 -1.2430
10572TIP3    H253208   0.785   1.307   0.798 -1.1329  0.6255 -0.6652
10573TIP3   OH253209   1.017   1.425   1.011  0.7174 -0.0363 -0.5700
10573TIP3    H153210   1.075   1.426   1.087  1.4604 -0.0502 -1.1385
10573TIP3    H253211   0.993   1.517   0.997 -0.1567 -0.1290  0.2333
10574TIP3   OH253212   2.076   0.233   4.076  0.2838 -0.3760  0.1622
10574TIP3    H153213   2.150   0.235   4.136 -0.3809 -0.4933  1.0074
10574TIP3    H253214   2.014   0.173   4.118 -0.4000 -0.0602 -0.3893
10575TIP3   OH253215   6.178   4.878  12.263 -0.1747 -0.4203 -0.1997
10575TIP3    H153216   6.237   4.879  12.339 -1.8593  0.8509  1.1283
10575TIP3    H253217   6.102   4.829  12.293 -1.5036  1.3735 -0.5558
10576TIP3   OH253218   0.962   5.844   0.964 -1.0955 -0.4009 -0.7497
10576TIP3    H153219   0.987   5.810   0.878 -0.0341 -0.6336 -0.3530
10576TIP3    H253220   1.041   5.835   1.017 -1.5779  0.2748  0.0901
10577TIP3   OH253221   1.330   3.842   0.763 -0.1352 -0.5778 -0.3782
10577TIP3    H153222   1.320   3.748   0.772 -1.4819 -0.4140 -0.1125
10577TIP3    H253223   1.420   3.854   0.732 -0.0838 -1.9621 -0.7720
10578TIP3   OH253224   0.671   4.708  14.500  0.1163 -0.5189 -0.4380
10578TIP3    H153225   0.640   4.796  14.520 -1.3452 -1.1397  0.1198
10578TIP3    H253226   0.665   4.701  14.405  0.2481 -0.0119 -0.4821
10579TIP3   OH253227   0.545   1.600  13.193 -0.4260 -0.3559  0.1878
10579TIP3    H153228   0.567   1.577  13.103  0.5480 -0.8285  0.5426
10579TIP3    H253229   0.455   1.632  13.188  0.6325  2.6345 -1.4666
10580TIP3   OH253230   5.551   2.380   4.986  0.2251  0.3285 -0.2762
10580TIP3    H153231   5.621   2.445   4.980 -0.4356  1.1224  0.4704
10580TIP3    H253232   5.475   2.429   5.019 -0.5012 -0.6569 -0.4496
10581TIP3   OH253233   0.193   0.385   5.700  0.3145  0.1062  0.2521
10581TIP3    H153234   0.261   0.406   5.763  1.0694 -1.6798  0.0892
10581TIP3    H253235   0.208   0.292   5.679 -2.0447 -0.2698  0.0562
10582TIP3   OH253236   5.317   0.555  15.241 -0.0805  0.4148  0.0436
10582TIP3    H153237   5.373   0.631  15.256  1.9629 -0.7422 -1.5694
10582TIP3    H253238   5.331   0.531  15.150  0.8772 -3.0979  1.0005
10583TIP3   OH253239   3.683   0.790  12.902 -0.0369 -0.0069 -0.2365
10583TIP3    H153240   3.726   0.875  12.894  1.0008 -0.5707 -0.7917
10583TIP3    H253241   3.654   0.786  12.993  0.9278  0.4639  0.0984
10584TIP3   OH253242   3.996   1.854   2.497  0.0104  0.1631  0.1862
10584TIP3    H153243   4.061   1.924   2.501  0.5449 -0.3110 -0.0580
10584TIP3    H253244   4.033   1.790   2.436 -0.1174 -0.6869  0.9885
10585TIP3   OH253245   4.978   4.674   0.253  0.0100 -0.3908 -0.0029
10585TIP3    H153246   4.906   4.674   0.316  0.5323  1.6405  0.6387
10585TIP3    H253247   4.942   4.715   0.175 -0.0441 -1.0406 -0.3231
10586TIP3   OH253248   6.215   5.707   5.447  0.1125  0.0863 -0.7324
10586TIP3    H153249   6.132   5.720   5.493 -0.4057 -1.8421 -1.0725
10586TIP3    H253250   6.195   5.643   5.379  1.7056  0.2048 -1.3271
10587TIP3   OH253251   3.131   5.099   0.050 -0.1650  0.0521  0.1749
10587TIP3    H153252   3.136   5.006   0.074 -0.4339 -0.1508 -0.5291
10587TIP3    H253253   3.215   5.118   0.008 -1.3171 -0.7297 -2.5887
10588TIP3   OH253254   2.792   6.742   4.249  0.2467  0.0418  0.2486
10588TIP3    H153255   2.881   6.762   4.275  0.6880  1.2968 -2.0943
10588TIP3    H253256   2.739   6.759   4.327  1.7978  1.1604  1.0698
10589TIP3   OH253257   3.584   1.212  11.866  0.1529 -0.1263  0.1611
10589TIP3    H153258   3.603   1.182  11.777 -0.7208 -0.3404  0.0385
10589TIP3    H253259   3.669   1.242  11.900  0.2600  1.1717 -1.1935
10590TIP3   OH253260   3.634   4.749  13.985 -0.4336 -0.2359  0.1461
10590TIP3    H153261   3.582   4.827  14.002 -1.0136 -1.2047  3.2889
10590TIP3    H253262   3.723   4.781  13.972 -0.6154  0.9473  1.6803
10591TIP3   OH253263   1.760   5.167  15.616  0.3007 -0.6235 -0.4213
10591TIP3    H153264   1.747   5.196  15.706  2.3436  3.0649 -1.2194
10591TIP3    H253265   1.854   5.175  15.601 -0.3555  2.2235 -3.8931
10592TIP3   OH253266   4.347   2.307  13.746  0.3487 -0.7380  0.2656
10592TIP3    H153267   4.379   2.261  13.824  1.1968  1.1124  1.0477
10592TIP3    H253268   4.253   2.314  13.760  0.8599  2.4174  2.7691
10593TIP3   OH253269   0.923   4.994  13.674 -0.1449 -0.0658  0.2953
10593TIP3    H153270   0.951   5.072  13.626 -1.1003 -0.1566 -0.4164
10593TIP3    H253271   0.985   4.927  13.647  1.1499  0.6151  1.4889
10594TIP3   OH253272   2.891   3.274   3.295  0.8937  0.5938 -0.7486
10594TIP3    H153273   2.889   3.302   3.386  0.9679  1.5996 -1.0483
10594TIP3    H253274   2.981   3.243   3.281  0.6811 -0.2599 -0.2883
10595TIP3   OH253275   3.122   6.297  16.689 -0.7135  0.2186 -0.4254
10595TIP3    H153276   3.047   6.294  16.629  0.0499 -1.4131 -1.3297
10595TIP3    H253277   3.191   6.340  16.639 -0.5949  0.4010 -0.1050
10596TIP3   OH253278   4.794   0.413   0.214  0.4116  0.3167 -0.2795
10596TIP3    H153279   4.702   0.392   0.232 -0.2238  1.4156 -2.0667
10596TIP3    H253280   4.822   0.465   0.290 -0.7015  0.6634 -0.0937
10597TIP3   OH253281   4.080   2.634  15.364 -0.2202  0.1707 -0.4756
10597TIP3    H153282   4.136   2.675  15.430  0.9863  0.4432 -1.6688
10597TIP3    H253283   4.115   2.545  15.354 -0.5390  0.0559 -0.6006
10598TIP3   OH253284   1.918   5.677   0.057  0.1980  0.3676 -0.3952
10598TIP3    H153285   1.864   5.756   0.053  1.7729  1.5483  0.7270
10598TIP3    H253286   1.984   5.689  -0.011  1.1442  0.5726  0.5469
10599TIP3   OH253287   3.754   1.148   3.683 -0.2316 -0.2025 -0.4845
10599TIP3    H153288   3.788   1.222   3.732 -2.5017  1.0231 -0.6739
10599TIP3    H253289   3.831   1.104   3.648  1.2437  0.8214  1.4142
10600TIP3   OH253290   0.008   0.776  17.010  0.0023  0.1468 -0.1448
10600TIP3    H153291  -0.016   0.859  17.051 -0.1122  0.3078 -0.5292
10600TIP3    H253292  -0.066   0.719  17.026 -0.1188  0.2649 -0.2791
10601TIP3   OH253293   1.626   2.484  13.844 -0.2428 -0.0864  0.1282
10601TIP3    H153294   1.702   2.427  13.833 -0.1873 -0.0361  0.2556
10601TIP3    H253295   1.594   2.498  13.755  0.2936  0.4313  0.0143
10602TIP3   OH253296   4.087   3.308  15.320  0.1959  0.3844 -0.3491
10602TIP3    H153297   4.076   3.381  15.259  1.0842 -0.1219 -1.1434
10602TIP3    H253298   4.039   3.334  15.398 -0.5435  1.2693 -1.0820
10603TIP3   OH253299   3.309   4.191   2.186  0.4440  0.1400 -0.0040
10603TIP3    H153300   3.361   4.189   2.105  0.0412  1.1649 -0.2989
10603TIP3    H253301   3.345   4.264   2.236  0.4906 -0.3033  0.5986
10604TIP3   OH253302   2.231   0.959   5.949 -0.7797 -0.3335  0.4126
10604TIP3    H153303   2.308   0.944   6.003  0.9249  0.3923 -1.7503
10604TIP3    H253304   2.219   1.054   5.948 -0.6955 -0.3248 -0.6016
10605TIP3   OH253305   5.298   0.136  12.724 -1.0191 -0.0954  0.4906
10605TIP3    H153306   5.357   0.142  12.649  0.3258  0.7517  1.5739
10605TIP3    H253307   5.215   0.172  12.693 -0.5460  0.0079 -0.6568
10606TIP3   OH253308   2.726   4.585  16.057  0.6022 -0.0320  0.4189
10606TIP3    H153309   2.655   4.648  16.064 -0.8161 -1.4730 -0.6212
10606TIP3    H253310   2.778   4.614  15.982 -1.0101 -1.0039 -1.1129
10607TIP3   OH253311   2.911   5.219   5.679 -0.0807 -0.1539  0.1547
10607TIP3    H153312   2.947   5.130   5.675 -0.0323 -0.0648 -3.2535
10607TIP3    H253313   2.830   5.211   5.729 -0.7878 -2.4371 -1.2793
10608TIP3   OH253314   5.925   4.886   1.192 -0.2942  0.4356 -0.3219
10608TIP3    H153315   5.837   4.859   1.218  0.0376 -1.1008 -0.7235
10608TIP3    H253316   5.967   4.913   1.274 -0.0147 -2.1267  0.4150
10609TIP3   OH253317   1.799   3.556  15.151 -0.4136 -0.3454  0.1329
10609TIP3    H153318   1.823   3.538  15.241  1.7910 -0.8644 -0.5354
10609TIP3    H253319   1.796   3.652  15.145 -0.6858 -0.3148  0.7721
10610TIP3   OH253320   2.583   0.610   1.057 -0.2073  0.0350 -0.1769
10610TIP3    H153321   2.574   0.692   1.007  1.4414  0.0467 -0.4867
10610TIP3    H253322   2.641   0.633   1.130 -1.5418 -0.3198  1.0162
10611TIP3   OH253323   3.196   5.276   5.988  0.0583 -0.0443  0.3439
10611TIP3    H153324   3.193   5.366   5.955  1.7437 -0.0171  0.2412
10611TIP3    H253325   3.215   5.285   6.081 -0.7413 -0.2786  0.5383
10612TIP3   OH253326   3.123   2.288   5.930  0.1105  0.3269  0.1765
10612TIP3    H153327   3.061   2.338   5.983 -0.3507  0.6233 -0.6343
10612TIP3    H253328   3.150   2.215   5.985 -0.5652  0.4888  0.7142
10613TIP3   OH253329   3.992   5.454  16.280 -0.6736 -0.0998  0.0022
10613TIP3    H153330   4.019   5.401  16.355 -1.5808 -0.3525  0.1475
10613TIP3    H253331   3.986   5.543  16.314 -1.8881 -0.3433  0.4251
10614TIP3   OH253332   5.904   1.705   2.047  0.0974  0.0261  0.2382
10614TIP3    H153333   5.861   1.707   1.961  0.3696  0.6656  0.1179
10614TIP3    H253334   5.839   1.665   2.104 -0.1111 -0.3504 -0.2528
10615TIP3   OH253335   5.298   6.529  11.941  0.0450  0.0737  0.3005
10615TIP3    H153336   5.235   6.588  11.900  1.3954  0.2904 -1.5854
10615TIP3    H253337   5.338   6.581  12.011 -2.4380 -0.3628  2.0977
10616TIP3   OH253338   2.158   1.683  12.160 -0.0927 -0.2455 -0.0941
10616TIP3    H153339   2.207   1.748  12.211  1.9782 -1.6729 -0.1670
10616TIP3    H253340   2.106   1.734  12.099  1.6101  1.3489 -0.2540
10617TIP3   OH253341   0.520   2.362   1.678  0.1510 -0.2956  0.1651
10617TIP3    H153342   0.489   2.428   1.741  0.8481 -0.2922  0.5113
10617TIP3    H253343   0.613   2.381   1.668  0.1599 -0.6647 -0.4306
10618TIP3   OH253344   2.099   5.776   1.162 -0.1232 -0.0592  0.3141
10618TIP3    H153345   2.145   5.806   1.084 -0.9589  2.0545  0.6032
10618TIP3    H253346   2.106   5.681   1.159  2.2655  0.1291 -0.8433
10619TIP3   OH253347   2.290   4.440  16.464 -0.2356  0.7418  0.2830
10619TIP3    H153348   2.258   4.379  16.530  0.5497  2.3077  2.1604
10619TIP3    H253349   2.330   4.511  16.514 -0.0393  2.2077 -1.8715
10620TIP3   OH253350   0.482   3.978   3.592 -0.0994 -0.2437 -0.1055
10620TIP3    H153351   0.546   4.009   3.656 -0.2820  2.0412 -0.9848
10620TIP3    H253352   0.421   3.925   3.643 -0.0230  1.2274  1.5538
10621TIP3   OH253353   5.488   6.413   2.207  0.1399 -0.6869 -0.2319
10621TIP3    H153354   5.431   6.378   2.276 -0.4021  1.0373  0.2380
10621TIP3    H253355   5.433   6.476   2.160  1.3641  0.2870 -0.3891
10622TIP3   OH253356   3.965   6.759   2.694 -0.0726  0.6666  0.2983
10622TIP3    H153357   4.001   6.697   2.757  0.9221  0.3128 -0.5967
10622TIP3    H253358   4.025   6.834   2.696 -0.3234  0.8733  0.1577
10623TIP3   OH253359   6.784   0.158  12.661 -0.2880  0.3530 -0.2868
10623TIP3    H153360   6.834   0.221  12.608  1.4536 -0.2953  0.5437
10623TIP3    H253361   6.832   0.153  12.743  0.9419 -3.8372 -1.1787
10624TIP3   OH253362   0.367   4.656   5.493  1.0491  0.0788 -0.0271
10624TIP3    H153363   0.413   4.740   5.486  0.0351  0.6417 -0.0956
10624TIP3    H253364   0.411   4.599   5.430  2.9415 -0.0126  1.3307
10625TIP3   OH253365   0.933   2.045   3.716 -0.1191 -0.4090 -0.2227
10625TIP3    H153366   0.947   2.140   3.720  0.6210 -0.5225  0.0050
10625TIP3    H253367   0.920   2.027   3.623 -1.0695  0.0262 -0.1770
10626TIP3   OH253368   6.604   0.212  16.130 -0.6816 -0.0993 -0.5881
10626TIP3    H153369   6.593   0.259  16.212  0.4325 -2.5007  0.9932
10626TIP3    H253370   6.674   0.259  16.084  0.1134  0.0603  0.7655
10627TIP3   OH253371   3.045   3.252  13.556 -0.4557  0.4374  0.2408
10627TIP3    H153372   3.028   3.164  13.522  0.3204  0.6299 -0.6444
10627TIP3    H253373   3.070   3.303  13.479 -1.0386  1.4756  0.7275
10628TIP3   OH253374   3.436   3.726  12.193  0.5824  0.1604  0.1495
10628TIP3    H153375   3.508   3.683  12.146  1.8939  1.7297  0.6766
10628TIP3    H253376   3.473   3.748  12.278 -0.6441  0.6645  0.5575
10629TIP3   OH253377   3.619   5.508   3.932 -0.0402  0.1354 -0.5743
10629TIP3    H153378   3.544   5.452   3.912 -0.4496 -0.0682  1.4286
10629TIP3    H253379   3.692   5.467   3.886 -0.5504 -1.4579  0.0064
10630TIP3   OH253380   3.212   5.670  13.261  0.1087 -0.3329 -0.1728
10630TIP3    H153381   3.167   5.632  13.336  1.3601 -1.4241  0.0285
10630TIP3    H253382   3.221   5.598  13.199 -0.3722  0.4115 -1.1291
10631TIP3   OH253383   5.882   0.832  12.879  0.5724 -0.5523 -0.1440
10631TIP3    H153384   5.829   0.792  12.948  1.6442 -0.4966  0.7442
10631TIP3    H253385   5.819   0.866  12.816 -0.5777  1.8261  2.1669
10632TIP3   OH253386   3.771   6.011  14.446  0.4315 -0.0538 -0.0754
10632TIP3    H153387   3.775   5.990  14.539 -2.3953 -1.8479 -0.3175
10632TIP3    H253388   3.826   5.945  14.404  0.2580 -0.3561  0.1701
10633TIP3   OH253389   2.099   3.002  12.411  0.2182 -0.1074 -0.0665
10633TIP3    H153390   2.108   3.020  12.318 -1.4839  1.5190  0.0536
10633TIP3    H253391   2.108   3.087  12.454 -0.6561 -0.5790  1.0982
10634TIP3   OH253392   0.396   3.400  11.407 -0.2022 -0.3879 -0.1407
10634TIP3    H153393   0.357   3.483  11.383  0.2102 -0.1072  0.1435
10634TIP3    H253394   0.434   3.366  11.326 -0.1578 -0.1818 -0.2049
10635TIP3   OH253395   4.892   0.360  14.255 -0.2768  0.6336 -0.0606
10635TIP3    H153396   4.911   0.369  14.162 -0.3841  0.8762 -0.0609
10635TIP3    H253397   4.796   0.361  14.260 -0.3510 -2.2226 -0.2229
10636TIP3   OH253398   5.743   1.281  14.104  0.2759 -0.3122 -0.4536
10636TIP3    H153399   5.780   1.287  14.192 -0.6050 -0.6496 -0.0523
10636TIP3    H253400   5.748   1.187  14.083 -0.3040 -0.3550 -0.4111
10637TIP3   OH253401   0.526   3.099  17.009 -0.2839  0.7968  0.0052
10637TIP3    H153402   0.519   3.186  16.969  0.4386  0.8900  0.0583
10637TIP3    H253403   0.486   3.109  17.095 -0.9195  0.8686 -0.3010
10638TIP3   OH253404   0.074   0.606   5.186  0.0787 -0.4201  0.1044
10638TIP3    H153405   0.025   0.687   5.174  0.3103 -0.1899  0.6671
10638TIP3    H253406   0.164   0.635   5.202 -0.0649 -0.7129  1.5847
10639TIP3   OH253407   1.121   3.984  15.325 -0.0581  0.4043  0.0440
10639TIP3    H153408   1.033   3.988  15.288 -0.4488  0.9766  1.0265
10639TIP3    H253409   1.142   4.075  15.345  0.0648  0.0795  1.4215
10640TIP3   OH253410   1.126   4.144   1.657  0.1878  0.0624 -0.1855
10640TIP3    H153411   1.040   4.114   1.689  0.8371 -1.5183  0.1476
10640TIP3    H253412   1.106   4.222   1.606 -1.5143 -0.5230 -0.4826
10641TIP3   OH253413   5.097   4.191  10.952  0.6227  0.6900  0.3039
10641TIP3    H153414   5.134   4.117  11.000  0.5759 -0.9554 -2.0807
10641TIP3    H253415   5.071   4.154  10.868 -0.0749  3.2900 -0.6757
10642TIP3   OH253416   6.762   0.554   2.115 -0.1049  0.0354  0.6781
10642TIP3    H153417   6.782   0.634   2.066  0.3938  0.4791  1.5761
10642TIP3    H253418   6.767   0.484   2.050  0.1566  0.6506  0.0212
10643TIP3   OH253419   2.468   1.169  17.134 -0.4701  0.3114 -0.0782
10643TIP3    H153420   2.420   1.111  17.075 -0.4027  0.4021 -0.2236
10643TIP3    H253421   2.419   1.252  17.131 -1.0733 -0.0073  0.8144
10644TIP3   OH253422   4.308   4.172   0.011 -0.1883 -0.4825 -0.4079
10644TIP3    H153423   4.312   4.251   0.064 -0.3087  0.3595 -1.6128
10644TIP3    H253424   4.261   4.108   0.065  0.6618 -0.0059  0.9023
10645TIP3   OH253425   5.433   4.871  10.803  0.5884 -0.4967 -0.4945
10645TIP3    H153426   5.497   4.930  10.763 -0.4112 -0.5754 -2.2323
10645TIP3    H253427   5.453   4.785  10.766 -0.5865 -0.5035 -1.1212
10646TIP3   OH253428   2.047   0.815   1.351 -0.2409 -0.5839 -0.4651
10646TIP3    H153429   2.014   0.808   1.261 -0.3711  0.7455 -0.5365
10646TIP3    H253430   1.981   0.867   1.397 -0.4179 -1.6701  0.5321
10647TIP3   OH253431   1.385   4.902  12.590 -0.3815  0.9417  0.3350
10647TIP3    H153432   1.386   4.938  12.501  0.1606 -1.3261 -0.6252
10647TIP3    H253433   1.455   4.948  12.636  0.9009  0.5168 -1.1319
10648TIP3   OH253434   0.117   3.484   2.739 -0.0268  0.0605 -0.6926
10648TIP3    H153435   0.058   3.497   2.664  1.1703  1.0670 -1.4845
10648TIP3    H253436   0.091   3.399   2.775 -2.8053  1.0578 -0.2313
10649TIP3   OH253437   6.704   2.363  12.568  0.3939  0.5050 -0.4498
10649TIP3    H153438   6.759   2.418  12.624 -0.5137  0.0048  0.9519
10649TIP3    H253439   6.619   2.362  12.612  0.0899 -1.1136 -1.0629
10650TIP3   OH253440   3.151   3.157   4.457 -0.0971  0.1612  0.2566
10650TIP3    H153441   3.092   3.214   4.506 -0.1128  0.7250 -0.4062
10650TIP3    H253442   3.138   3.183   4.366 -1.1813 -1.8871 -0.2048
10651TIP3   OH253443   4.686   1.497   1.814  0.2075 -0.0493  0.3772
10651TIP3    H153444   4.767   1.520   1.860  0.6871  1.1215 -1.0028
10651TIP3    H253445   4.701   1.409   1.781  0.5886 -0.1596  0.8383
10652TIP3   OH253446   6.655   1.345  15.982  0.2303 -0.1552 -0.2786
10652TIP3    H153447   6.672   1.263  15.935  1.8968 -0.1161  0.2076
10652TIP3    H253448   6.648   1.411  15.914  1.8694 -0.2237 -0.5405
10653TIP3   OH253449   3.242   5.530   1.478 -0.1059  0.0114  0.2432
10653TIP3    H153450   3.301   5.576   1.418 -1.7855  1.2932 -0.4500
10653TIP3    H253451   3.185   5.479   1.421 -0.5358 -0.1848  0.8536
10654TIP3   OH253452   3.827   0.855  15.212 -0.4828  0.4253 -0.4665
10654TIP3    H153453   3.828   0.802  15.291  0.0919 -1.0988 -1.4691
10654TIP3    H253454   3.868   0.938  15.237 -0.6972  0.1253  0.9153
10655TIP3   OH253455   6.160   4.298   5.169 -0.2936 -0.7385  0.4287
10655TIP3    H153456   6.233   4.360   5.161 -1.0523  0.2213  0.7414
10655TIP3    H253457   6.115   4.303   5.085 -1.6112  0.7729  1.1985
10656TIP3   OH253458   6.084   2.219  17.190  1.1273 -0.1218 -0.5697
10656TIP3    H153459   6.036   2.152  17.239 -0.4407  1.4730  0.1702
10656TIP3    H253460   6.016   2.280  17.162  2.4639  0.8770 -1.6666
10657TIP3   OH253461   4.678   2.766   3.862  0.2848 -0.3231 -0.3301
10657TIP3    H153462   4.749   2.723   3.814  0.5656 -0.9798  0.6592
10657TIP3    H253463   4.721   2.842   3.903  0.8724 -1.7995  1.8603
10658TIP3   OH253464   5.858   1.515  12.531 -0.0608 -0.3291 -0.1363
10658TIP3    H153465   5.954   1.511  12.526 -0.1457 -0.9986 -1.5373
10658TIP3    H253466   5.834   1.577  12.462 -0.6250  0.0035  0.3604
10659TIP3   OH253467   4.209   4.621   6.115 -0.5011 -0.0878 -0.1489
10659TIP3    H153468   4.128   4.570   6.107  0.1511 -1.0629 -0.6122
10659TIP3    H253469   4.261   4.596   6.039 -0.2760  1.4883 -0.5492
10660TIP3   OH253470   0.876   1.797   5.289  0.1608 -0.6963 -0.3818
10660TIP3    H153471   0.819   1.865   5.254  0.8577  0.4478  0.6793
10660TIP3    H253472   0.825   1.716   5.280 -1.6111  0.2898  0.4720
10661TIP3   OH253473   2.584   3.699  14.364  0.0395 -0.1279 -0.6870
10661TIP3    H153474   2.656   3.697  14.427  0.9163 -1.9462 -1.6955
10661TIP3    H253475   2.521   3.761  14.401  0.4363 -1.3047  2.0707
10662TIP3   OH253476   0.993   2.135   0.052 -0.2552 -0.4229  0.4971
10662TIP3    H153477   0.922   2.135  -0.013 -0.3571  1.5260  0.5802
10662TIP3    H253478   1.050   2.063   0.024 -0.9389 -0.3943 -1.0627
10663TIP3   OH253479   4.774   0.566  12.739 -0.0858 -0.4314 -0.3172
10663TIP3    H153480   4.803   0.478  12.763 -0.8597 -0.7181 -0.4317
10663TIP3    H253481   4.708   0.552  12.671 -0.2095  0.2394 -0.3401
10664TIP3   OH253482   2.477   2.282   1.641 -0.0219  0.6317 -0.3478
10664TIP3    H153483   2.409   2.332   1.596 -1.2521 -0.7952 -0.1179
10664TIP3    H253484   2.444   2.273   1.731 -0.5068 -1.7588 -0.7255
10665TIP3   OH253485   6.385   5.127  12.270 -0.2374  0.7646  0.3453
10665TIP3    H153486   6.368   5.061  12.338  1.3251 -0.3755 -0.3525
10665TIP3    H253487   6.342   5.206  12.303 -0.0702  0.0498  2.3511
10666TIP3   OH253488   6.658   6.434  16.717 -0.6562 -0.3149  0.1741
10666TIP3    H153489   6.716   6.408  16.789 -0.7439  1.1043  0.7831
10666TIP3    H253490   6.570   6.434  16.756 -0.8484 -0.6918 -0.2541
10667TIP3   OH253491   2.464   1.182  15.032  0.1222 -0.4781  0.1671
10667TIP3    H153492   2.409   1.125  15.084 -0.9547 -0.7182 -1.2020
10667TIP3    H253493   2.554   1.158  15.056 -0.3617 -0.3144  2.1525
10668TIP3   OH253494   2.958   5.960  15.941 -0.0624 -0.1376 -0.6321
10668TIP3    H153495   3.036   5.913  15.911 -0.8192 -1.0261 -1.2005
10668TIP3    H253496   2.929   5.912  16.019  0.2742  0.5232 -0.0929
10669TIP3   OH253497   3.308   3.135   1.029 -0.5523  0.0333  0.0100
10669TIP3    H153498   3.216   3.150   1.049 -0.2381  1.0496  0.7173
10669TIP3    H253499   3.326   3.190   0.953 -0.2763  0.6261  0.4977
10670TIP3   OH253500   0.513   5.009   1.673  0.4451 -0.1724  0.2408
10670TIP3    H153501   0.588   4.953   1.695 -0.0725 -0.7811  0.4701
10670TIP3    H253502   0.436   4.953   1.687 -0.0287  0.2801 -0.5024
10671TIP3   OH253503   6.443   5.962   4.054 -0.3838  0.1200  0.0322
10671TIP3    H153504   6.411   6.048   4.079 -2.0131 -0.3031 -0.5541
10671TIP3    H253505   6.418   5.952   3.962  1.7304 -0.0946 -0.5412
10672TIP3   OH253506   2.308   4.349  16.972  0.0908  0.7064  0.3475
10672TIP3    H153507   2.355   4.338  17.055  1.7450 -1.7573 -0.8548
10672TIP3    H253508   2.359   4.298  16.909 -2.3278  0.8037 -1.7433
10673TIP3   OH253509   4.691   1.938  12.085  0.1795  0.0411  0.0581
10673TIP3    H153510   4.614   1.929  12.029  0.1879 -0.1427  0.0761
10673TIP3    H253511   4.765   1.910  12.031  0.2159  0.0804  0.0878
10674TIP3   OH253512   3.203   5.934  10.402 -0.5265  0.0410  0.1280
10674TIP3    H153513   3.139   5.936  10.330 -0.5646 -0.3051  0.1543
10674TIP3    H253514   3.169   5.868  10.462 -1.0457  1.0571  0.9792
10675TIP3   OH253515   0.215   0.987  10.981  0.7354 -0.3219 -0.0215
10675TIP3    H153516   0.280   0.926  10.946  1.7484 -0.6626  2.3367
10675TIP3    H253517   0.266   1.066  11.000 -0.0933  0.3899 -0.7114
10676TIP3   OH253518   1.976   1.139  13.281  0.0206  0.3804  0.1967
10676TIP3    H153519   1.978   1.234  13.297  0.3786  0.2657  0.8717
10676TIP3    H253520   2.068   1.116  13.269 -0.2348  0.4362 -1.9097
10677TIP3   OH253521   6.159   3.491  11.961  0.4313 -0.5548 -0.0011
10677TIP3    H153522   6.148   3.444  11.879 -0.8652 -0.2420 -0.0166
10677TIP3    H253523   6.096   3.450  12.021  1.0453 -0.4799  0.7057
10678TIP3   OH253524   5.012   6.731   3.235  0.6231  0.0370 -0.4695
10678TIP3    H153525   4.921   6.712   3.257  0.4146 -0.1689 -1.5256
10678TIP3    H253526   5.053   6.751   3.320  0.2536 -2.5588  0.3703
10679TIP3   OH253527   1.684   1.577  16.886  0.1088 -0.3252  0.5353
10679TIP3    H153528   1.619   1.528  16.836  0.2204 -1.1262  1.1632
10679TIP3    H253529   1.632   1.632  16.945 -0.0120 -0.8812  0.9579
10680TIP3   OH253530   1.854   0.035   6.626  0.1846 -0.0712 -1.2196
10680TIP3    H153531   1.881   0.113   6.674  1.5753 -2.2404  1.6392
10680TIP3    H253532   1.766   0.016   6.659  1.4155 -1.9663  1.0903
10681TIP3   OH253533   1.703   4.970   1.361 -0.6174 -0.8961  0.1449
10681TIP3    H153534   1.684   4.965   1.267 -0.4128  2.3476 -0.0967
10681TIP3    H253535   1.630   4.923   1.402 -0.5200 -2.6772 -1.6050
10682TIP3   OH253536   5.728   2.932   4.816 -0.3925  0.1343  0.0074
10682TIP3    H153537   5.724   2.843   4.782  0.3628 -0.3158  1.0750
10682TIP3    H253538   5.638   2.963   4.813 -0.4257 -0.0864 -1.8636
10683TIP3   OH253539   6.494   4.682  12.060 -0.0498 -0.0130 -0.5098
10683TIP3    H153540   6.581   4.696  12.096 -0.0804  1.8068 -1.1152
10683TIP3    H253541   6.505   4.688  11.965 -0.7996  0.0240 -0.6008
10684TIP3   OH253542   2.685   3.276   0.346 -0.1846 -0.8658 -0.3151
10684TIP3    H153543   2.707   3.320   0.263  1.8848  1.3094  1.3196
10684TIP3    H253544   2.596   3.305   0.364 -0.7518 -1.5491 -1.8912
10685TIP3   OH253545   5.851   0.938  14.812 -0.4905 -0.4238 -0.0874
10685TIP3    H153546   5.806   0.854  14.820 -0.9239 -0.4778 -2.5754
10685TIP3    H253547   5.936   0.916  14.773  0.4275  0.0230  1.6424
10686TIP3   OH253548   2.994   0.986  12.653  0.0549 -0.0241 -0.1362
10686TIP3    H153549   2.997   0.916  12.587 -0.7459  0.7089 -0.9612
10686TIP3    H253550   2.946   1.057  12.610 -0.7712  0.3320  1.3585
10687TIP3   OH253551   1.253   6.601  16.197 -0.5831 -0.1203  0.1402
10687TIP3    H153552   1.336   6.582  16.242 -0.1530  1.4572  0.0504
10687TIP3    H253553   1.188   6.601  16.267 -0.4553 -0.9973  0.2667
10688TIP3   OH253554   5.564   0.900  16.892  0.1456 -0.4097 -0.1229
10688TIP3    H153555   5.535   0.986  16.924 -0.0407 -0.1020 -1.0966
10688TIP3    H253556   5.558   0.907  16.796  0.9825 -1.2151 -0.2351
10689TIP3   OH253557   0.848   0.520  12.290  0.2301  0.1684  0.4272
10689TIP3    H153558   0.827   0.430  12.262 -0.1805  0.5355 -0.4636
10689TIP3    H253559   0.909   0.552  12.223 -1.7121  1.4882 -0.7665
10690TIP3   OH253560   4.766   5.721   3.728 -0.2349  0.5974 -0.5153
10690TIP3    H153561   4.756   5.708   3.634  4.5176 -0.5815 -0.9812
10690TIP3    H253562   4.786   5.814   3.738  2.2439  0.1378 -1.0206
10691TIP3   OH253563   3.480   2.996   0.157 -0.0209  0.5270  0.1114
10691TIP3    H153564   3.515   2.960   0.075 -0.1925 -0.8573  0.6279
10691TIP3    H253565   3.407   3.051   0.130 -0.6105 -0.5885 -0.6261
10692TIP3   OH253566   6.694   3.649  11.888 -0.0404 -0.5827 -0.0762
10692TIP3    H153567   6.702   3.577  11.827  1.3909 -1.2445  0.8519
10692TIP3    H253568   6.693   3.607  11.975 -1.0425  0.3934  0.4045
10693TIP3   OH253569   6.580   1.735  12.358  0.4478  0.4349 -0.1773
10693TIP3    H153570   6.574   1.782  12.441  0.5064  1.3350 -0.6785
10693TIP3    H253571   6.492   1.741  12.320 -0.0437 -1.4639  0.6057
10694TIP3   OH253572   4.570   0.128  14.357 -0.4085 -0.1385 -0.2456
10694TIP3    H153573   4.476   0.109  14.364 -0.0925 -1.8657 -0.5494
10694TIP3    H253574   4.610   0.079  14.429  0.2455  0.6919 -0.0394
10695TIP3   OH253575   3.141   6.780  12.006 -0.4140 -0.3367 -0.4576
10695TIP3    H153576   3.154   6.873  11.990  0.5460 -0.2644  0.6764
10695TIP3    H253577   3.157   6.738  11.922 -0.6277  0.4917 -0.9202
10696TIP3   OH253578   2.264   1.319  15.221 -0.1959  0.2290  1.0405
10696TIP3    H153579   2.195   1.272  15.174  1.7328 -0.8272 -0.8006
10696TIP3    H253580   2.307   1.252  15.274  2.8671 -0.2546 -1.9439
10697TIP3   OH253581   5.401   3.330   0.072 -0.6969  0.5170 -0.2875
10697TIP3    H153582   5.493   3.325   0.046 -0.5848  1.5730 -0.1455
10697TIP3    H253583   5.356   3.363  -0.005 -1.0535 -0.5703 -0.5480
10698TIP3   OH253584   5.635   0.421   1.276 -0.2053 -0.1758  0.0937
10698TIP3    H153585   5.662   0.329   1.276  0.6157  0.0482  1.2935
10698TIP3    H253586   5.539   0.418   1.280 -0.2677 -0.9807 -1.6458
10699TIP3   OH253587   2.640   4.081  16.530 -0.6310 -0.2426  0.3014
10699TIP3    H153588   2.715   4.060  16.476 -0.9778  1.0213 -0.7032
10699TIP3    H253589   2.574   4.016  16.507 -0.3407 -0.4796  0.1407
10700TIP3   OH253590   1.416   1.544   5.835  0.5747  0.1665 -0.2571
10700TIP3    H153591   1.358   1.476   5.869 -0.9044  0.7049 -1.6356
10700TIP3    H253592   1.369   1.626   5.850  1.3429  0.6890 -0.6454
10701TIP3   OH253593   4.271   4.036   3.087 -0.2429 -0.2085 -0.8559
10701TIP3    H153594   4.360   4.039   3.122 -0.1545 -1.5079 -0.9282
10701TIP3    H253595   4.282   4.026   2.993 -0.4738  0.9556 -1.0073
10702TIP3   OH253596   6.389   1.980  11.521 -0.5885  0.2659  0.1342
10702TIP3    H153597   6.371   1.951  11.611  0.0907  0.6242  0.3862
10702TIP3    H253598   6.432   1.905  11.480 -0.9610  0.0774  0.0799
10703TIP3   OH253599   3.316   4.788  15.403 -0.0052 -0.2152 -0.0634
10703TIP3    H153600   3.282   4.877  15.413 -1.7467 -1.0156  1.3243
10703TIP3    H253601   3.375   4.777  15.477  0.2869 -0.1947 -0.2910
10704TIP3   OH253602   1.382   6.547  17.043 -0.2167 -0.3369 -0.3062
10704TIP3    H153603   1.361   6.581  17.130  2.2767  0.4843  0.0265
10704TIP3    H253604   1.381   6.624  16.986 -0.6800 -0.6837 -0.7676
10705TIP3   OH253605   0.699   3.074  11.589  0.5623 -0.5225 -0.2449
10705TIP3    H153606   0.746   3.003  11.632 -2.5915 -0.6640  3.2398
10705TIP3    H253607   0.630   3.030  11.539  1.5096 -0.1017 -1.9676
10706TIP3   OH253608   2.448   0.010   3.648 -0.2297  0.4859 -0.1599
10706TIP3    H153609   2.524  -0.028   3.693  1.7613  2.5240 -1.6922
10706TIP3    H253610   2.392  -0.065   3.628  2.2151 -1.2969 -0.5791
10707TIP3   OH253611   6.070   2.663  14.257 -0.3442  0.2586  0.3683
10707TIP3    H153612   6.092   2.723  14.328  0.1654  0.6383 -0.1076
10707TIP3    H253613   6.095   2.576  14.289 -0.4092  0.3872  0.7703
10708TIP3   OH253614   5.024   3.985   0.674 -0.1034  0.0545  0.4857
10708TIP3    H153615   4.969   4.054   0.711  0.8767  1.6008 -0.8544
10708TIP3    H253616   5.109   4.027   0.659  0.5690 -1.4925 -0.2033
10709TIP3   OH253617   3.675   1.970  15.807  1.0099 -0.3244 -0.3582
10709TIP3    H153618   3.695   2.060  15.834  0.8302 -0.3908 -0.0039
10709TIP3    H253619   3.735   1.916  15.857 -0.0816 -0.5297  0.7684
10710TIP3   OH253620   6.134   6.370  16.547 -1.3870 -0.3943  0.6758
10710TIP3    H153621   6.074   6.312  16.499 -1.3600 -0.6319  0.9233
10710TIP3    H253622   6.181   6.311  16.606 -0.2581 -0.3483 -0.1574
10711TIP3   OH253623   0.473   2.888   0.332  0.1926 -0.2145 -0.2237
10711TIP3    H153624   0.477   2.983   0.342 -1.0596  0.0095 -1.5113
10711TIP3    H253625   0.559   2.857   0.359  0.6990  1.3135 -0.0058
10712TIP3   OH253626   1.671   4.306   3.867  0.4357 -0.7108  0.5537
10712TIP3    H153627   1.636   4.351   3.944 -0.9482 -2.1905  0.8119
10712TIP3    H253628   1.619   4.340   3.794  0.1316 -1.0880  0.5965
10713TIP3   OH253629   5.009   4.886  16.690  0.7077 -0.0694  0.0061
10713TIP3    H153630   4.942   4.838  16.738  2.1348 -2.2732 -0.1211
10713TIP3    H253631   4.962   4.927  16.617 -0.9749  0.8900  1.6007
10714TIP3   OH253632   0.897   3.789   4.188 -0.1748 -0.5985  0.0656
10714TIP3    H153633   0.936   3.731   4.122 -0.6243 -0.7475 -0.0674
10714TIP3    H253634   0.921   3.877   4.159 -1.2062 -0.6050 -0.8401
10715TIP3   OH253635   5.576   1.209   6.101 -0.3064 -0.1257 -0.0995
10715TIP3    H153636   5.510   1.153   6.059  0.0030 -0.4236 -0.1874
10715TIP3    H253637   5.625   1.149   6.158  0.1840  0.0032 -0.3790
10716TIP3   OH253638   2.962   1.849   3.204 -0.5365 -0.2022  0.5731
10716TIP3    H153639   3.026   1.820   3.269 -1.3467 -0.6480  1.1815
10716TIP3    H253640   2.950   1.942   3.222 -0.1238 -0.1327  0.5066
10717TIP3   OH253641   6.212   2.956  17.184 -0.4425 -0.0631 -0.1771
10717TIP3    H153642   6.223   2.914  17.099 -3.0519  1.9370 -1.5676
10717TIP3    H253643   6.282   3.022  17.188 -1.4316  1.0936 -1.5964
10718TIP3   OH253644   6.634   0.661   6.153 -0.2399  0.0416  0.0913
10718TIP3    H153645   6.604   0.632   6.239 -0.2666  0.7313  0.3162
10718TIP3    H253646   6.683   0.741   6.170 -1.0300  0.6890 -0.6351
10719TIP3   OH253647   1.793   0.863   3.095 -0.1136  0.3906  0.4443
10719TIP3    H153648   1.796   0.851   3.189  0.7780 -0.6369  0.2931
10719TIP3    H253649   1.771   0.955   3.083  0.7355  0.7578  1.6533
10720TIP3   OH253650   5.921   4.522   0.068  0.5958  0.3761  0.0303
10720TIP3    H153651   5.987   4.582   0.103  0.9066 -0.0321  0.1380
10720TIP3    H253652   5.969   4.466   0.007  0.7592 -1.3158  1.6819
10721TIP3   OH253653   5.459   1.579   0.257  0.2008  0.1700 -0.6557
10721TIP3    H153654   5.391   1.630   0.213  1.0696  1.4670 -0.5299
10721TIP3    H253655   5.528   1.643   0.276  0.2283 -0.5673  1.7964
10722TIP3   OH253656   4.419   1.221   4.847  0.0688  0.2008  0.0689
10722TIP3    H153657   4.443   1.145   4.794  2.9928  1.4277 -0.4714
10722TIP3    H253658   4.433   1.194   4.937 -1.9185 -0.8860  0.0708
10723TIP3   OH253659   6.504   6.111   6.103  0.6330  0.2033 -0.4491
10723TIP3    H153660   6.443   6.039   6.088 -0.4455  0.6798  1.4643
10723TIP3    H253661   6.455   6.189   6.076  0.1712  0.6442  1.6208
10724TIP3   OH253662   5.924   5.541  15.087 -0.0835 -0.2588  0.1276
10724TIP3    H153663   5.859   5.474  15.106  1.1224 -1.1811  1.1207
10724TIP3    H253664   6.006   5.505  15.122  0.8306  1.1485 -0.5308
10725TIP3   OH253665   0.116   1.907   1.426 -0.1525 -0.3256 -0.5033
10725TIP3    H153666   0.186   1.843   1.415 -0.2252 -0.8210  1.7221
10725TIP3    H253667   0.138   1.953   1.506 -0.3363  2.1787 -1.8428
10726TIP3   OH253668   0.500   0.920  11.394 -0.6870 -0.0645 -0.2367
10726TIP3    H153669   0.501   0.960  11.307  2.8653 -1.8127 -1.0898
10726TIP3    H253670   0.536   0.987  11.452 -1.6435  0.5609 -0.3519
10727TIP3   OH253671   4.269   1.139   0.509  0.1389 -0.0378  0.2885
10727TIP3    H153672   4.300   1.230   0.508  0.9038 -0.2977  0.1389
10727TIP3    H253673   4.196   1.138   0.446  0.3904  0.3837 -0.0133
10728TIP3   OH253674   1.025   3.690  13.813 -0.3784  0.5848 -0.0713
10728TIP3    H153675   1.071   3.645  13.743 -2.0916 -1.1214 -0.1408
10728TIP3    H253676   0.960   3.745  13.769 -0.4816  0.6180  0.1171
10729TIP3   OH253677   2.729   0.911   4.381  0.9918  0.1852 -0.7822
10729TIP3    H153678   2.726   0.896   4.287 -1.0867  1.4621 -0.9454
10729TIP3    H253679   2.681   0.837   4.419  1.6270 -0.2059 -0.7377
10730TIP3   OH253680   5.892   4.133   5.176  0.5236 -0.1369 -0.2993
10730TIP3    H153681   5.900   4.216   5.127 -0.2422 -0.6811 -1.3881
10730TIP3    H253682   5.809   4.096   5.145 -0.1718 -0.3269  1.7160
10731TIP3   OH253683   1.983   5.244   4.238 -0.2297 -0.6817 -0.0950
10731TIP3    H153684   1.944   5.206   4.317 -1.8364 -1.4468 -1.2253
10731TIP3    H253685   1.965   5.338   4.244  2.6803 -0.1882  2.1104
10732TIP3   OH253686   4.641   3.824   0.939  0.1417 -0.1764 -0.5220
10732TIP3    H153687   4.636   3.868   1.024  0.6249 -0.4580 -0.3428
10732TIP3    H253688   4.550   3.809   0.914 -0.0881  2.1454 -1.2250
10733TIP3   OH253689   2.013   4.243  15.715 -0.7420 -0.0578  0.2206
10733TIP3    H153690   2.064   4.232  15.795 -2.0804 -0.2403  1.0523
10733TIP3    H253691   2.079   4.248  15.646  0.4668  0.8775  1.4041
10734TIP3   OH253692   4.105   6.812  16.591 -0.1592 -0.1284 -0.2753
10734TIP3    H153693   4.051   6.888  16.570  0.0409  0.0196 -0.2620
10734TIP3    H253694   4.193   6.838  16.564  0.1001  0.0600  0.7428
10735TIP3   OH253695   4.543   3.868  10.539 -0.6327  0.3787 -0.2791
10735TIP3    H153696   4.454   3.902  10.552 -0.4445  1.5547 -1.9220
10735TIP3    H253697   4.593   3.901  10.613 -1.4864  0.0232  0.4601
10736TIP3   OH253698   1.099   1.388  10.892  0.0587  0.0300 -0.1517
10736TIP3    H153699   1.005   1.367  10.889 -0.0246  0.1538  1.1265
10736TIP3    H253700   1.103   1.483  10.881 -0.0177  0.1012  0.4040
10737TIP3   OH253701   2.042   2.967  16.303  0.3554 -0.1616  0.6221
10737TIP3    H153702   2.137   2.982  16.293  0.2649 -0.4895 -0.8740
10737TIP3    H253703   2.027   2.881  16.263 -0.7612  0.4346 -0.2795
10738TIP3   OH253704   1.967   4.664  16.901  0.2852  0.1139 -0.4230
10738TIP3    H153705   1.947   4.610  16.977  2.0272 -0.1688 -0.1400
10738TIP3    H253706   2.027   4.611  16.848  1.4402  1.4437 -0.5045
10739TIP3   OH253707   5.217   2.343  13.209  0.0360 -0.1297 -0.0767
10739TIP3    H153708   5.226   2.438  13.222 -0.0039 -0.0382 -0.7140
10739TIP3    H253709   5.284   2.322  13.144  0.7317 -0.7098  0.8244
10740TIP3   OH253710   6.095   2.533   0.528  0.1947 -0.2316 -0.1516
10740TIP3    H153711   6.093   2.568   0.439 -1.6638 -0.6411 -0.2919
10740TIP3    H253712   6.106   2.438   0.516 -0.9657 -0.3957  0.0093
10741TIP3   OH253713   2.557   1.375   5.460 -0.2629 -0.2238  0.4804
10741TIP3    H153714   2.527   1.327   5.537  1.4928 -1.2466  0.5413
10741TIP3    H253715   2.477   1.410   5.421 -1.5702 -3.0165  0.5538
10742TIP3   OH253716   0.836   0.281   3.454 -0.1638  0.1015 -0.0884
10742TIP3    H153717   0.863   0.190   3.441 -0.2164 -0.3704  2.6833
10742TIP3    H253718   0.918   0.329   3.464 -0.1542 -0.0285  0.5365
10743TIP3   OH253719   1.492   3.122  15.988 -0.1138 -0.2076  0.4511
10743TIP3    H153720   1.528   3.043  16.029 -1.4066 -0.8264  0.4126
10743TIP3    H253721   1.471   3.095  15.899  0.0628  0.3636  0.2365
10744TIP3   OH253722   1.271   3.351  11.191  0.0239 -0.0245  0.0241
10744TIP3    H153723   1.260   3.289  11.263  2.0534 -0.4519 -0.0171
10744TIP3    H253724   1.273   3.296  11.113 -1.1085  0.3542 -0.2844
10745TIP3   OH253725   2.093   3.581  13.956 -0.3738 -0.4332  0.6073
10745TIP3    H153726   2.004   3.550  13.947 -0.0472 -1.4364  0.7995
10745TIP3    H253727   2.146   3.502  13.962  0.4589  0.1551  1.1670
10746TIP3   OH253728   2.103   4.928   5.204 -0.3214 -0.5169  0.2060
10746TIP3    H153729   2.069   4.949   5.291 -1.8800 -1.9616 -0.0393
10746TIP3    H253730   2.042   4.971   5.143  0.8549  0.6313 -0.1836
10747TIP3   OH253731   5.169   3.467   4.105  0.2375  0.6783 -0.1555
10747TIP3    H153732   5.265   3.467   4.103  0.2851 -2.5921 -0.7349
10747TIP3    H253733   5.144   3.422   4.025 -1.7285 -0.0504  0.8493
10748TIP3   OH253734   0.243   5.673  17.030  0.9748 -0.4570  0.1319
10748TIP3    H153735   0.181   5.741  17.055  0.0600 -0.8292 -1.0443
10748TIP3    H253736   0.304   5.717  16.970  0.4652 -0.6463 -0.5217
10749TIP3   OH253737   0.845   1.335   0.634 -0.0433 -0.0187 -0.2808
10749TIP3    H153738   0.766   1.356   0.583 -0.6072 -2.0948 -0.2974
10749TIP3    H253739   0.910   1.312   0.568 -0.2602 -1.0084 -0.1611
10750TIP3   OH253740   3.810   5.073   1.398 -0.1358 -0.5065 -0.9568
10750TIP3    H153741   3.837   4.984   1.420  2.5566  0.2123 -1.2073
10750TIP3    H253742   3.846   5.089   1.311 -1.1726  0.5905 -1.1942
10751TIP3   OH253743   6.286   0.432  11.774  0.4876  0.2555 -0.1082
10751TIP3    H153744   6.340   0.354  11.765  1.7663  0.9839  1.1251
10751TIP3    H253745   6.302   0.463  11.863  0.7084  2.4472 -0.8801
10752TIP3   OH253746   5.822   1.239   3.773 -0.5690 -0.1275 -0.2924
10752TIP3    H153747   5.902   1.249   3.825 -1.3386 -0.3807  0.9571
10752TIP3    H253748   5.833   1.155   3.728 -0.1024 -0.1336 -0.1711
10753TIP3   OH253749   0.172   5.759  14.351 -0.2406 -0.0036  0.3456
10753TIP3    H153750   0.077   5.765  14.348 -0.2087  0.1603 -0.5958
10753TIP3    H253751   0.194   5.768  14.444 -1.1746 -0.6821  0.6433
10754TIP3   OH253752   4.479   3.791   5.213  0.3322  0.4400  0.1211
10754TIP3    H153753   4.447   3.795   5.303 -2.1806  2.1149 -0.7912
10754TIP3    H253754   4.410   3.748   5.164  0.2712  2.3143 -1.5388
10755TIP3   OH253755   2.201   2.116  16.530  0.4801  0.0098  0.0015
10755TIP3    H153756   2.287   2.115  16.489  0.2110  1.9688 -0.6669
10755TIP3    H253757   2.219   2.118  16.624  1.1513 -0.3542 -0.1238
10756TIP3   OH253758   0.260   5.209  12.223  0.4984  0.1426 -0.0628
10756TIP3    H153759   0.329   5.161  12.268  0.9800  0.7356 -0.1679
10756TIP3    H253760   0.277   5.301  12.243 -0.5434  0.2646  0.3102
10757TIP3   OH253761   4.047   4.244  10.960  0.4094 -0.0183  0.3297
10757TIP3    H153762   4.098   4.255  10.880  1.7356 -3.0864  0.6802
10757TIP3    H253763   3.976   4.185  10.935 -0.5458  0.9108  0.8440
10758TIP3   OH253764   5.708   3.095   4.463 -0.3852 -0.3170 -0.2268
10758TIP3    H153765   5.693   3.188   4.446 -0.1917 -0.7179 -2.7592
10758TIP3    H253766   5.776   3.094   4.531 -0.0976  1.3995 -0.4720
10759TIP3   OH253767   4.051   2.976  11.909  0.1578 -0.7478 -0.0492
10759TIP3    H153768   4.135   2.962  11.954 -0.3326 -0.4638  0.9652
10759TIP3    H253769   4.062   3.059  11.863  0.3223 -0.5659  0.3220
10760TIP3   OH253770   3.826   4.579  13.687  0.1539 -0.4885  0.5080
10760TIP3    H153771   3.788   4.659  13.723  1.7210  0.8047 -0.6573
10760TIP3    H253772   3.882   4.545  13.757  0.4828  0.1368  0.5518
10761TIP3   OH253773   0.426   5.477   1.772 -0.2623  0.5081 -0.7578
10761TIP3    H153774   0.437   5.467   1.867 -1.9409  2.6361 -0.3022
10761TIP3    H253775   0.468   5.561   1.752  1.4294 -0.6350 -2.1789
10762TIP3   OH253776   5.404   2.569   5.157  0.1622 -0.2968 -0.0276
10762TIP3    H153777   5.453   2.644   5.124 -0.7202  0.8057  1.1047
10762TIP3    H253778   5.321   2.571   5.108  0.2989 -0.7845 -0.2857
10763TIP3   OH253779   0.754   6.131   5.081 -0.2316 -0.2483 -0.1698
10763TIP3    H153780   0.811   6.083   5.142 -1.7069  0.0903  1.5335
10763TIP3    H253781   0.811   6.196   5.041  0.5126  0.3643  1.8222
10764TIP3   OH253782   2.165   2.448  14.286  0.6323  0.0138 -0.1698
10764TIP3    H153783   2.200   2.537  14.285  2.5404 -0.7239 -0.8525
10764TIP3    H253784   2.232   2.396  14.331 -2.0976 -0.4676  3.6491
10765TIP3   OH253785   2.313   1.565  12.494  0.4883 -0.4746 -0.5030
10765TIP3    H153786   2.349   1.483  12.461  0.7853 -0.4593 -0.2153
10765TIP3    H253787   2.218   1.553  12.489  0.5037 -1.6183  1.4629
10766TIP3   OH253788   6.082   1.740  16.365  0.2932  0.5390  0.2279
10766TIP3    H153789   6.015   1.699  16.311 -0.4140  1.4502  0.4110
10766TIP3    H253790   6.090   1.683  16.441  0.6690 -0.2764 -0.4141
10767TIP3   OH253791   0.090   6.573  16.949  0.1583 -0.9928  0.1270
10767TIP3    H153792   0.100   6.494  16.896  1.2710 -1.0296  0.3735
10767TIP3    H253793   0.167   6.573  17.006  0.3401  0.4538 -0.1100
10768TIP3   OH253794   3.852   2.727  15.441  0.1290  0.3731 -0.0064
10768TIP3    H153795   3.824   2.810  15.401 -0.7059 -0.0345 -0.2755
10768TIP3    H253796   3.937   2.709  15.401 -0.3610  0.3495 -1.0537
10769TIP3   OH253797   1.180   0.953  13.332  0.0596 -0.2684  0.2795
10769TIP3    H153798   1.119   0.894  13.287  0.7186 -0.8224  0.0960
10769TIP3    H253799   1.179   1.033  13.280  0.7793 -0.8905 -0.7080
10770TIP3   OH253800   6.489   4.861   5.240  0.2589  0.0694 -0.3000
10770TIP3    H153801   6.493   4.793   5.307  1.1399  2.1871  1.8816
10770TIP3    H253802   6.567   4.848   5.187 -0.6063 -1.8204 -1.1534
10771TIP3   OH253803   2.642   0.458  11.893  0.2051  0.0594 -0.2940
10771TIP3    H153804   2.700   0.504  11.832  1.3661 -0.1906  0.6213
10771TIP3    H253805   2.677   0.478  11.980  0.7912 -2.6224  0.1274
10772TIP3   OH253806   2.187   4.178  11.214 -0.2949  0.4188 -0.3977
10772TIP3    H153807   2.247   4.241  11.174  1.2554 -0.1895  0.9101
10772TIP3    H253808   2.128   4.232  11.268 -1.8010  1.1445 -2.7061
10773TIP3   OH253809   6.554   5.153   4.788  0.0088 -0.3004 -0.0297
10773TIP3    H153810   6.489   5.208   4.832  1.3842 -0.2631  2.0304
10773TIP3    H253811   6.602   5.213   4.731 -0.5317  0.0370 -0.1270
10774TIP3   OH253812   5.951   5.007  16.482 -0.1053 -0.3048  0.3950
10774TIP3    H153813   6.012   5.060  16.430 -0.9900 -0.8655 -1.2397
10774TIP3    H253814   5.914   4.945  16.419 -1.2996 -0.9077  1.6784
10775TIP3   OH253815   3.933   3.026  13.775 -0.2933 -0.4517 -0.6472
10775TIP3    H153816   3.893   2.940  13.786  1.2526 -0.9611  1.2508
10775TIP3    H253817   3.935   3.064  13.863  1.7480  0.2895 -0.9889
10776TIP3   OH253818   2.290   4.134  16.247  0.4378  0.5537 -0.7680
10776TIP3    H153819   2.226   4.128  16.318  0.4997 -0.1024 -0.7623
10776TIP3    H253820   2.358   4.193  16.280  1.8487 -1.8667  0.8142
10777TIP3   OH253821   2.737   2.225   1.675 -0.2757 -0.2751 -0.0745
10777TIP3    H153822   2.748   2.170   1.597  0.8234 -0.5073  0.2302
10777TIP3    H253823   2.646   2.252   1.673 -0.2127 -0.1390 -1.5413
10778TIP3   OH253824   5.900   0.747  14.152 -0.0105  0.4497 -0.1946
10778TIP3    H153825   5.859   0.706  14.228  1.8903  0.3784  0.8245
10778TIP3    H253826   5.837   0.735  14.081 -1.3941 -0.3304  1.1422
10779TIP3   OH253827   3.748   4.099   2.777 -0.0952  0.0004  0.2779
10779TIP3    H153828   3.784   4.078   2.863  0.4083  0.7606  0.2560
10779TIP3    H253829   3.664   4.140   2.795  0.4490  1.0574  0.4525
10780TIP3   OH253830   4.083   3.049   4.051 -0.1265 -0.4176  0.3708
10780TIP3    H153831   4.103   2.958   4.074  1.8160 -0.2045 -0.3733
10780TIP3    H253832   4.125   3.062   3.967 -1.9495  0.6538 -0.3973
10781TIP3   OH253833   1.559   0.392  11.771 -0.4005 -0.6166  0.8187
10781TIP3    H153834   1.576   0.459  11.836  0.3609 -0.3145  0.3278
10781TIP3    H253835   1.464   0.390  11.761 -0.3455  1.4961 -0.3125
10782TIP3   OH253836   5.820   2.303   2.696 -0.1227  0.0812 -0.5907
10782TIP3    H153837   5.890   2.287   2.632  0.7800  1.0275  0.1316
10782TIP3    H253838   5.805   2.217   2.736 -1.3572 -0.7255 -2.6978
10783TIP3   OH253839   5.018   6.336  12.121  0.1171 -0.0570 -0.3889
10783TIP3    H153840   5.112   6.320  12.123  0.6021  2.5673  0.5878
10783TIP3    H253841   4.982   6.275  12.185  1.4493  0.3957  0.8192
10784TIP3   OH253842   4.040   5.852  15.905  0.5737  0.0250 -0.0419
10784TIP3    H153843   4.121   5.803  15.920  0.7110  0.2390 -0.0945
10784TIP3    H253844   3.982   5.788  15.863  1.1493  0.2316 -1.1758
10785TIP3   OH253845   0.751   0.963   6.623  0.0354  0.5522 -0.1594
10785TIP3    H153846   0.740   1.041   6.678 -0.3352  1.0417 -0.9298
10785TIP3    H253847   0.732   0.993   6.534 -2.6679 -0.9613 -0.1604
10786TIP3   OH253848   6.199   2.406  14.038  1.0097  0.3954 -0.2890
10786TIP3    H153849   6.293   2.421  14.046  1.4094 -2.8883  2.2338
10786TIP3    H253850   6.164   2.426  14.125 -0.7365  2.0864 -1.3411
10787TIP3   OH253851   0.245   5.820   1.610  0.3457 -0.0582  0.4223
10787TIP3    H153852   0.177   5.841   1.547  1.2652  2.4546  0.2149
10787TIP3    H253853   0.198   5.775   1.681 -1.3268  0.5381 -0.2689
10788TIP3   OH253854   2.721   4.959  12.650  0.6909  0.0849 -0.1515
10788TIP3    H153855   2.794   4.997  12.699  0.5025 -0.0081  0.2112
10788TIP3    H253856   2.648   5.020  12.664  0.4330 -0.3239  0.3000
10789TIP3   OH253857   4.095   6.006   2.494 -0.2402  0.8537  0.3427
10789TIP3    H153858   4.050   6.071   2.439 -1.0101 -0.2404 -0.3528
10789TIP3    H253859   4.173   6.051   2.526 -0.5395  1.9829 -0.4834
10790TIP3   OH253860   0.061   1.334   3.531 -0.2273 -0.1972 -0.0567
10790TIP3    H153861   0.068   1.285   3.449 -3.1123 -0.3986 -0.2170
10790TIP3    H253862   0.103   1.277   3.596  1.3911 -0.3690 -1.2429
10791TIP3   OH253863   5.237   3.451  16.277  0.4069 -0.2293 -0.1510
10791TIP3    H153864   5.302   3.519  16.293  0.0205 -0.3848  2.3070
10791TIP3    H253865   5.161   3.478  16.328 -0.4261 -1.5566 -0.6572
10792TIP3   OH253866   4.326   0.210   0.536  0.5588 -0.0597  0.4798
10792TIP3    H153867   4.237   0.228   0.509 -0.0134  1.0465  2.9332
10792TIP3    H253868   4.334   0.115   0.529 -0.8791 -0.1888  0.4392
10793TIP3   OH253869   5.069   6.166   0.977 -0.3314 -0.0837 -0.2918
10793TIP3    H153870   5.049   6.259   0.982 -0.1585 -0.1361  1.6654
10793TIP3    H253871   5.106   6.154   0.890  0.1337  1.7664 -0.3565
10794TIP3   OH253872   2.046   1.907   2.886 -0.5153  0.6128 -0.1940
10794TIP3    H153873   2.135   1.915   2.850 -0.1764 -2.0951 -0.0187
10794TIP3    H253874   1.997   1.863   2.817 -1.3556  0.7607  0.3139
10795TIP3   OH253875   3.201   4.237  14.480 -0.0507 -0.0691  0.1689
10795TIP3    H153876   3.160   4.168  14.427  0.5196 -1.1046  1.0590
10795TIP3    H253877   3.222   4.306  14.417  0.2057 -1.0963 -0.8781
10796TIP3   OH253878   2.434   3.750  15.816  0.1791  0.3408 -0.2706
10796TIP3    H153879   2.468   3.822  15.763 -0.1446 -0.0298 -0.9943
10796TIP3    H253880   2.342   3.741  15.789  0.4701 -0.9591 -0.8709
10797TIP3   OH253881   0.958   0.203   5.737 -0.4879  0.2378  0.0352
10797TIP3    H153882   0.883   0.174   5.788 -0.4101 -0.6051 -0.3225
10797TIP3    H253883   0.961   0.143   5.662  2.7301 -2.1194  1.9341
10798TIP3   OH253884   2.141   1.995  13.622 -0.6082  1.0022  0.1686
10798TIP3    H153885   2.057   1.955  13.602 -0.9367  1.1603  1.1997
10798TIP3    H253886   2.132   2.026  13.712  1.4017 -1.1630  1.1658
10799TIP3   OH253887   2.498   3.831  12.192 -0.2726  0.0981 -1.3137
10799TIP3    H153888   2.422   3.888  12.195  0.6940  1.3615  2.6836
10799TIP3    H253889   2.573   3.890  12.198  0.8881 -1.3677 -0.9903
10800TIP3   OH253890   5.508   6.130  10.976  0.0994 -0.2447  0.2880
10800TIP3    H153891   5.592   6.175  10.978 -0.2660  0.3939  1.6770
10800TIP3    H253892   5.524   6.052  10.924  1.6913 -0.3791  0.9469
10801TIP3   OH253893   2.311   3.400  17.160  0.1476 -0.3105 -0.2508
10801TIP3    H153894   2.223   3.438  17.168  0.2321  0.0235 -0.8415
10801TIP3    H253895   2.333   3.370  17.248 -0.3328  0.1112  0.0124
10802TIP3   OH253896   0.343   4.556   4.380 -0.2394  0.3135  0.8711
10802TIP3    H153897   0.348   4.647   4.409  2.3824  0.9876 -1.4844
10802TIP3    H253898   0.418   4.514   4.420 -0.1117 -0.2187  0.0839
10803TIP3   OH253899   1.778   5.898   5.193  0.1285  0.0625  0.4355
10803TIP3    H153900   1.698   5.874   5.146 -0.7875  0.5292  1.7147
10803TIP3    H253901   1.847   5.848   5.150 -1.0590 -1.4106  0.1795
10804TIP3   OH253902   2.919   2.728   4.822  0.0867 -0.7129  0.4863
10804TIP3    H153903   2.936   2.687   4.907  0.1527 -1.3900  0.1539
10804TIP3    H253904   2.994   2.704   4.768 -0.2202 -0.7528  0.0749
10805TIP3   OH253905   5.809   0.625   3.208 -0.7634 -0.0100  0.4069
10805TIP3    H153906   5.737   0.688   3.211  0.8757  2.0921 -2.3690
10805TIP3    H253907   5.878   0.669   3.160  1.8244 -2.6045  1.5553
10806TIP3   OH253908   2.574   0.639   6.213 -0.1720 -0.0550 -0.2954
10806TIP3    H153909   2.564   0.594   6.297  1.2339 -0.2122 -0.1959
10806TIP3    H253910   2.542   0.727   6.229 -0.5260 -0.2745  0.2273
10807TIP3   OH253911   4.090   1.193  16.837  0.2036  0.0437 -0.2041
10807TIP3    H153912   4.004   1.154  16.851  0.3643 -0.3524 -0.3090
10807TIP3    H253913   4.137   1.129  16.783  0.2159  0.7132 -1.0057
10808TIP3   OH253914   1.940   5.696   0.917 -0.1584 -0.5279  0.4649
10808TIP3    H153915   1.869   5.675   0.977 -0.3837 -0.1713  0.3257
10808TIP3    H253916   1.900   5.754   0.852  0.3494 -0.0290  0.5959
10809TIP3   OH253917   3.059   5.916  16.562 -0.0778 -1.0169  0.0026
10809TIP3    H153918   3.088   5.826  16.575  0.5529 -0.8857 -0.4261
10809TIP3    H253919   2.964   5.913  16.569 -0.1396 -1.9075 -1.1366
10810TIP3   OH253920   6.208   3.873  10.922 -0.0684  0.2517 -0.0580
10810TIP3    H153921   6.113   3.885  10.924  0.0802  2.3062 -2.8789
10810TIP3    H253922   6.240   3.924  10.996 -1.1141 -0.4055  0.8824
10811TIP3   OH253923   3.751   4.727   3.448 -0.3952 -0.5437 -0.7178
10811TIP3    H153924   3.735   4.751   3.539  0.8221 -0.2320 -0.5834
10811TIP3    H253925   3.740   4.808   3.398  0.3455 -0.4196 -0.6778
10812TIP3   OH253926   0.622   1.173   3.325 -0.1943  0.2269  0.5157
10812TIP3    H153927   0.596   1.124   3.247 -0.1484 -0.1608  0.7452
10812TIP3    H253928   0.687   1.236   3.293 -1.5376  1.3420 -0.1036
10813TIP3   OH253929   3.087   4.355   4.125  0.1169  0.1506  0.4313
10813TIP3    H153930   3.086   4.286   4.192 -3.4469  0.4368  0.7387
10813TIP3    H253931   2.995   4.375   4.110  0.8944  1.1104 -3.5653
10814TIP3   OH253932   5.294   6.648   4.474 -0.1248 -0.3144 -0.3023
10814TIP3    H153933   5.325   6.733   4.505 -1.5454  0.0684  0.1047
10814TIP3    H253934   5.264   6.665   4.385 -1.4120 -0.1275  0.1485
10815TIP3   OH253935   3.016   3.756  12.688 -0.2339 -0.6460 -0.5552
10815TIP3    H153936   3.107   3.749  12.658 -0.0861  0.7031 -0.4974
10815TIP3    H253937   3.022   3.797  12.774 -0.9029 -0.1851 -0.7151
10816TIP3   OH253938   3.652   6.654   1.208 -0.2819  0.1608  0.4699
10816TIP3    H153939   3.725   6.694   1.255 -0.5610  1.3313 -0.0712
10816TIP3    H253940   3.682   6.566   1.188  1.0444  0.6791  0.1273
10817TIP3   OH253941   6.404   3.490  15.643 -0.0433  0.5147 -0.1402
10817TIP3    H153942   6.358   3.411  15.670 -0.6611  0.8695 -0.1444
10817TIP3    H253943   6.476   3.498  15.705 -1.4685  1.3357  1.4616
10818TIP3   OH253944   4.607   3.926   1.186 -0.7333 -0.0497 -0.1155
10818TIP3    H153945   4.693   3.888   1.202 -0.6603  0.8081  1.6436
10818TIP3    H253946   4.626   4.016   1.158 -1.0728  0.6178  1.7214
10819TIP3   OH253947   0.667   4.738  16.748 -0.0644 -0.1365  0.3200
10819TIP3    H153948   0.648   4.747  16.654 -0.6743 -1.4189  0.3056
10819TIP3    H253949   0.647   4.824  16.785 -2.3872 -0.3666 -0.3128
10820TIP3   OH253950   6.522   4.522   4.093 -0.3300  0.2087 -0.0931
10820TIP3    H153951   6.532   4.443   4.145 -0.8131 -0.9332 -1.7005
10820TIP3    H253952   6.436   4.557   4.119 -1.1434 -1.0471 -0.9996
10821TIP3   OH253953   3.758   4.713  15.156  0.1937 -0.0574 -0.1290
10821TIP3    H153954   3.833   4.656  15.171  0.7910  0.9995  0.9482
10821TIP3    H253955   3.720   4.727  15.243  0.5547  1.8665 -0.2667
10822TIP3   OH253956   4.570   3.628  15.306 -0.3282  0.2505 -0.0917
10822TIP3    H153957   4.590   3.716  15.276  1.4750  0.4515  1.5704
10822TIP3    H253958   4.525   3.586  15.232  0.5309  1.9327 -1.5874
10823TIP3   OH253959   3.174   0.844   1.535 -0.4908  0.0284 -0.1698
10823TIP3    H153960   3.114   0.916   1.516 -1.8704 -0.9088  0.4956
10823TIP3    H253961   3.150   0.817   1.624  1.8542  0.5176  0.6532
10824TIP3   OH253962   5.214   5.857   4.912  0.7616  0.2860 -0.2182
10824TIP3    H153963   5.265   5.879   4.990  2.1256 -2.0664 -0.4085
10824TIP3    H253964   5.235   5.926   4.849  0.1917  1.8127  1.2306
10825TIP3   OH253965   2.414   3.861   4.219  0.4183 -0.3912 -0.5326
10825TIP3    H153966   2.342   3.801   4.203  0.1585 -0.0818 -0.5077
10825TIP3    H253967   2.376   3.948   4.212  0.9992 -0.2072 -1.5333
10826TIP3   OH253968   5.346   1.890  15.828 -0.6706  0.5318 -0.6320
10826TIP3    H153969   5.268   1.945  15.835  0.3661  2.0766 -1.0714
10826TIP3    H253970   5.363   1.885  15.734 -0.6667 -0.4432 -0.5930
10827TIP3   OH253971   1.293   0.520  11.504  0.3091 -0.0498  0.7185
10827TIP3    H153972   1.301   0.535  11.410  1.1160 -1.3302  0.5729
10827TIP3    H253973   1.284   0.608  11.541  0.7469  0.5157 -0.4793
10828TIP3   OH253974   0.737   3.689   0.288 -0.4608  0.1925 -0.0979
10828TIP3    H153975   0.707   3.683   0.379  0.3598  2.5817  0.3724
10828TIP3    H253976   0.693   3.617   0.243 -2.0682 -0.0958  1.8666
10829TIP3   OH253977   4.984   2.932   0.812 -0.2419 -0.3995 -0.4152
10829TIP3    H153978   5.052   2.990   0.848 -0.0779 -0.2423 -0.9735
10829TIP3    H253979   4.909   2.944   0.870  1.0292 -2.5232  1.7634
10830TIP3   OH253980   5.975   1.707   0.890  0.6016  0.4439 -0.0172
10830TIP3    H153981   5.892   1.730   0.847  0.1379  1.1499  1.2526
10830TIP3    H253982   6.012   1.790   0.917  1.3376  0.0620  0.1445
10831TIP3   OH253983   2.609   4.050   5.483 -0.6437 -0.0793  0.1321
10831TIP3    H153984   2.565   4.106   5.547 -1.0813  0.7105 -0.8473
10831TIP3    H253985   2.550   3.975   5.473  0.2233 -1.0183  1.8801
10832TIP3   OH253986   5.591   1.487   0.024  0.3946  0.2602 -0.6054
10832TIP3    H153987   5.544   1.471   0.106  1.0243 -0.8110 -0.4536
10832TIP3    H253988   5.527   1.467  -0.045 -0.5575  2.4036 -0.3986
10833TIP3   OH253989   5.056   0.779  10.767 -0.0890 -0.1121 -0.2230
10833TIP3    H153990   5.072   0.700  10.817  0.5867  1.5320  2.2440
10833TIP3    H253991   4.970   0.809  10.796 -0.3091  0.0984 -1.0839
10834TIP3   OH253992   3.283   0.630   1.755  0.5184 -0.2722  0.4074
10834TIP3    H153993   3.295   0.620   1.849  2.0252  0.7908  0.3478
10834TIP3    H253994   3.369   0.616   1.718 -0.1312 -1.0050 -0.8509
10835TIP3   OH253995   5.948   6.284  11.838 -0.2655  0.4737 -0.1711
10835TIP3    H153996   5.929   6.338  11.915  2.5347 -0.0810  0.9542
10835TIP3    H253997   6.008   6.338  11.785 -0.2921 -0.1110 -0.8064
10836TIP3   OH253998   3.279   3.632  15.257 -0.0594 -0.1395  0.1553
10836TIP3    H153999   3.255   3.643  15.348 -2.0129  2.4869 -0.6109
10836TIP3    H254000   3.360   3.683  15.247  1.4831 -2.3781  0.9153
10837TIP3   OH254001   2.009   6.747  11.499 -0.2381  0.2354  0.0748
10837TIP3    H154002   2.070   6.675  11.482  0.5010  0.8084  0.2620
10837TIP3    H254003   2.047   6.822  11.453 -1.2228  0.4090 -0.4699
10838TIP3   OH254004   0.782   5.320  15.677 -0.2518 -0.0266  0.6550
10838TIP3    H154005   0.692   5.351  15.689 -0.1250  0.2496  0.8970
10838TIP3    H254006   0.822   5.329  15.764 -0.3044 -1.1531  0.8051
10839TIP3   OH254007   4.023   6.036  16.357  0.3859 -0.4295  0.0979
10839TIP3    H154008   3.942   6.063  16.400  0.2213  0.7517 -0.9225
10839TIP3    H254009   3.995   5.991  16.278  0.7283  0.6309 -0.6373
10840TIP3   OH254010   1.302   2.179   2.297 -0.1099 -0.1197 -0.0882
10840TIP3    H154011   1.355   2.102   2.316 -0.4810 -0.7157 -1.4030
10840TIP3    H254012   1.360   2.253   2.315  0.4421 -0.7067  0.5900
10841TIP3   OH254013   3.813   3.557  14.143 -0.1516  0.1902  0.5333
10841TIP3    H154014   3.897   3.563  14.189 -0.4418 -0.2915  1.1215
10841TIP3    H254015   3.760   3.497  14.195 -1.3935  1.6349  0.9743
10842TIP3   OH254016   0.653   5.694  13.291 -0.0926  0.0311  0.3673
10842TIP3    H154017   0.593   5.621  13.275 -0.0357  0.2791 -1.0635
10842TIP3    H254018   0.608   5.771  13.256 -0.4317  0.7973  2.4617
10843TIP3   OH254019   4.166   2.475   3.755 -0.4621  0.3399 -0.1162
10843TIP3    H154020   4.152   2.569   3.745 -0.7316  0.2194 -0.9094
10843TIP3    H254021   4.189   2.464   3.847 -3.9175  0.7484  0.8771
10844TIP3   OH254022   6.296   0.466  12.039 -0.0911  0.0094 -0.2503
10844TIP3    H154023   6.217   0.503  12.076  1.1889  1.6533  0.9054
10844TIP3    H254024   6.320   0.394  12.098 -0.7306 -0.5037 -0.6149
10845TIP3   OH254025   1.489   3.517   4.293  0.0173 -0.3908 -0.3034
10845TIP3    H154026   1.448   3.542   4.376 -1.8398 -0.7227 -1.1056
10845TIP3    H254027   1.579   3.496   4.317 -0.1412  0.7454  1.4251
10846TIP3   OH254028   4.204   0.994   5.094 -0.2142  0.0637  0.0713
10846TIP3    H154029   4.161   1.079   5.100 -1.6474 -0.4329 -2.4553
10846TIP3    H254030   4.161   0.951   5.021  2.4884 -1.6964 -0.5414
10847TIP3   OH254031   2.005   6.248   2.723 -0.5078 -0.2223 -0.5637
10847TIP3    H154032   1.967   6.162   2.706  2.5768 -1.3239 -2.3253
10847TIP3    H254033   1.987   6.298   2.643 -1.9612  0.6710  0.3075
10848TIP3   OH254034   0.106   5.580  15.620  0.0279  0.0371  0.0388
10848TIP3    H154035   0.059   5.638  15.680 -0.5405  0.0458 -0.4129
10848TIP3    H254036   0.140   5.510  15.676  0.4256  0.6263  0.5322
10849TIP3   OH254037   0.991   4.453   0.821 -0.0916  0.0169  0.3339
10849TIP3    H154038   1.036   4.376   0.857  0.8448  0.4532  0.1039
10849TIP3    H254039   1.043   4.528   0.851  0.2017  0.4337 -1.1690
10850TIP3   OH254040   4.314   1.803  14.113  0.1648 -0.8322  0.0041
10850TIP3    H154041   4.250   1.822  14.045  1.4693  1.1439 -0.7061
10850TIP3    H254042   4.263   1.760  14.182 -1.3037 -2.1691 -1.8668
10851TIP3   OH254043   6.240   6.048  14.254 -0.2599  0.1061  0.0913
10851TIP3    H154044   6.179   5.974  14.259 -0.7655  0.2828 -2.7304
10851TIP3    H254045   6.260   6.068  14.346 -0.5244 -3.1677  0.9325
10852TIP3   OH254046   1.215   1.512  11.661  0.2547 -0.1707 -0.1874
10852TIP3    H154047   1.249   1.583  11.715  0.8516  0.2458 -1.0870
10852TIP3    H254048   1.176   1.451  11.723  0.0593  0.7657  0.6282
10853TIP3   OH254049   6.427   6.353   5.768  0.1951  0.7881  0.0384
10853TIP3    H154050   6.500   6.361   5.829  1.6882 -1.7568 -1.3294
10853TIP3    H254051   6.405   6.260   5.769 -3.4753  1.6005  0.8970
10854TIP3   OH254052   1.748   4.505   2.116  0.9630  0.2766 -0.0664
10854TIP3    H154053   1.838   4.537   2.120  0.9783  0.3153 -0.6674
10854TIP3    H254054   1.714   4.537   2.033 -0.1108  1.5363  0.8363
10855TIP3   OH254055   0.358   4.499   5.207 -0.3133  0.2891 -0.8061
10855TIP3    H154056   0.396   4.415   5.181  1.0050  0.0119  1.8567
10855TIP3    H254057   0.273   4.476   5.244  0.9753 -0.2034  2.0087
10856TIP3   OH254058   1.506   6.340   3.924 -0.1053  0.2327 -0.0379
10856TIP3    H154059   1.526   6.330   4.017  0.4802  2.0395  0.0527
10856TIP3    H254060   1.422   6.296   3.912  0.1578 -0.6295  1.1908
10857TIP3   OH254061   2.421   4.824   5.734 -0.2499  0.3458 -0.0917
10857TIP3    H154062   2.488   4.854   5.796  1.8957  0.3659 -2.3616
10857TIP3    H254063   2.429   4.729   5.735  1.4109  0.4360 -2.0371
10858TIP3   OH254064   0.417   4.888  12.791 -0.0228 -0.0209  0.0804
10858TIP3    H154065   0.376   4.804  12.813 -0.2658  0.2883  0.8084
10858TIP3    H254066   0.411   4.940  12.871 -2.2080  1.6092 -1.0806
10859TIP3   OH254067   5.751   6.636   5.096  0.6397 -0.1100  0.0298
10859TIP3    H154068   5.757   6.540   5.095  1.9590 -0.0373 -1.2367
10859TIP3    H254069   5.672   6.655   5.146  0.1502 -1.8746 -0.0523
10860TIP3   OH254070   4.467   6.071  15.392 -0.0750 -0.1496 -0.0226
10860TIP3    H154071   4.477   6.114  15.307  0.9242  1.3496  0.8297
10860TIP3    H254072   4.520   5.991  15.384 -0.3064 -0.2212 -0.9352
10861TIP3   OH254073   5.608   2.687  16.880  0.1954 -0.0796  0.1050
10861TIP3    H154074   5.679   2.628  16.906 -0.2559 -0.7309 -0.1244
10861TIP3    H254075   5.573   2.647  16.800 -0.2716  0.3711  0.0880
10862TIP3   OH254076   2.424   2.844  15.507  0.6894 -0.3970  0.0160
10862TIP3    H154077   2.371   2.911  15.550 -0.8426 -0.8091 -1.1672
10862TIP3    H254078   2.499   2.831  15.565 -0.2385  0.5905  1.4600
10863TIP3   OH254079   5.698   6.055  10.325 -0.2012 -0.4295  0.2385
10863TIP3    H154080   5.661   6.047  10.413  0.5644 -1.2389  0.4944
10863TIP3    H254081   5.772   6.115  10.335  1.6031 -2.6493  0.7192
10864TIP3   OH254082   1.924   4.048   6.909  0.8225 -0.3847  0.0623
10864TIP3    H154083   1.974   4.044   6.991 -0.1240 -2.3730  0.5905
10864TIP3    H254084   1.849   4.104   6.929  1.1113 -0.0722  0.2672
10865TIP3   OH254085   0.755   2.340   4.755 -0.7405 -0.0029 -0.4182
10865TIP3    H154086   0.839   2.386   4.760 -0.3852 -0.6419 -0.4595
10865TIP3    H254087   0.695   2.403   4.715 -0.5981  0.9079  0.7761
10866TIP3   OH254088   6.134   3.185  14.411  0.6597 -0.5317  0.4044
10866TIP3    H154089   6.193   3.169  14.484 -2.1052 -1.7813  2.4463
10866TIP3    H254090   6.074   3.252  14.442  1.5233  1.4508 -2.0080
10867TIP3   OH254091   1.964   5.616  16.029 -0.1638 -0.3570 -0.1945
10867TIP3    H154092   1.948   5.554  16.100  0.7802  0.5319  0.8145
10867TIP3    H254093   1.974   5.562  15.951 -0.1073 -1.4139  0.5362
10868TIP3   OH254094   4.318   1.375   3.740  0.6758  0.3168 -0.0704
10868TIP3    H154095   4.245   1.370   3.678  0.1811 -2.4439  0.6371
10868TIP3    H254096   4.343   1.467   3.741  0.1975  0.5738 -3.7568
10869TIP3   OH254097   0.184   3.286  11.549  1.0645  0.3806 -0.0855
10869TIP3    H154098   0.262   3.309  11.499  1.4990  1.8877  1.2498
10869TIP3    H254099   0.122   3.357  11.532  0.3216 -0.3424 -0.4136
10870TIP3   OH254100   0.681   1.092   1.492  0.0490  1.2635  0.2092
10870TIP3    H154101   0.763   1.046   1.472  0.5407  2.0646  0.3390
10870TIP3    H254102   0.615   1.023   1.497  0.8849  0.4998  1.0314
10871TIP3   OH254103   4.645   0.557  13.354 -0.7619 -0.7759 -0.4016
10871TIP3    H154104   4.633   0.463  13.344  2.3113 -1.2214 -0.5316
10871TIP3    H254105   4.641   0.572  13.449  1.0863 -1.4367 -0.2002
10872TIP3   OH254106   5.530   6.069   2.555 -0.2874  0.5719 -0.4813
10872TIP3    H154107   5.501   6.154   2.587 -2.2821 -0.7595  1.3899
10872TIP3    H254108   5.588   6.036   2.623  0.2819  0.3243 -1.0817
10873TIP3   OH254109   6.697   5.499  16.141 -0.0590 -0.5477  0.3376
10873TIP3    H154110   6.611   5.460  16.127 -0.1912 -0.0916 -0.1412
10873TIP3    H254111   6.689   5.547  16.224 -0.7020  0.6928 -0.4298
10874TIP3   OH254112   2.941   6.055   5.633 -0.1698 -0.0556  0.2962
10874TIP3    H154113   2.896   6.123   5.583 -0.7791 -1.2473 -0.8233
10874TIP3    H254114   3.000   6.103   5.691 -0.7777  1.4311 -0.2746
10875TIP3   OH254115   2.950   5.836   0.588  0.3874  0.4508  0.0275
10875TIP3    H154116   2.889   5.789   0.531  1.3495  0.6037 -1.1607
10875TIP3    H254117   2.901   5.850   0.669 -1.3100  0.9692 -1.0557
10876TIP3   OH254118   4.936   0.895   4.765  0.1963 -0.5261  0.0397
10876TIP3    H154119   4.923   0.816   4.816  0.4903 -1.2640 -1.0010
10876TIP3    H254120   5.015   0.878   4.714  1.0987  1.0162  0.8926
10877TIP3   OH254121   0.368   6.814   5.262  0.1520 -0.5096  0.3952
10877TIP3    H154122   0.406   6.726   5.270 -0.3943 -0.7894 -0.1015
10877TIP3    H254123   0.274   6.799   5.251  0.2510  0.0690 -1.3945
10878TIP3   OH254124   3.704   2.366   6.119  0.0079 -0.0379 -0.3139
10878TIP3    H154125   3.612   2.346   6.137  0.2471 -0.5179  0.3965
10878TIP3    H254126   3.738   2.399   6.203  0.1197  1.5274 -0.9513
10879TIP3   OH254127   0.851   0.001   3.477  0.0004  0.0440 -0.5747
10879TIP3    H154128   0.892  -0.077   3.516  1.9400  0.8713 -0.8838
10879TIP3    H254129   0.809  -0.031   3.398 -0.5741 -0.9609  0.1247
10880TIP3   OH254130   1.461   3.916  12.425 -0.6882  0.3799 -0.9124
10880TIP3    H154131   1.488   3.998  12.383 -0.6684  0.8868  0.0808
10880TIP3    H254132   1.465   3.934  12.519  0.3224 -1.0880 -0.6504
10881TIP3   OH254133   4.654   4.531  12.972  0.7550 -0.2794 -0.0477
10881TIP3    H154134   4.595   4.591  12.926 -0.2615 -1.5895 -0.4894
10881TIP3    H254135   4.721   4.509  12.906  0.2678 -0.8167 -0.3643
10882TIP3   OH254136   6.486   2.676   4.191  0.0854  0.2116 -0.2207
10882TIP3    H154137   6.534   2.692   4.272  0.2282  0.2639 -0.3164
10882TIP3    H254138   6.479   2.581   4.185  1.2929  0.1577 -0.8620
10883TIP3   OH254139   0.763   4.999  11.324  0.1732 -0.5993 -0.0922
10883TIP3    H154140   0.851   5.014  11.290  0.0651 -0.0036 -0.1263
10883TIP3    H254141   0.772   5.006  11.419  0.2282 -0.8962 -0.0759
10884TIP3   OH254142   1.366   0.862  12.494  0.0091 -0.0433 -0.5859
10884TIP3    H154143   1.417   0.889  12.417  0.4566  1.1627  0.1068
10884TIP3    H254144   1.275   0.880  12.471  0.4080  3.8833  0.4942
10885TIP3   OH254145   5.454   1.050  14.895  0.3577  0.4440 -0.7241
10885TIP3    H154146   5.470   1.009  14.809 -1.7633 -1.2036 -0.3620
10885TIP3    H254147   5.469   1.143  14.880  2.1638 -0.0696 -2.3524
10886TIP3   OH254148   3.117   2.048  12.866  0.2182 -0.4482 -0.3680
10886TIP3    H154149   3.154   2.061  12.954 -1.2152  1.3891  0.0001
10886TIP3    H254150   3.189   2.068  12.807  1.3719 -2.2691  0.3720
10887TIP3   OH254151   2.399   3.005   3.187  0.2812 -0.3684 -0.1337
10887TIP3    H154152   2.451   3.051   3.253 -0.5147  1.8490 -1.0216
10887TIP3    H254153   2.456   2.934   3.156  1.0696 -0.7667  2.1204
10888TIP3   OH254154   5.190   3.701  17.197  0.0401 -0.6478 -0.1393
10888TIP3    H154155   5.140   3.642  17.252  1.5916  0.4489  2.5778
10888TIP3    H254156   5.200   3.780  17.250  3.3280 -0.3020 -1.1641
10889TIP3   OH254157   4.231   5.254   2.671  0.4095 -0.5013  0.0729
10889TIP3    H154158   4.292   5.233   2.742 -0.2382  0.8578  1.0505
10889TIP3    H254159   4.155   5.198   2.688  1.0208 -1.5964 -0.6822
10890TIP3   OH254160   3.381   4.793  11.108 -0.2324 -0.0367 -0.2783
10890TIP3    H154161   3.398   4.700  11.116  2.8970  0.2013 -2.9870
10890TIP3    H254162   3.285   4.801  11.106 -0.5225 -3.3104 -1.4494
10891TIP3   OH254163   1.559   6.435  11.416  0.6410 -0.5067 -0.7427
10891TIP3    H154164   1.647   6.471  11.416 -0.2840  1.8683 -1.0522
10891TIP3    H254165   1.507   6.497  11.468 -0.3516 -3.2261  1.6957
10892TIP3   OH254166   6.182   5.950  12.961  0.2187 -0.1282 -0.2284
10892TIP3    H154167   6.246   6.014  12.993  0.0835 -0.2041  0.1897
10892TIP3    H254168   6.098   5.984  12.990  0.4116 -2.4268  3.3022
10893TIP3   OH254169   6.001   2.690  14.002  0.4830  0.2948 -0.7387
10893TIP3    H154170   6.046   2.687  14.086 -0.4598  0.5902 -0.2231
10893TIP3    H254171   6.010   2.601  13.967  0.1292 -0.0566  0.0653
10894TIP3   OH254172   2.397   0.227   0.449  0.1736 -0.0166 -0.8373
10894TIP3    H154173   2.477   0.183   0.480  0.1820 -0.9601 -2.1593
10894TIP3    H254174   2.366   0.276   0.525  1.5839 -0.2681 -0.0783
10895TIP3   OH254175   2.950   5.546   3.743  0.7836 -0.1063 -0.1242
10895TIP3    H154176   2.905   5.461   3.741  0.0729  0.2572  0.0072
10895TIP3    H254177   2.984   5.553   3.832 -0.5372  0.4328  0.3629
10896TIP3   OH254178   1.252   3.072  12.185  0.3553  0.6082 -0.2428
10896TIP3    H154179   1.195   3.105  12.115 -0.1836 -1.7010 -0.9575
10896TIP3    H254180   1.329   3.129  12.183 -0.5581  1.8226 -1.3738
10897TIP3   OH254181   6.160   1.993  15.970  0.2758 -0.3653  0.1905
10897TIP3    H154182   6.192   1.991  16.060 -1.9888  0.0823  1.0209
10897TIP3    H254183   6.240   1.997  15.917  1.5844  1.4887  2.2143
10898TIP3   OH254184   5.888   4.240  15.904  0.8518  0.1646  0.2162
10898TIP3    H154185   5.971   4.194  15.918  0.9241  0.7598  1.8115
10898TIP3    H254186   5.909   4.308  15.840  1.2781 -0.5496 -0.4116
10899TIP3   OH254187   2.077   0.635   0.150 -0.5717  0.3679  0.8118
10899TIP3    H154188   2.091   0.698   0.220  0.7638  0.3126  0.5961
10899TIP3    H254189   2.155   0.579   0.151 -0.3896  0.5629 -0.9311
10900TIP3   OH254190   5.296   4.092  16.302  0.2973  0.6209  0.1422
10900TIP3    H154191   5.362   4.157  16.276  0.1597  0.3779 -0.8318
10900TIP3    H254192   5.331   4.009  16.270 -0.5617  0.5139 -0.5084
10901TIP3   OH254193   2.495   5.449   5.333 -0.1951 -0.4201 -0.3475
10901TIP3    H154194   2.576   5.452   5.385 -1.8482  1.0521  2.2765
10901TIP3    H254195   2.485   5.537   5.298 -2.4368  0.4384  2.2787
10902TIP3   OH254196   2.399   0.991  15.208 -0.7245 -0.6038 -0.1528
10902TIP3    H154197   2.397   0.895  15.212 -0.1152 -0.5529  1.3424
10902TIP3    H254198   2.406   1.019  15.299 -0.2635  0.8582 -0.6324
10903TIP3   OH254199   5.747   5.781  10.958 -0.4378  0.2511 -0.1321
10903TIP3    H154200   5.730   5.847  10.890 -1.3708  1.0137  0.8160
10903TIP3    H254201   5.713   5.700  10.922 -1.0413  0.6774 -0.5381
10904TIP3   OH254202   0.822   0.974  15.859  0.0878 -0.0438  0.5405
10904TIP3    H154203   0.803   1.061  15.894 -1.3317 -0.1037 -0.0271
10904TIP3    H254204   0.840   0.990  15.766 -0.9604 -0.4171  0.2541
10905TIP3   OH254205   4.304   6.285  13.066 -0.0366  0.9634 -0.6783
10905TIP3    H154206   4.344   6.236  12.994 -1.6996 -0.3729 -0.7235
10905TIP3    H254207   4.222   6.238  13.084 -0.6109  2.4767  0.7297
10906TIP3   OH254208   2.814   4.676   1.706 -0.1393 -0.6018  0.2225
10906TIP3    H154209   2.800   4.770   1.690 -1.6212 -0.6805  0.9587
10906TIP3    H254210   2.908   4.669   1.722 -0.0844  0.8384  0.6559
10907TIP3   OH254211   3.813   0.753  12.278  0.0860  0.2540 -0.1660
10907TIP3    H154212   3.871   0.792  12.343  1.3606  0.3905 -1.3562
10907TIP3    H254213   3.725   0.771  12.310  0.6779  2.1016  0.4878
10908TIP3   OH254214   5.299   0.798  17.059  0.3765 -0.3366 -0.3611
10908TIP3    H154215   5.359   0.751  17.000  1.1363 -1.1314  1.0169
10908TIP3    H254216   5.355   0.861  17.104 -0.6954  2.1495 -2.4080
10909TIP3   OH254217   5.519   2.220   0.845 -0.2434  0.3345  0.3475
10909TIP3    H154218   5.464   2.235   0.922 -0.8387 -1.8427  0.3918
10909TIP3    H254219   5.608   2.214   0.880 -0.3883  0.3746  0.7277
10910TIP3   OH254220   1.202   3.725   5.450 -0.1641  0.2701 -0.2957
10910TIP3    H154221   1.187   3.729   5.544  0.1821  0.7474 -0.2589
10910TIP3    H254222   1.144   3.655   5.419  1.3273 -1.3931  0.5981
10911TIP3   OH254223   4.178   5.156   1.881  0.1157  0.1584  0.2558
10911TIP3    H154224   4.131   5.108   1.949  0.6862 -1.5416 -0.5102
10911TIP3    H254225   4.271   5.145   1.903  0.3004 -0.2618 -0.6715
10912TIP3   OH254226   3.492   2.223   0.315  0.1571 -0.8089 -0.0887
10912TIP3    H154227   3.450   2.304   0.287  1.1501 -1.1002 -2.4924
10912TIP3    H254228   3.560   2.251   0.377 -0.8418 -0.0088  0.6760
10913TIP3   OH254229   2.500   2.768   1.602 -0.7012  0.3600  0.4270
10913TIP3    H154230   2.458   2.842   1.559  0.3970  0.1719 -1.0148
10913TIP3    H254231   2.587   2.763   1.563 -0.9483 -2.0398  0.0569
10914TIP3   OH254232   1.628   4.896  11.301  0.0379  0.9636  0.4098
10914TIP3    H154233   1.677   4.966  11.344 -0.2025  1.2184  0.2680
10914TIP3    H254234   1.614   4.929  11.212  0.9089  0.2608 -0.0008
10915TIP3   OH254235   3.121   1.967   0.808  0.3022  0.3456 -0.0459
10915TIP3    H154236   3.166   1.894   0.766  1.6605  1.8213 -1.2470
10915TIP3    H254237   3.037   1.973   0.764  0.2443 -0.4035 -0.0389
10916TIP3   OH254238   5.810   6.336   3.387  0.0807  0.7589 -0.1042
10916TIP3    H154239   5.788   6.264   3.446  1.8347 -0.6488 -1.1176
10916TIP3    H254240   5.749   6.325   3.314 -1.4514  1.9343  0.9687
10917TIP3   OH254241   6.208   4.248  13.613  0.0628 -0.4819  0.3879
10917TIP3    H154242   6.247   4.235  13.527 -0.6176 -0.7752  0.1174
10917TIP3    H254243   6.220   4.164  13.658 -0.3052 -0.5982  0.2769
10918TIP3   OH254244   6.803   0.570  14.415  0.1657  0.2077  0.6529
10918TIP3    H154245   6.800   0.578  14.320 -1.6544  1.3915  0.7822
10918TIP3    H254246   6.892   0.596  14.439 -0.0587  2.1722 -0.5441
10919TIP3   OH254247   5.988   2.842   2.672  0.0224  0.0776 -0.9310
10919TIP3    H154248   5.938   2.766   2.701  1.3385 -0.6247 -0.4594
10919TIP3    H254249   5.923   2.912   2.664 -1.1084 -0.9458 -0.8257
10920TIP3   OH254250   3.149   1.551  15.505 -0.3351  0.5364  0.4396
10920TIP3    H154251   3.201   1.494  15.563  0.0518  1.2110  0.7564
10920TIP3    H254252   3.080   1.493  15.471  0.4337 -0.2963  0.2581
10921TIP3   OH254253   6.659   2.031  14.726 -0.1160 -0.2720  0.0929
10921TIP3    H154254   6.639   1.943  14.693  1.0051  0.2109 -1.9219
10921TIP3    H254255   6.752   2.027  14.750 -0.1199  0.2845  0.2111
10922TIP3   OH254256   1.741   1.292   5.051 -0.5564 -0.3948 -0.5919
10922TIP3    H154257   1.652   1.260   5.069 -0.4527 -0.6820 -0.5823
10922TIP3    H254258   1.780   1.224   4.996  0.1457 -0.9666  0.5922
10923TIP3   OH254259   3.000   4.706  16.903 -0.5435  0.4322 -0.3421
10923TIP3    H154260   3.068   4.772  16.917  0.9204 -1.1494  0.1391
10923TIP3    H254261   2.928   4.734  16.959  0.6716  0.7667  1.0912
10924TIP3   OH254262   5.263   6.712  17.117  0.3819  0.0935  0.0783
10924TIP3    H154263   5.279   6.806  17.116  0.0570  0.1326 -1.7528
10924TIP3    H254264   5.206   6.696  17.042  1.5159 -1.7408 -0.4254
10925TIP3   OH254265   5.981   3.063  16.559  0.0092 -0.7266  0.2180
10925TIP3    H154266   5.959   2.970  16.571  0.4372 -0.6365  1.8394
10925TIP3    H254267   6.067   3.062  16.518  0.6239 -1.0404  1.5138
10926TIP3   OH254268   5.874   6.111   4.276 -0.2168  0.7453 -0.8407
10926TIP3    H154269   5.921   6.085   4.197 -0.7347  1.2523 -1.3197
10926TIP3    H254270   5.790   6.068   4.269  0.1964 -0.2183  0.0549
10927TIP3   OH254271   5.980   0.726   3.760 -0.3894  0.6132 -0.0268
10927TIP3    H154272   6.030   0.719   3.842 -0.9546  0.7657  0.3345
10927TIP3    H254273   5.992   0.640   3.719  2.4259  1.5450 -1.2841
10928TIP3   OH254274   0.764   6.049  14.877 -0.3306  0.2512  0.3028
10928TIP3    H154275   0.850   6.045  14.836 -0.5310  1.4912 -0.2591
10928TIP3    H254276   0.722   6.125  14.837 -0.6376  1.3306  2.5666
10929TIP3   OH254277   4.326   1.252  13.639  0.1412  0.0116  0.6812
10929TIP3    H154278   4.335   1.205  13.722  1.1470 -1.3443 -0.1872
10929TIP3    H254279   4.410   1.241  13.596  0.6985  3.3628  0.8230
10930TIP3   OH254280   2.172   2.745   1.577  0.3365  0.7849  1.0302
10930TIP3    H154281   2.077   2.739   1.580  0.4600 -1.1554  2.0345
10930TIP3    H254282   2.191   2.795   1.498 -1.4980  0.8695  0.6345
10931TIP3   OH254283   3.286   3.770   1.061  0.0296 -0.3276 -0.2617
10931TIP3    H154284   3.337   3.811   1.130 -0.1972  0.2498 -0.4384
10931TIP3    H254285   3.238   3.842   1.020  1.7251 -0.3687 -2.3733
10932TIP3   OH254286   6.297   2.689   4.866  0.6168 -0.9708  0.2940
10932TIP3    H154287   6.337   2.637   4.797 -0.9947 -0.8145 -0.7684
10932TIP3    H254288   6.270   2.626   4.932 -2.6409 -1.7153 -1.6296
10933TIP3   OH254289   4.501   2.087  15.210  0.0141  0.1737 -0.3013
10933TIP3    H154290   4.444   2.010  15.211  1.1827 -0.7135 -0.5810
10933TIP3    H254291   4.507   2.113  15.302 -2.0666  1.2210 -0.4331
10934TIP3   OH254292   5.224   1.842   3.690 -0.8481 -0.4242  0.4435
10934TIP3    H154293   5.222   1.938   3.692 -0.0312 -0.4195  1.1609
10934TIP3    H254294   5.277   1.817   3.766  0.6889 -1.3757 -0.9012
10935TIP3   OH254295   2.023   2.474   2.706  0.3196 -0.2122  0.3232
10935TIP3    H154296   2.000   2.537   2.638  2.2725 -0.2768 -0.4417
10935TIP3    H254297   1.939   2.448   2.744 -0.6683  1.1969 -0.8182
10936TIP3   OH254298   6.597   1.155  13.926 -0.4141 -0.1210  0.5301
10936TIP3    H154299   6.605   1.128  13.834  0.8148  2.5794 -0.2036
10936TIP3    H254300   6.511   1.196  13.931 -1.0965 -1.5979  0.9497
10937TIP3   OH254301   3.240   0.846   1.159  0.1193 -0.8098  0.1706
10937TIP3    H154302   3.325   0.870   1.195  0.2754 -1.8426  0.4968
10937TIP3    H254303   3.256   0.834   1.066  0.0253  0.3714 -0.0172
10938TIP3   OH254304   5.071   4.726  10.965 -0.1784 -0.4287 -0.4123
10938TIP3    H154305   5.163   4.750  10.977 -0.7497  1.1974  0.9269
10938TIP3    H254306   5.047   4.679  11.045 -0.1346 -2.1796 -1.3926
10939TIP3   OH254307   5.154   0.375  14.328 -0.1943  0.5362  0.2379
10939TIP3    H154308   5.198   0.293  14.307 -0.3473  0.3822  0.5090
10939TIP3    H254309   5.061   0.356  14.314 -0.2893  0.4677  0.9143
10940TIP3   OH254310   2.833   5.926   1.848 -0.1001  0.3667  0.5402
10940TIP3    H154311   2.835   5.892   1.759 -0.9911  3.1657 -0.5770
10940TIP3    H254312   2.921   5.908   1.882  0.5288  0.0562 -1.1883
10941TIP3   OH254313   3.835   4.924   4.501  0.3787  0.1487 -0.5015
10941TIP3    H154314   3.861   4.927   4.409  0.1621 -2.0894 -0.6581
10941TIP3    H254315   3.842   5.015   4.531  0.0399  0.9662 -2.8305
10942TIP3   OH254316   3.737   0.508  13.424 -0.4737  0.0850 -0.3521
10942TIP3    H154317   3.740   0.549  13.510 -1.1459 -1.4509  0.4231
10942TIP3    H254318   3.827   0.508  13.394  0.1560 -1.6686  1.4690
10943TIP3   OH254319   1.565   2.765   0.836 -0.2544  0.3325  0.1928
10943TIP3    H154320   1.571   2.715   0.755  1.4027 -0.0054  0.5017
10943TIP3    H254321   1.656   2.778   0.863 -0.7546  1.2220  1.5235
10944TIP3   OH254322   1.701   4.917   5.273 -0.7780 -0.3007  0.3540
10944TIP3    H154323   1.613   4.889   5.299 -0.3243 -0.7535  1.4056
10944TIP3    H254324   1.715   4.876   5.188 -2.9694  2.6143 -1.5052
10945TIP3   OH254325   0.815   3.274  12.159  0.3144 -0.6041  1.1109
10945TIP3    H154326   0.898   3.242  12.194  1.4457  1.2131  0.1972
10945TIP3    H254327   0.820   3.255  12.065 -0.8787 -1.6570  1.2468
10946TIP3   OH254328   0.890   5.796   2.047  0.4451  0.0397  0.3734
10946TIP3    H154329   0.805   5.812   2.005  1.0643  2.3509 -0.0623
10946TIP3    H254330   0.949   5.775   1.975  0.7745  0.7753  0.4285
10947TIP3   OH254331   4.476   4.820  16.297 -0.0128 -0.2554 -0.1569
10947TIP3    H154332   4.418   4.858  16.230 -0.6447  0.4465  0.7715
10947TIP3    H254333   4.418   4.767  16.352  0.7426 -1.9775 -0.9888
10948TIP3   OH254334   2.083   4.188   0.252  0.5918 -0.0843 -0.1870
10948TIP3    H154335   2.015   4.121   0.247  1.3801 -0.9696  0.9329
10948TIP3    H254336   2.047   4.254   0.311 -0.3094  0.6577 -1.5214
10949TIP3   OH254337   3.965   4.838   5.485 -0.0197  0.1813 -0.8850
10949TIP3    H154338   3.944   4.745   5.477  1.3014 -0.0733 -1.3624
10949TIP3    H254339   3.912   4.880   5.418 -3.5779  0.2638  1.8004
10950TIP3   OH254340   5.836   2.404  14.393  0.1126  0.3083  0.0794
10950TIP3    H154341   5.793   2.478  14.350  2.9038  0.9402 -1.7671
10950TIP3    H254342   5.791   2.326  14.358  0.0441  0.9762 -1.3693
10951TIP3   OH254343   3.335   4.464  14.713 -0.7589  0.7715  0.3745
10951TIP3    H154344   3.360   4.407  14.785  1.3645 -0.5064 -1.3014
10951TIP3    H254345   3.250   4.430  14.684 -0.5355 -0.1679  0.8070
10952TIP3   OH254346   6.712   1.722   0.209  0.4196  0.3520  0.2326
10952TIP3    H154347   6.652   1.657   0.245 -0.6403  1.5399  0.6503
10952TIP3    H254348   6.671   1.750   0.127  1.2731 -0.0691 -0.3525
10953TIP3   OH254349   4.095   0.265   1.364 -0.0650 -0.5008 -0.0142
10953TIP3    H154350   4.088   0.171   1.346 -1.3028 -0.0888 -1.7765
10953TIP3    H254351   4.108   0.305   1.278 -0.8245  1.0565  0.5772
10954TIP3   OH254352   1.613   1.766   4.087 -0.3134 -0.5118 -0.5687
10954TIP3    H154353   1.668   1.843   4.100 -0.1883 -0.4131 -1.6244
10954TIP3    H254354   1.629   1.711   4.164 -0.5024  0.5692  0.2534
10955TIP3   OH254355   1.220   3.248  16.386 -0.4760  0.2473  0.3494
10955TIP3    H154356   1.267   3.180  16.434  0.1437  1.1746  1.0778
10955TIP3    H254357   1.219   3.218  16.295  1.5567  0.2280  0.3175
10956TIP3   OH254358   6.634   6.135  14.475  0.2604  0.1459 -0.1558
10956TIP3    H154359   6.584   6.110  14.553  0.9170 -0.6937 -0.0017
10956TIP3    H254360   6.644   6.053  14.426  2.0079  0.1996  0.1096
10957TIP3   OH254361   3.696   2.566   3.415  0.3890  0.0096 -0.0878
10957TIP3    H154362   3.788   2.577   3.441 -0.2350  0.5947  1.9164
10957TIP3    H254363   3.649   2.633   3.464 -1.3401 -1.3654  0.1948
10958TIP3   OH254364   0.959   4.715  14.571  0.2096 -0.6932  0.5428
10958TIP3    H154365   0.882   4.660  14.585 -0.2766 -0.0220  0.4649
10958TIP3    H254366   0.962   4.728  14.476 -0.2247  0.2251  0.6577
10959TIP3   OH254367   0.644   5.955   1.562 -0.5769 -0.5563 -0.0634
10959TIP3    H154368   0.658   6.040   1.602 -0.3918 -0.1315 -1.0135
10959TIP3    H254369   0.617   5.975   1.472  2.5250 -1.5348 -1.2741
10960TIP3   OH254370   0.771   1.891   0.285 -0.1137  0.2201 -0.2740
10960TIP3    H154371   0.761   1.983   0.261 -0.2634  0.3149  0.1410
10960TIP3    H254372   0.724   1.843   0.217 -0.4359  0.4762 -0.2355
10961TIP3   OH254373   0.515   5.873  16.493 -0.3070 -0.2175 -0.6245
10961TIP3    H154374   0.580   5.919  16.440 -0.8021 -0.6364 -1.6019
10961TIP3    H254375   0.536   5.898  16.583 -0.0531  1.2593 -1.0733
10962TIP3   OH254376   2.724   0.964   4.111 -0.3803 -0.5422  0.3337
10962TIP3    H154377   2.798   1.010   4.151 -0.9755  1.7290 -1.1018
10962TIP3    H254378   2.753   0.944   4.023 -1.8098  1.2719 -0.5811
10963TIP3   OH254379   3.884   4.032  14.837 -0.0456  0.4933 -0.4268
10963TIP3    H154380   3.915   4.037  14.747 -0.7193  0.0525 -0.6816
10963TIP3    H254381   3.956   3.991  14.885 -0.4157 -0.9739 -1.1098
10964TIP3   OH254382   0.696   6.667   0.572 -0.1202  0.5123  0.7070
10964TIP3    H154383   0.711   6.661   0.478  0.0812 -1.8791  0.8746
10964TIP3    H254384   0.613   6.715   0.580 -1.0728 -0.8322 -0.7618
10965TIP3   OH254385   2.206   0.923  12.968 -0.6676 -0.0572 -0.2209
10965TIP3    H154386   2.253   0.967  13.038  0.9039 -1.6868 -0.2072
10965TIP3    H254387   2.240   0.962  12.887  0.7051 -1.1762 -0.2074
10966TIP3   OH254388   1.121   1.235   5.627  0.1513 -0.0116 -0.1344
10966TIP3    H154389   1.109   1.251   5.533  0.1763  0.5320 -0.0485
10966TIP3    H254390   1.183   1.163   5.632 -2.0101 -1.9672 -0.5816
10967TIP3   OH254391   6.041   4.714   1.773 -0.3836  0.2301  0.6268
10967TIP3    H154392   5.984   4.683   1.703 -0.4798  0.9274  0.3941
10967TIP3    H254393   6.083   4.792   1.737  0.0859  0.1961  1.0961
10968TIP3   OH254394   4.741   5.198  15.451  0.0203 -0.3455 -0.4808
10968TIP3    H154395   4.711   5.120  15.405 -0.3773  0.0036 -0.8169
10968TIP3    H254396   4.678   5.210  15.522  0.8090 -1.0622  0.3562
10969TIP3   OH254397   1.008   4.948   4.316 -0.4795 -0.1582 -0.0371
10969TIP3    H154398   0.940   4.996   4.268  2.0970  1.0210 -2.6624
10969TIP3    H254399   1.073   4.925   4.249  1.9762 -0.7776  2.4637
10970TIP3   OH254400   0.336   4.772  16.782  0.5989  0.6265 -0.3139
10970TIP3    H154401   0.263   4.739  16.729  0.4892 -0.0922  0.2803
10970TIP3    H254402   0.332   4.867  16.772 -0.5599  0.6060 -0.0972
10971TIP3   OH254403   4.749   2.420   2.967 -0.2284  0.2118 -0.4486
10971TIP3    H154404   4.776   2.441   2.878  2.2925 -2.8639 -0.5135
10971TIP3    H254405   4.690   2.345   2.958 -0.0817 -0.0261  0.4263
10972TIP3   OH254406   5.146   1.534  17.008  0.5214  0.0541  0.7733
10972TIP3    H154407   5.090   1.465  16.972  0.1264  0.5187  0.4956
10972TIP3    H254408   5.085   1.594  17.051  0.9263 -0.1085  1.5791
10973TIP3   OH254409   1.763   0.189   1.335 -0.0093  0.4187  0.5118
10973TIP3    H154410   1.754   0.255   1.266  2.0159 -0.5503 -0.7416
10973TIP3    H254411   1.841   0.216   1.384 -0.7824  0.4755  1.7179
10974TIP3   OH254412   0.513   4.432  17.283 -0.1874 -0.6073  0.9830
10974TIP3    H154413   0.469   4.517  17.277  0.4122 -0.2422  1.5940
10974TIP3    H254414   0.449   4.375  17.325 -0.4052 -0.3202  1.0428
10975TIP3   OH254415   0.133   1.622  15.031  0.1565  0.2521  0.2354
10975TIP3    H154416   0.204   1.672  15.070  1.3201 -2.3824  1.6564
10975TIP3    H254417   0.083   1.589  15.106 -0.9090 -0.2567 -0.6729
10976TIP3   OH254418   5.687   2.237   4.155  0.8578 -0.1233 -0.6519
10976TIP3    H154419   5.754   2.282   4.206  0.6654 -1.1892  0.5668
10976TIP3    H254420   5.674   2.293   4.078  1.8584  0.9997 -0.0254
10977TIP3   OH254421   3.634   4.721  13.209  0.7315 -0.1337  0.2243
10977TIP3    H154422   3.710   4.734  13.265 -0.8927 -1.6531  2.8607
10977TIP3    H254423   3.647   4.782  13.136  2.5306  2.4280  2.6029
10978TIP3   OH254424   3.547   4.829  10.413  0.4769  0.3827  0.2085
10978TIP3    H154425   3.540   4.784  10.329 -2.7113  1.9663 -0.4480
10978TIP3    H254426   3.528   4.762  10.478 -0.7515 -0.0371 -0.5652
10979TIP3   OH254427   4.959   2.957   2.193  0.1363 -0.7654  0.1457
10979TIP3    H154428   5.004   3.028   2.146  0.7401  0.5105  2.5837
10979TIP3    H254429   4.866   2.978   2.185  0.2906  0.0567  0.4456
10980TIP3   OH254430   1.621   2.297   0.067 -0.0248  0.9841 -0.2664
10980TIP3    H154431   1.547   2.309   0.007 -1.3948  0.6396  1.2924
10980TIP3    H254432   1.649   2.207   0.054 -0.7900  0.6846  0.0876
10981TIP3   OH254433   3.996   2.595  12.912 -0.2120  0.1007 -0.5991
10981TIP3    H154434   3.953   2.665  12.962 -0.5133  0.1277 -0.8962
10981TIP3    H254435   3.970   2.610  12.822 -0.8207 -0.7887 -0.5833
10982TIP3   OH254436   0.612   5.806  17.099 -0.0085  0.3681 -0.0195
10982TIP3    H154437   0.575   5.761  17.023  0.7648 -0.7732  0.2684
10982TIP3    H254438   0.536   5.838  17.147 -0.6035 -0.9866 -0.0231
10983TIP3   OH254439   2.468   5.583  16.469  0.4083  0.2109  0.2571
10983TIP3    H154440   2.492   5.606  16.558  3.5318  1.8724 -0.9401
10983TIP3    H254441   2.551   5.574  16.423 -1.1522  1.3976 -2.9681
10984TIP3   OH254442   0.101   0.420   3.372 -0.2592 -0.5791 -0.3151
10984TIP3    H154443   0.038   0.434   3.301 -1.2690  0.8602  0.8519
10984TIP3    H254444   0.175   0.476   3.350 -0.4338 -0.3767 -0.3817
10985TIP3   OH254445   4.768   2.795  14.152 -0.1045 -0.4584  1.1175
10985TIP3    H154446   4.795   2.851  14.079 -1.4910 -0.0421  0.8923
10985TIP3    H254447   4.828   2.817  14.223  1.4533 -1.0879  0.0246
10986TIP3   OH254448   2.489   6.140   4.914 -0.1587 -0.4746 -0.2391
10986TIP3    H154449   2.547   6.173   4.845 -1.6790 -0.5771 -1.6208
10986TIP3    H254450   2.401   6.167   4.886 -1.3135 -4.2945 -0.6472
10987TIP3   OH254451   6.284   1.861   1.500  0.2031  0.0066 -0.0782
10987TIP3    H154452   6.277   1.859   1.595 -1.1194 -2.1953 -0.1781
10987TIP3    H254453   6.353   1.797   1.480 -1.4264 -1.5941 -0.7099
10988TIP3   OH254454   6.563   6.426   5.992  0.5462  0.7365 -0.0753
10988TIP3    H154455   6.568   6.396   6.083 -1.4643 -0.2615 -0.2674
10988TIP3    H254456   6.511   6.506   5.996 -0.0693  0.3553 -0.4166
10989TIP3   OH254457   5.236   1.131  15.079 -0.6521 -0.3141  0.0108
10989TIP3    H154458   5.306   1.103  15.020 -1.3233 -1.8503 -0.0752
10989TIP3    H254459   5.157   1.092  15.042 -1.9373  3.0787 -1.0891
10990TIP3   OH254460   1.093   4.102  11.676  0.6237 -0.2598 -0.4129
10990TIP3    H154461   1.032   4.173  11.657 -3.1372 -3.4782 -1.1867
10990TIP3    H254462   1.156   4.104  11.604  2.4470  4.0503  1.1815
10991TIP3   OH254463   4.454   1.444  16.529  0.5876  0.6183  0.2614
10991TIP3    H154464   4.525   1.463  16.590  0.5804 -1.3368  0.9389
10991TIP3    H254465   4.413   1.365  16.564  0.0675 -0.0878 -1.8295
10992TIP3   OH254466   2.228   2.179   5.784 -0.6243 -0.4204  0.1254
10992TIP3    H154467   2.207   2.143   5.697  1.3237  2.3115 -1.5439
10992TIP3    H254468   2.247   2.102   5.837 -3.0368 -2.2404 -1.5130
10993TIP3   OH254469   2.038   1.992  14.714 -0.3469  0.1259  0.1772
10993TIP3    H154470   2.010   2.031  14.797 -1.3508 -0.7662  0.2806
10993TIP3    H254471   2.005   2.052  14.647 -2.0463 -0.6121  0.3247
10994TIP3   OH254472   3.114   1.236   4.486  0.1336 -0.2367 -0.1840
10994TIP3    H154473   3.181   1.195   4.432  1.8660 -1.9728  3.0939
10994TIP3    H254474   3.047   1.168   4.496 -0.3313  0.1869 -0.3813
10995TIP3   OH254475   5.026   6.203  13.719 -0.1250 -0.4388 -0.4831
10995TIP3    H154476   5.110   6.163  13.695 -0.2992 -0.5920 -0.8505
10995TIP3    H254477   5.016   6.185  13.813 -0.1954 -1.2571 -0.6400
10996TIP3   OH254478   0.412   0.011  11.734  0.0789 -0.3640 -0.6851
10996TIP3    H154479   0.373  -0.063  11.687 -1.0107  0.5181 -1.2160
10996TIP3    H254480   0.424   0.078  11.666  0.3064  0.2290 -0.0645
10997TIP3   OH254481   6.811   2.609   2.998 -1.3131 -0.1322  0.5218
10997TIP3    H154482   6.802   2.695   3.039 -0.8269 -0.3323  1.0599
10997TIP3    H254483   6.797   2.624   2.905 -2.0753  0.3903  0.7212
10998TIP3   OH254484   5.143   1.153  17.109 -0.7294  0.4690  0.1307
10998TIP3    H154485   5.068   1.213  17.109  0.1918  1.6546 -0.8717
10998TIP3    H254486   5.113   1.077  17.158 -2.5387  0.9961 -0.1147
10999TIP3   OH254487   2.022   0.915   4.463  0.2689  0.1392 -0.0093
10999TIP3    H154488   2.087   0.894   4.396  1.5492 -0.9889  1.5368
10999TIP3    H254489   1.975   0.833   4.477 -0.2458  0.4671  0.1904
11000TIP3   OH254490   3.573   0.474  17.166 -0.0089  0.0760 -0.1202
11000TIP3    H154491   3.649   0.440  17.213  0.1967  0.3631 -0.2482
11000TIP3    H254492   3.524   0.524  17.231  0.1078  0.2061 -0.1344
11001TIP3   OH254493   3.216   4.689  16.092  0.1064  0.6219  0.0631
11001TIP3    H154494   3.129   4.727  16.106 -0.4927 -0.8266  0.2732
11001TIP3    H254495   3.218   4.611  16.146  1.2397  0.1945 -0.5792
11002TIP3   OH254496   5.613   1.404   5.784 -0.1762 -0.3387 -0.1867
11002TIP3    H154497   5.537   1.347   5.791  1.4285 -2.6071 -0.5043
11002TIP3    H254498   5.587   1.471   5.720 -1.7792 -1.2548 -0.5218
11003TIP3   OH254499   1.886   4.201   6.506 -0.3941 -0.1437 -0.1717
11003TIP3    H154500   1.798   4.202   6.468  0.2549  1.1423 -1.6554
11003TIP3    H254501   1.880   4.261   6.580 -0.8136 -0.2690 -0.0962
11004TIP3   OH254502   2.519   4.248   0.002 -0.2043 -0.4097 -0.4570
11004TIP3    H154503   2.427   4.227  -0.009  0.1384 -1.5566 -1.2740
11004TIP3    H254504   2.560   4.165   0.029  0.5992  0.0589 -0.1968
11005TIP3   OH254505   3.048   4.388  12.629  0.3196  0.1888  0.4651
11005TIP3    H154506   3.028   4.382  12.536  0.8617 -3.7624  0.4991
11005TIP3    H254507   2.966   4.365  12.673  0.2506  1.3586  0.9550
11006TIP3   OH254508   1.484   5.222  13.894  0.4881  0.5355  0.4385
11006TIP3    H154509   1.574   5.222  13.862 -0.0601  1.0499 -1.1698
11006TIP3    H254510   1.471   5.312  13.926  0.3763  0.6159  0.1676
11007TIP3   OH254511   5.625   4.853   1.980  0.0159 -0.2570 -0.1030
11007TIP3    H154512   5.546   4.905   1.991  1.0985  1.2632  0.7713
11007TIP3    H254513   5.655   4.835   2.069  0.8798 -0.4513 -0.4276
11008TIP3   OH254514   3.617   3.027   0.408  0.2284  0.6811 -0.0269
11008TIP3    H154515   3.594   3.008   0.317  0.5344  0.8060 -0.1312
11008TIP3    H254516   3.709   3.051   0.405  0.6906 -0.9446  0.5392
11009TIP3   OH254517   1.947   6.384   0.272 -0.7284 -0.0237  0.0160
11009TIP3    H154518   2.000   6.463   0.281 -0.9196  0.0413  0.6401
11009TIP3    H254519   1.856   6.415   0.278 -0.7889 -0.4059  1.3733
11010TIP3   OH254520   0.691   2.487   2.844 -0.8732  0.0472  0.6754
11010TIP3    H154521   0.712   2.417   2.782 -2.5960 -3.2999  3.6528
11010TIP3    H254522   0.614   2.530   2.807 -0.9779 -0.9476 -0.2773
11011TIP3   OH254523   0.803   6.565   3.033  0.3552  0.2550  0.9429
11011TIP3    H154524   0.868   6.495   3.021  0.4801  0.5268  0.0239
11011TIP3    H254525   0.723   6.531   2.994 -0.1320 -0.1639  2.2639
11012TIP3   OH254526   3.228   4.462   5.422  0.5854  0.6175  0.1221
11012TIP3    H154527   3.316   4.491   5.448 -1.0011  2.1834  4.1797
11012TIP3    H254528   3.189   4.539   5.380  0.1248  0.8808  1.0318
11013TIP3   OH254529   0.363   3.745   5.713 -0.3334  0.5569 -0.1291
11013TIP3    H154530   0.320   3.660   5.722 -0.3766  0.5968  0.0467
11013TIP3    H254531   0.428   3.732   5.645  0.8055 -0.0664  1.0713
11014TIP3   OH254532   2.394   4.177   1.911  0.1545  0.4314 -0.4118
11014TIP3    H154533   2.485   4.207   1.921 -0.0591  0.8608  0.3840
11014TIP3    H254534   2.400   4.097   1.860  1.0220  0.2472 -0.0366
11015TIP3   OH254535   4.129   5.777  10.998 -0.0453  0.0699  0.2985
11015TIP3    H154536   4.118   5.804  10.907 -0.5003  0.1592  0.3757
11015TIP3    H254537   4.157   5.686  10.993 -0.1513  0.0487  0.0671
11016TIP3   OH254538   2.201   1.613  16.643  1.0708  0.2172  0.4778
11016TIP3    H154539   2.274   1.639  16.586  1.1785 -1.6551 -0.2622
11016TIP3    H254540   2.208   1.518  16.650 -1.0776  0.0480  0.7160
11017TIP3   OH254541   3.235   6.386  16.449 -0.5078 -0.1394 -0.0464
11017TIP3    H154542   3.200   6.423  16.367 -0.1152  0.8510  0.2260
11017TIP3    H254543   3.227   6.291  16.437 -0.5247 -0.0076 -1.2086
11018TIP3   OH254544   2.793   3.084  17.229  0.3054 -0.0697 -0.9450
11018TIP3    H154545   2.711   3.128  17.251 -0.8667 -2.0250 -1.2728
11018TIP3    H254546   2.767   3.011  17.172  2.1582 -1.2649 -0.3222
11019TIP3   OH254547   5.572   5.489  13.009 -0.0088 -0.3099 -0.3064
11019TIP3    H154548   5.650   5.517  12.961 -0.7146  1.7760 -0.3267
11019TIP3    H254549   5.511   5.460  12.941 -0.4215  1.1395 -0.5768
11020TIP3   OH254550   3.413   2.651   5.346 -0.4963  0.6402  0.0173
11020TIP3    H154551   3.420   2.746   5.353  1.7190  0.4219  1.2765
11020TIP3    H254552   3.489   2.625   5.293 -1.6193 -0.3600 -1.1511
11021TIP3   OH254553   0.543   0.793  15.999 -0.6064 -0.2606  0.3859
11021TIP3    H154554   0.597   0.738  15.943  0.4326  0.3414  0.7875
11021TIP3    H254555   0.533   0.875  15.951 -0.3504 -0.0203  0.7393
11022TIP3   OH254556   6.423   5.424   5.810 -0.1118  0.0642 -0.3240
11022TIP3    H154557   6.343   5.471   5.834  0.4000  1.3650 -1.1318
11022TIP3    H254558   6.432   5.437   5.716  0.5825 -0.8245 -0.3946
11023TIP3   OH254559   3.185   5.034   3.706 -0.1807  0.1015  0.7465
11023TIP3    H154560   3.253   5.059   3.643 -1.1731 -0.1553 -0.4354
11023TIP3    H254561   3.192   4.939   3.712  0.0033  0.1385  1.1361
11024TIP3   OH254562   3.765   4.240   5.191  0.2479 -0.4489 -0.9268
11024TIP3    H154563   3.677   4.268   5.166  1.1925  0.9238 -2.7671
11024TIP3    H254564   3.761   4.233   5.287 -1.3306  1.4596 -0.8140
11025TIP3   OH254565   5.487   1.578  11.370  0.0949 -0.0893  0.4287
11025TIP3    H154566   5.548   1.649  11.393  1.7984 -1.4252  0.1287
11025TIP3    H254567   5.542   1.500  11.367 -1.6428 -1.3133  0.0557
11026TIP3   OH254568   1.039   4.198   1.957 -0.0294 -0.6812 -0.0204
11026TIP3    H154569   1.103   4.130   1.936 -1.3062 -1.7260 -0.6666
11026TIP3    H254570   0.987   4.161   2.028 -0.6863 -0.3556 -0.3242
11027TIP3   OH254571   3.942   0.686  14.338 -0.1532 -0.0071  0.0280
11027TIP3    H154572   3.862   0.647  14.301 -0.9969  2.2115 -0.5415
11027TIP3    H254573   3.946   0.652  14.427 -0.0275 -2.6009 -0.9123
11028TIP3   OH254574   5.606   4.041   5.069  0.4777  0.3204 -0.3098
11028TIP3    H154575   5.596   4.114   5.130  0.6555 -0.1292  0.2539
11028TIP3    H254576   5.614   4.083   4.983  1.8472  1.0233  0.1499
11029TIP3   OH254577   1.502   0.705  15.827 -0.6616  0.3584 -0.6749
11029TIP3    H154578   1.410   0.691  15.804 -0.8532  0.4952  0.0090
11029TIP3    H254579   1.548   0.701  15.743 -1.1795 -0.5870 -0.9249
11030TIP3   OH254580   0.034   0.178   5.048  0.3102 -0.4266 -0.2153
11030TIP3    H154581   0.074   0.265   5.049 -0.3757 -0.1073  0.0169
11030TIP3    H254582   0.065   0.138   4.967  0.7914 -0.0425 -0.2234
11031TIP3   OH254583   4.807   0.754   3.624  0.3253  0.1069 -0.0108
11031TIP3    H154584   4.840   0.789   3.707 -0.0387 -0.4665  0.3811
11031TIP3    H254585   4.752   0.824   3.588 -0.7669 -0.2312  0.9876
11032TIP3   OH254586   3.185   1.248  10.864 -0.3168 -0.3256 -0.8469
11032TIP3    H154587   3.173   1.337  10.831 -0.4675  0.1852  0.5614
11032TIP3    H254588   3.105   1.202  10.838 -0.1089 -0.1459 -1.8379
11033TIP3   OH254589   6.124   4.066   5.309  0.0800 -0.0821  0.2355
11033TIP3    H154590   6.034   4.073   5.275  0.2478  2.2684  0.1954
11033TIP3    H254591   6.169   4.142   5.272  1.3908  0.2220  2.4032
11034TIP3   OH254592   0.911   2.033  10.975  0.2974  0.3268 -0.2482
11034TIP3    H154593   0.955   2.061  11.055 -1.7234  1.4116  0.5213
11034TIP3    H254594   0.981   2.022  10.911  1.8203  0.4840  1.3779
11035TIP3   OH254595   1.035   2.194   3.156  0.4862  0.1161 -0.0419
11035TIP3    H154596   1.019   2.159   3.069 -0.7970  0.4067  0.0746
11035TIP3    H254597   0.949   2.198   3.197  1.1838 -0.7491  1.5227
11036TIP3   OH254598   5.590   3.560   2.688  0.5631 -0.5659 -0.5371
11036TIP3    H154599   5.506   3.606   2.693  0.1114 -1.4828  0.5053
11036TIP3    H254600   5.582   3.504   2.612 -0.5090 -2.0481  0.6327
11037TIP3   OH254601   2.223   3.808   2.277 -0.3664  0.0958  0.0446
11037TIP3    H154602   2.153   3.828   2.339  0.0645  0.2165  0.4953
11037TIP3    H254603   2.277   3.887   2.275  0.6961 -0.5836  0.9720
11038TIP3   OH254604   1.408   6.478   2.393 -0.1433  0.5433 -0.1153
11038TIP3    H154605   1.371   6.507   2.309 -0.3238  1.2389  0.2014
11038TIP3    H254606   1.431   6.386   2.379  0.4463  0.8385 -1.1424
11039TIP3   OH254607   5.852   3.030   1.995  0.0418 -0.2319 -0.5926
11039TIP3    H154608   5.851   3.053   2.088 -2.4113 -1.0050 -0.3975
11039TIP3    H254609   5.896   2.945   1.992  0.7053  0.0910 -0.2304
11040TIP3   OH254610   2.403   0.831   6.544  0.7588  0.2977  0.5396
11040TIP3    H154611   2.458   0.755   6.526  0.8868  1.0505 -2.5140
11040TIP3    H254612   2.316   0.795   6.561  0.8607 -0.5704 -0.7105
11041TIP3   OH254613   3.010   1.372   0.272 -0.3003  0.1518 -0.2535
11041TIP3    H154614   3.006   1.395   0.365  1.5600 -1.9810  0.3969
11041TIP3    H254615   2.928   1.405   0.235 -1.9165 -0.6264  2.5198
11042TIP3   OH254616   2.646   5.560   3.277 -0.0294  0.0796 -0.5910
11042TIP3    H154617   2.640   5.634   3.217  1.7062  1.4918  0.9188
11042TIP3    H254618   2.669   5.599   3.361  0.2163 -2.1104  0.3917
11043TIP3   OH254619   3.822   1.288  11.963  0.2387 -0.2601  0.2967
11043TIP3    H154620   3.865   1.296  11.878 -0.0587 -0.7756  0.0935
11043TIP3    H254621   3.894   1.272  12.025  0.4165 -0.2789  0.0859
11044TIP3   OH254622   3.981   4.417   2.353 -0.0469  0.7621  0.0373
11044TIP3    H154623   4.008   4.505   2.380  0.8778 -0.1053  2.0848
11044TIP3    H254624   4.032   4.358   2.410 -1.0638 -1.0748 -0.9147
11045TIP3   OH254625   0.672   1.777   2.719  0.2747 -0.4612 -0.3992
11045TIP3    H154626   0.725   1.712   2.765 -3.1943 -0.0777  4.6029
11045TIP3    H254627   0.704   1.861   2.750 -0.3629 -0.0896 -0.7393
11046TIP3   OH254628   4.137   4.300  13.199 -0.1379  0.1645 -0.2800
11046TIP3    H154629   4.080   4.251  13.259  0.2297  1.2864  1.0107
11046TIP3    H254630   4.183   4.232  13.149 -2.1262 -0.7746 -0.9241
11047TIP3   OH254631   0.184   0.307   0.691  0.6293 -0.0127  0.3135
11047TIP3    H154632   0.119   0.239   0.708 -0.9978  1.7749  1.3900
11047TIP3    H254633   0.138   0.389   0.707  2.5784  1.3648 -0.9094
11048TIP3   OH254634   2.295   1.000  14.559  0.3648  0.1884 -1.1578
11048TIP3    H154635   2.207   0.973  14.585  0.3733  2.2279  1.0902
11048TIP3    H254636   2.352   0.965  14.627  0.7731  2.6755 -0.1726
11049TIP3   OH254637   3.479   0.967   1.239  0.4641 -0.6261 -0.3762
11049TIP3    H154638   3.464   1.025   1.314 -1.8391 -0.4828 -0.9186
11049TIP3    H254639   3.572   0.978   1.219  0.5641  1.1708  0.9371
11050TIP3   OH254640   0.642   0.244  16.637 -0.5378 -0.3015 -0.3384
11050TIP3    H154641   0.596   0.304  16.696  1.7286 -0.5274  1.7498
11050TIP3    H254642   0.589   0.164  16.637 -1.5378  0.3509 -0.1155
11051TIP3   OH254643   4.377   4.647   3.127 -0.7825  0.1646 -0.2476
11051TIP3    H154644   4.420   4.609   3.050  0.2401  1.1504 -0.1710
11051TIP3    H254645   4.422   4.607   3.201  0.2238  1.3889 -0.1663
11052TIP3   OH254646   2.548   6.663   2.365  0.2691 -0.4029  0.1278
11052TIP3    H154647   2.534   6.649   2.271  0.1528 -0.3721  0.1410
11052TIP3    H254648   2.625   6.610   2.386 -0.4888 -1.4516  0.2944
11053TIP3   OH254649   4.981   0.581   3.464 -0.4496  0.1472  0.5179
11053TIP3    H154650   4.948   0.643   3.529 -0.2485 -0.3267  1.0768
11053TIP3    H254651   5.062   0.620   3.431  0.2659 -0.3488  1.6781
11054TIP3   OH254652   1.116   3.720  16.337  0.0750 -0.5104 -0.0353
11054TIP3    H154653   1.167   3.639  16.344 -1.0840 -1.3512 -1.2088
11054TIP3    H254654   1.044   3.699  16.278  0.1555  1.5870 -0.9405
11055TIP3   OH254655   0.482   4.991  16.188 -0.4606 -0.1499 -0.4991
11055TIP3    H154656   0.486   4.898  16.168 -1.6929 -0.9401  2.5606
11055TIP3    H254657   0.573   5.019  16.194 -0.0612 -1.5545  0.1300
11056TIP3   OH254658   3.010   3.445   1.332  0.2578 -0.0066  0.8681
11056TIP3    H154659   3.016   3.359   1.291  0.4257  0.6552 -0.5239
11056TIP3    H254660   2.976   3.427   1.420  0.1050 -1.4687  0.5277
11057TIP3   OH254661   4.436   3.164  12.415 -0.0483 -0.2904  0.0408
11057TIP3    H154662   4.386   3.241  12.443  0.8988  1.1033 -1.9971
11057TIP3    H254663   4.402   3.144  12.327  2.5285  0.3344 -1.1411
11058TIP3   OH254664   2.323   0.695  12.481 -0.1245  0.6094 -0.6340
11058TIP3    H154665   2.236   0.656  12.490 -0.0966  0.5460 -0.6420
11058TIP3    H254666   2.375   0.654  12.550  0.6868 -1.5181 -2.4364
11059TIP3   OH254667   4.455   6.250  13.648 -0.3124  0.1790 -0.7412
11059TIP3    H154668   4.368   6.285  13.628 -0.2590  0.5500 -0.3322
11059TIP3    H254669   4.510   6.327  13.660 -0.2889 -0.0245  0.5575
11060TIP3   OH254670   2.077   3.318   2.061 -0.5291 -0.5448 -0.3356
11060TIP3    H154671   2.115   3.256   1.999  0.0322 -0.8360  0.3051
11060TIP3    H254672   1.984   3.297   2.062 -0.2269 -1.8943  0.4777
11061TIP3   OH254673   0.935   5.505  15.533 -0.1638 -0.2119  0.5478
11061TIP3    H154674   0.984   5.456  15.467 -0.2951  0.6161 -0.1578
11061TIP3    H254675   0.888   5.437  15.582 -0.5112 -0.7867 -0.5618
11062TIP3   OH254676   3.991   2.321   4.222  0.1189  0.2181 -0.1431
11062TIP3    H154677   3.957   2.373   4.295  2.6865  0.0768  1.2149
11062TIP3    H254678   3.913   2.294   4.173 -1.5972  0.8793  2.1516
11063TIP3   OH254679   2.499   5.791   3.153  0.2658  0.2238 -0.3950
11063TIP3    H154680   2.460   5.862   3.102 -1.0977 -0.2303 -0.0160
11063TIP3    H254681   2.440   5.781   3.228  2.3062  0.9795  1.3664
11064TIP3   OH254682   4.008   6.558  14.689 -0.5741  0.1504  0.2397
11064TIP3    H154683   3.976   6.495  14.625  1.1614  0.5097 -1.0238
11064TIP3    H254684   4.025   6.507  14.768 -2.1718 -0.3957  0.2479
11065TIP3   OH254685   6.501   6.462   3.539  0.3831 -0.3241 -0.2146
11065TIP3    H154686   6.530   6.420   3.620 -0.2072  0.2981  0.3280
11065TIP3    H254687   6.567   6.438   3.474  1.7542  0.5098  0.8385
11066TIP3   OH254688   2.697   0.313  15.584 -0.1790  0.3168 -0.5213
11066TIP3    H154689   2.728   0.351  15.666  2.8055  1.5618 -2.1629
11066TIP3    H254690   2.665   0.225  15.609  2.0153  0.1086  1.7210
11067TIP3   OH254691   1.923   3.321  12.355  0.4089  0.1595  0.1851
11067TIP3    H154692   1.976   3.339  12.276 -1.1042 -2.6360 -1.5490
11067TIP3    H254693   1.833   3.325  12.324 -0.1982 -1.1800  1.7379
11068TIP3   OH254694   1.578   1.727  17.088 -0.1376 -0.1929 -0.1710
11068TIP3    H154695   1.570   1.819  17.114  2.2330 -0.0106  0.0025
11068TIP3    H254696   1.639   1.690  17.152 -1.0834 -1.9151 -0.2282
11069TIP3   OH254697   5.208   4.368  16.085 -0.0424  0.1320  0.4238
11069TIP3    H154698   5.153   4.437  16.122 -0.6758  0.2155 -0.6654
11069TIP3    H254699   5.159   4.287  16.103  1.0582 -0.1453  2.3826
11070TIP3   OH254700   5.628   0.597  11.188  0.2834  0.0574  0.2057
11070TIP3    H154701   5.721   0.583  11.208  0.4340  0.0420 -0.5004
11070TIP3    H254702   5.629   0.648  11.107 -0.3573 -1.4072 -0.7342
11071TIP3   OH254703   2.946   6.139  15.353 -0.3190 -0.7228  0.6796
11071TIP3    H154704   2.962   6.045  15.344  0.2931 -0.5659  0.0164
11071TIP3    H254705   2.867   6.155  15.300  0.7449 -0.5381 -0.8919
11072TIP3   OH254706   2.221   4.601   1.014 -0.6499  0.4527  0.5815
11072TIP3    H154707   2.169   4.587   0.936  0.8534 -0.1881 -0.3296
11072TIP3    H254708   2.311   4.611   0.982 -0.4490  3.7998  1.8871
11073TIP3   OH254709   0.325   3.086  15.018 -0.6860 -0.5315  0.3178
11073TIP3    H154710   0.278   3.161  15.052 -3.8576 -2.5223  0.5735
11073TIP3    H254711   0.325   3.098  14.923 -2.8384 -1.0561  0.2178
11074TIP3   OH254712   0.088   4.487   0.327  0.6564  0.7560  0.1689
11074TIP3    H154713   0.092   4.515   0.236 -0.5474  0.8203  0.1346
11074TIP3    H254714   0.070   4.393   0.323 -0.6539  0.9971  0.3546
11075TIP3   OH254715   0.037   1.812   2.969 -0.0513  0.2933  0.2353
11075TIP3    H154716  -0.000   1.732   3.006 -0.1880  0.7007  1.0091
11075TIP3    H254717  -0.018   1.882   3.005 -1.6808  0.5537 -2.6431
11076TIP3   OH254718   1.292   4.656  13.635 -0.2837 -0.3865 -0.1354
11076TIP3    H154719   1.382   4.636  13.662  0.5259 -0.1758 -2.6262
11076TIP3    H254720   1.248   4.680  13.717  1.0384 -3.6614  1.6576
11077TIP3   OH254721   3.075   0.062   6.531 -0.0787  0.2472 -0.2156
11077TIP3    H154722   2.993   0.098   6.563  0.2089 -0.6018  1.5417
11077TIP3    H254723   3.051  -0.019   6.487 -0.0909 -0.5482  1.2292
11078TIP3   OH254724   2.973   0.302  14.943 -0.0037 -0.2361  0.2761
11078TIP3    H154725   2.890   0.308  14.990 -0.2576 -0.1477 -0.1832
11078TIP3    H254726   2.949   0.307  14.851  0.2417 -3.1382  0.0048
11079TIP3   OH254727   4.775   5.605   3.474 -0.1699 -0.0502  0.6266
11079TIP3    H154728   4.831   5.527   3.466 -0.2834 -0.1532  0.8468
11079TIP3    H254729   4.818   5.670   3.418 -1.2697 -0.9372 -1.3061
11080TIP3   OH254730   5.230   2.142   3.460  0.4941 -0.7002 -0.2897
11080TIP3    H154731   5.319   2.154   3.427 -0.0782  2.4337 -0.8920
11080TIP3    H254732   5.179   2.116   3.383  0.6149 -1.0047 -0.2652
11081TIP3   OH254733   6.683   6.195   0.654  0.4184 -0.1409  1.3438
11081TIP3    H154734   6.767   6.208   0.699  1.0281  4.4751 -0.8478
11081TIP3    H254735   6.623   6.256   0.695 -0.4329  0.3328 -0.5315
11082TIP3   OH254736   5.430   2.994  15.312  0.0290  0.1806  0.1798
11082TIP3    H154737   5.477   2.967  15.390 -1.5680 -0.7905  0.8272
11082TIP3    H254738   5.426   2.915  15.258 -0.0853  0.4814 -0.2558
11083TIP3   OH254739   2.143   2.692  16.954  0.2958  0.4038 -0.0830
11083TIP3    H154740   2.062   2.723  16.995 -0.6723 -1.7003 -0.3663
11083TIP3    H254741   2.212   2.730  17.008 -0.9338 -1.1767  2.6999
11084TIP3   OH254742   5.303   6.151   0.802  0.2929  0.3305 -0.1766
11084TIP3    H154743   5.383   6.203   0.794  0.5115 -0.2191 -1.8211
11084TIP3    H254744   5.321   6.090   0.874  2.2693 -1.3372 -2.0087
11085TIP3   OH254745   5.303   3.795  16.974  0.0853  0.4882  0.3447
11085TIP3    H154746   5.371   3.843  17.022  1.2193 -1.4602  0.7481
11085TIP3    H254747   5.239   3.771  17.041  0.6316 -0.4578  0.5305
11086TIP3   OH254748   3.946   5.508   3.398  0.0177 -0.1872 -0.2373
11086TIP3    H154749   3.869   5.538   3.352 -0.0595  1.7493  1.0993
11086TIP3    H254750   4.018   5.521   3.337 -0.4846 -0.4709 -0.8901
11087TIP3   OH254751   1.383   0.104  15.496 -0.1455 -0.3032  0.0136
11087TIP3    H154752   1.451   0.129  15.432 -0.5273  0.9326  0.0833
11087TIP3    H254753   1.364   0.012  15.475 -0.8912  0.3328 -2.2195
11088TIP3   OH254754   4.671   3.903   3.457  0.7987 -0.3499 -0.2291
11088TIP3    H154755   4.626   3.922   3.539  0.2249 -0.7049 -0.4590
11088TIP3    H254756   4.719   3.983   3.437  0.4841 -0.0617  0.1538
11089TIP3   OH254757   2.050   4.610   1.869 -0.7299  0.0131  0.6336
11089TIP3    H154758   2.140   4.609   1.836 -1.0450  0.0994 -0.2396
11089TIP3    H254759   2.059   4.630   1.962  0.2789 -1.9815  0.9948
11090TIP3   OH254760   6.322   3.347  14.015  0.0634 -0.3071 -0.3667
11090TIP3    H154761   6.251   3.374  14.073 -0.2903  1.1619 -1.4371
11090TIP3    H254762   6.400   3.389  14.052 -0.2966  1.3259 -1.3641
11091TIP3   OH254763   4.153   2.243  11.484 -0.3709  0.0902 -0.1069
11091TIP3    H154764   4.110   2.284  11.560 -0.7332  1.3158 -0.9672
11091TIP3    H254765   4.238   2.286  11.480 -0.0993 -0.4382 -0.0142
11092TIP3   OH254766   4.757   6.748   0.769  0.1668  0.1093 -0.2683
11092TIP3    H154767   4.723   6.836   0.756 -0.8176 -0.0573  1.0409
11092TIP3    H254768   4.742   6.704   0.686 -2.1594  0.2775  0.0146
11093TIP3   OH254769   0.779   2.310  11.825 -0.1039 -0.5440  0.2499
11093TIP3    H154770   0.818   2.356  11.752  2.5635 -1.1881  1.2153
11093TIP3    H254771   0.829   2.229  11.833 -1.6245 -1.4021  1.5576
11094TIP3   OH254772   2.793   3.680  15.368  0.1083 -0.1635 -0.3093
11094TIP3    H154773   2.856   3.744  15.336  0.3486 -0.1230  0.2469
11094TIP3    H254774   2.842   3.598  15.372  0.2502 -0.0287  0.5889
11095TIP3   OH254775   4.700   6.033   4.103  0.3802  0.0456 -0.0289
11095TIP3    H154776   4.695   6.112   4.156 -1.0253  0.4962 -0.7998
11095TIP3    H254777   4.765   5.978   4.147  0.0845  0.8918  1.4851
11096TIP3   OH254778   5.292   1.140  13.964 -0.0468 -0.0013  0.6286
11096TIP3    H154779   5.232   1.116  13.894  0.6994 -0.7330  0.2285
11096TIP3    H254780   5.322   1.057  14.000  1.0196  0.3298  0.5506
11097TIP3   OH254781   6.411   5.522  15.742 -0.4956 -0.3511  0.1972
11097TIP3    H154782   6.336   5.540  15.685  0.1404 -1.3020 -0.9611
11097TIP3    H254783   6.377   5.461  15.808 -1.5688  1.7387  1.6506
11098TIP3   OH254784   4.797   1.096   2.727 -0.4526 -0.3504 -0.7310
11098TIP3    H154785   4.816   1.177   2.678 -0.2906  0.1005  0.0640
11098TIP3    H254786   4.865   1.035   2.699 -2.5995 -1.3879 -4.0058
11099TIP3   OH254787   2.168   3.263   1.802  0.2797  0.3179 -0.5023
11099TIP3    H154788   2.186   3.174   1.773 -1.3019  0.1517 -1.0321
11099TIP3    H254789   2.210   3.319   1.737  0.8305 -0.0342 -0.4550
11100TIP3   OH254790   4.686   4.667  14.260 -0.3499  0.4945 -0.2956
11100TIP3    H154791   4.747   4.716  14.206  0.7448 -0.6493 -0.1233
11100TIP3    H254792   4.731   4.656  14.344 -0.6750 -0.5901 -0.2576
11101TIP3   OH254793   0.531   4.337  15.788  0.5823  0.0690 -0.3143
11101TIP3    H154794   0.466   4.289  15.839 -1.6796 -0.5627 -3.5951
11101TIP3    H254795   0.602   4.275  15.774 -1.1285 -1.5105 -2.2533
11102TIP3   OH254796   4.795   1.737   2.530 -0.2956 -0.0606  0.8058
11102TIP3    H154797   4.842   1.654   2.523  1.0147  0.6538  0.9107
11102TIP3    H254798   4.864   1.804   2.523 -1.4856  1.0469 -0.7724
11103TIP3   OH254799   1.401   3.280  12.968 -0.8374  0.2504  0.0512
11103TIP3    H154800   1.423   3.345  12.901  1.6152 -0.3122  0.2834
11103TIP3    H254801   1.480   3.228  12.979 -1.7454 -0.7515  2.1878
11104TIP3   OH254802   2.739   0.083   2.423  0.5715  0.1841  0.0360
11104TIP3    H154803   2.676   0.154   2.410 -0.2935 -0.4229  0.8023
11104TIP3    H254804   2.711   0.041   2.504  0.8837 -1.2338 -0.5757
11105TIP3   OH254805   0.131   5.575  13.693  0.2958  0.0847  0.1124
11105TIP3    H154806   0.045   5.608  13.719  0.8099  0.7530  0.9595
11105TIP3    H254807   0.187   5.653  13.688  0.2406 -0.0048 -2.8994
11106TIP3   OH254808   5.956   2.888  16.185  0.3786 -0.3688 -0.2262
11106TIP3    H154809   5.891   2.874  16.116  0.2826 -1.3221  0.0544
11106TIP3    H254810   6.010   2.809  16.184  0.6722 -0.1833  0.4763
11107TIP3   OH254811   1.544   1.765   5.378  0.3278  0.4163  0.4994
11107TIP3    H154812   1.635   1.749   5.354  0.2391  1.0638 -0.2683
11107TIP3    H254813   1.525   1.698   5.444  0.2459 -2.1233 -1.9668
11108TIP3   OH254814   3.678   4.268  13.985 -0.4581  0.3886  0.4662
11108TIP3    H154815   3.624   4.346  13.973  0.3787  0.7263 -1.3377
11108TIP3    H254816   3.744   4.274  13.916 -0.3868 -1.9188  0.2940
11109TIP3   OH254817   1.019   3.834  10.793  0.2526 -0.2032 -0.5618
11109TIP3    H154818   0.982   3.754  10.757  1.4470 -0.7744 -0.5592
11109TIP3    H254819   1.111   3.832  10.766  0.7334  0.2509  0.9627
11110TIP3   OH254820   5.390   4.292  13.646  0.0205 -0.1978 -0.0093
11110TIP3    H154821   5.314   4.321  13.697  0.6296 -0.7875  1.2549
11110TIP3    H254822   5.433   4.227  13.702  0.2679 -1.4488 -1.6122
11111TIP3   OH254823   0.918   3.768   5.754 -0.0349  0.2838 -0.2377
11111TIP3    H154824   0.993   3.790   5.698  0.1976 -1.5904 -0.6908
11111TIP3    H254825   0.915   3.839   5.818  0.9103  1.4220 -1.4307
11112TIP3   OH254826   5.567   2.849   0.534 -0.2376 -0.0559  0.0712
11112TIP3    H154827   5.500   2.848   0.465 -1.3477  0.9740  1.0928
11112TIP3    H254828   5.537   2.783   0.597  0.8707 -1.1286 -0.5162
11113TIP3   OH254829   1.198   2.570   3.561 -0.0023  0.3516 -0.3555
11113TIP3    H154830   1.264   2.591   3.495  1.0194  0.7548  0.7782
11113TIP3    H254831   1.117   2.558   3.511  0.8821  0.0416 -1.7387
11114TIP3   OH254832   4.404   0.424   4.972  0.6990  0.3802 -0.5806
11114TIP3    H154833   4.322   0.412   5.020  1.1873  1.0907  0.4475
11114TIP3    H254834   4.402   0.357   4.904 -0.0077 -0.6178  0.4185
11115TIP3   OH254835   5.312   5.140   3.683 -0.2750 -0.1273  0.7485
11115TIP3    H154836   5.352   5.057   3.710  0.9563 -0.1619 -1.1428
11115TIP3    H254837   5.275   5.122   3.597 -0.5868  1.1248  0.6115
11116TIP3   OH254838   5.220   2.538  12.422  0.1910  0.1611 -0.2639
11116TIP3    H154839   5.182   2.579  12.499 -1.3147  0.0187 -0.9081
11116TIP3    H254840   5.168   2.458  12.409  0.4876  0.1312 -1.3441
11117TIP3   OH254841   4.100   3.705   1.185  0.1249 -0.4088  0.2716
11117TIP3    H154842   4.112   3.736   1.275  2.0674  0.4673 -0.2729
11117TIP3    H254843   4.020   3.651   1.189  0.2423 -0.4646  2.5269
11118TIP3   OH254844   5.426   3.402  13.892  0.3818  0.6279 -0.3524
11118TIP3    H154845   5.499   3.462  13.879  0.6150  0.1603 -1.2292
11118TIP3    H254846   5.373   3.410  13.813  0.6447 -0.6294 -0.6743
11119TIP3   OH254847   1.011   5.221  13.576 -0.1530  0.3548  0.7908
11119TIP3    H154848   1.104   5.225  13.555 -0.6450 -1.0198 -1.9157
11119TIP3    H254849   0.973   5.296  13.530 -0.3169  1.2898  2.4166
11120TIP3   OH254850   2.447   4.695  12.013  0.0137  0.2020  0.7382
11120TIP3    H154851   2.378   4.744  11.970  0.5449 -1.2730 -1.9764
11120TIP3    H254852   2.528   4.732  11.977  0.4578 -1.2165  0.2251
11121TIP3   OH254853   2.934   1.133  10.761  0.4279 -0.6921  0.2891
11121TIP3    H154854   2.944   1.217  10.716  0.0584 -0.0170  1.4563
11121TIP3    H254855   2.947   1.068  10.692  2.1431  0.2957 -0.3511
11122TIP3   OH254856   1.785   0.379  12.070 -0.0975  0.0709 -0.0937
11122TIP3    H154857   1.821   0.290  12.070  1.0053  0.5031  1.3224
11122TIP3    H254858   1.722   0.380  12.142  0.0970  0.5228  0.0703
11123TIP3   OH254859   1.788   0.832   3.362  0.4082  0.3912  0.0030
11123TIP3    H154860   1.772   0.920   3.395  0.5546  0.6010 -0.4832
11123TIP3    H254861   1.706   0.785   3.379 -0.1548  0.9992 -0.9530
11124TIP3   OH254862   1.479   1.662  12.862  0.1180 -0.0238  0.5288
11124TIP3    H154863   1.524   1.579  12.876  0.5675 -0.0801 -1.1585
11124TIP3    H254864   1.528   1.725  12.916 -0.8669 -1.0200  2.6436
11125TIP3   OH254865   1.940   5.369   1.083  1.0930 -0.8837  0.2748
11125TIP3    H154866   1.858   5.380   1.131  1.2716 -1.5588  0.7510
11125TIP3    H254867   2.006   5.412   1.136  1.0054 -0.1024 -0.2452
11126TIP3   OH254868   0.376   1.420   3.576 -0.4426  0.1523 -0.0210
11126TIP3    H154869   0.399   1.366   3.500 -2.4579 -0.9525  0.0976
11126TIP3    H254870   0.350   1.357   3.643 -0.2832  1.1825  1.0124
11127TIP3   OH254871   3.395   2.598  10.467 -0.4405  0.1382 -0.0550
11127TIP3    H154872   3.435   2.587  10.381 -1.9521 -0.4595 -0.6969
11127TIP3    H254873   3.434   2.679  10.501  0.7666 -0.0483 -0.9482
11128TIP3   OH254874   4.277   6.311   5.182 -0.0890 -0.3679 -0.4653
11128TIP3    H154875   4.221   6.368   5.129  0.0026 -2.3626 -2.7837
11128TIP3    H254876   4.358   6.304   5.131 -0.0627 -2.4675 -0.1628
11129TIP3   OH254877   6.389   0.010   3.631  0.4785  0.0462 -0.3576
11129TIP3    H154878   6.294   0.012   3.640  0.6473 -1.5634  2.2386
11129TIP3    H254879   6.416   0.102   3.636 -0.8714  0.4295 -0.0442
11130TIP3   OH254880   1.377   2.751  11.739 -0.2967  0.3434  0.1266
11130TIP3    H154881   1.433   2.766  11.663 -1.5440  1.5043 -0.5763
11130TIP3    H254882   1.293   2.789  11.715 -1.0172 -0.2325  1.6779
11131TIP3   OH254883   6.681   1.902  12.992 -0.3889  0.1810 -0.5322
11131TIP3    H154884   6.737   1.958  13.045  0.4153 -1.0575 -0.0473
11131TIP3    H254885   6.671   1.822  13.045 -1.0452 -0.3581 -1.4583
11132TIP3   OH254886   1.552   2.145  13.158 -0.5296  0.0405 -0.0408
11132TIP3    H154887   1.498   2.072  13.187 -1.7624  0.9949  0.1454
11132TIP3    H254888   1.495   2.195  13.099  1.0697 -0.4235 -2.0523
11133TIP3   OH254889   3.018   6.325  12.028  0.0472 -0.2889 -0.1559
11133TIP3    H154890   2.952   6.310  11.960  1.2672 -0.6493 -1.2719
11133TIP3    H254891   3.077   6.250  12.021  1.4354  0.7885 -0.1934
11134TIP3   OH254892   2.870   4.188  12.943 -0.1683 -0.3070  0.3687
11134TIP3    H154893   2.960   4.156  12.933  1.1628  2.9292  1.3429
11134TIP3    H254894   2.834   4.187  12.854  0.5834 -2.2540  0.0590
11135TIP3   OH254895   5.418   4.979   5.267  0.1101  0.6043  0.7219
11135TIP3    H154896   5.381   4.895   5.294  0.1838  0.5450  0.6398
11135TIP3    H254897   5.505   4.981   5.307 -0.1656  0.9501  1.3033
11136TIP3   OH254898   6.428   1.291   1.987 -0.3726 -0.7120  0.3260
11136TIP3    H154899   6.384   1.284   1.902  0.6880  0.1531 -0.3116
11136TIP3    H254900   6.358   1.312   2.048 -0.7111  1.8331 -0.8610
11137TIP3   OH254901   5.232   0.776  15.961 -0.2409 -0.2520 -0.1808
11137TIP3    H154902   5.171   0.805  15.894 -0.4211  0.5177  0.2991
11137TIP3    H254903   5.195   0.694  15.994 -0.1560 -0.6238 -1.0064
11138TIP3   OH254904   1.001   1.737  12.379 -0.1665  0.4269 -0.5046
11138TIP3    H154905   1.017   1.662  12.437 -1.0169  0.4967 -0.1849
11138TIP3    H254906   0.910   1.761  12.395 -0.8339 -0.4269 -2.8758
11139TIP3   OH254907   2.260   4.941  16.368  0.3472 -0.7349 -0.0009
11139TIP3    H154908   2.261   5.014  16.306  1.7023 -1.2940 -0.6493
11139TIP3    H254909   2.245   4.983  16.453  1.7934  0.3834 -0.2712
11140TIP3   OH254910   6.674   3.879  15.212 -0.5251 -0.7301  0.3971
11140TIP3    H154911   6.743   3.874  15.147 -0.3180 -0.2491  0.5710
11140TIP3    H254912   6.715   3.924  15.286 -0.9952 -0.5317  0.5369
11141TIP3   OH254913   6.411   4.728  14.544  0.2032  0.6283  0.2456
11141TIP3    H154914   6.397   4.782  14.621  1.1232  2.0611 -0.5649
11141TIP3    H254915   6.465   4.782  14.486 -0.5547 -0.3676 -1.4383
11142TIP3   OH254916   4.674   0.542   4.995  0.5038  0.4902 -0.5910
11142TIP3    H154917   4.591   0.497   4.982  1.6036 -1.2959 -1.6088
11142TIP3    H254918   4.650   0.634   5.005 -1.6829 -0.1526  0.3878
11143TIP3   OH254919   1.345   1.209   3.927  0.7164 -0.2393 -0.3059
11143TIP3    H154920   1.380   1.133   3.974 -0.4984 -0.2119  0.6528
11143TIP3    H254921   1.392   1.283   3.965  0.4611 -0.3161  0.1632
11144TIP3   OH254922   1.707   4.674   0.028  0.1693  0.2896 -0.0412
11144TIP3    H154923   1.700   4.646   0.120 -1.4474  0.3583 -0.1415
11144TIP3    H254924   1.619   4.704   0.005  1.0048  2.0339 -1.0494
11145TIP3   OH254925   4.880   4.594   5.103 -0.1547 -0.2016 -0.1801
11145TIP3    H154926   4.938   4.636   5.167 -0.0913 -2.2553  1.1739
11145TIP3    H254927   4.800   4.647   5.104  0.9418  1.5254 -0.6418
11146TIP3   OH254928   4.519   3.773  16.020  0.1444 -0.0653 -0.3213
11146TIP3    H154929   4.480   3.790  16.106 -0.2729  0.0667 -0.5335
11146TIP3    H254930   4.607   3.741  16.039 -0.0041 -0.1910  0.1618
11147TIP3   OH254931   6.155   3.579  15.592  0.8438 -0.7012  0.3247
11147TIP3    H154932   6.152   3.599  15.498 -0.8612 -0.7338  0.3535
11147TIP3    H254933   6.248   3.568  15.611  1.1198 -2.0365 -1.6476
11148TIP3   OH254934   4.306   3.365  10.630  0.2488  0.5377  0.0440
11148TIP3    H154935   4.233   3.427  10.629 -0.2726 -0.0640  0.4571
11148TIP3    H254936   4.270   3.285  10.591  1.1002  0.7012 -1.0967
11149TIP3   OH254937   4.763   1.487   0.355 -0.7372 -0.0837 -0.5400
11149TIP3    H154938   4.674   1.484   0.322 -0.5638 -1.5287 -0.8755
11149TIP3    H254939   4.795   1.398   0.348  0.2444  0.1281  0.9474
11150TIP3   OH254940   5.265   0.866   3.877 -0.0727 -0.1639 -0.0271
11150TIP3    H154941   5.266   0.960   3.859  0.1431 -0.0469  0.5676
11150TIP3    H254942   5.192   0.832   3.825 -1.3339  0.6395  1.1718
11151TIP3   OH254943   4.772   0.343   5.172  0.5348  0.2039  0.2428
11151TIP3    H154944   4.769   0.391   5.255  3.8358  0.0549  0.5216
11151TIP3    H254945   4.778   0.410   5.105 -0.7685  0.2963  0.2166
11152TIP3   OH254946   4.203   6.642  15.787 -0.5440 -0.2189 -0.1299
11152TIP3    H154947   4.193   6.555  15.748 -1.0349  0.6479 -1.9745
11152TIP3    H254948   4.115   6.668  15.812 -0.2129 -0.8323  1.7604
11153TIP3   OH254949   5.522   4.500  13.115  0.1674  0.6428 -0.0906
11153TIP3    H154950   5.618   4.496  13.106  0.0757  0.0169 -0.8951
11153TIP3    H254951   5.508   4.536  13.202  1.1352  1.6123 -0.3241
11154TIP3   OH254952   5.368   2.329  13.859 -0.0869  0.7319 -0.4720
11154TIP3    H154953   5.354   2.346  13.766  1.5912 -1.1924 -1.1067
11154TIP3    H254954   5.315   2.252  13.878  1.8303 -0.6344 -0.5506
11155TIP3   OH254955   4.676   3.277   4.495 -0.1247  0.9255 -0.5931
11155TIP3    H154956   4.758   3.233   4.470 -0.6674 -1.0353  0.9801
11155TIP3    H254957   4.705   3.356   4.541  1.0625 -1.9931  4.0058
11156TIP3   OH254958   5.254   6.790   2.003  0.9361  0.7064  0.6260
11156TIP3    H154959   5.236   6.697   1.993  2.9494  0.2403  1.0788
11156TIP3    H254960   5.330   6.806   1.946  0.7396  2.0169  0.7143
11157TIP3   OH254961   3.718   1.324  12.955  0.2436  0.1669 -0.5598
11157TIP3    H154962   3.663   1.401  12.941  1.7369  1.1762 -1.0349
11157TIP3    H254963   3.790   1.335  12.892  1.4363 -0.6717  0.6406
11158TIP3   OH254964   0.338   4.384  17.001  0.1046  0.4155 -0.0162
11158TIP3    H154965   0.386   4.303  17.015 -1.0426  0.0548  2.1202
11158TIP3    H254966   0.404   4.445  16.967  0.8643 -1.5017 -2.1071
11159TIP3   OH254967   5.142   6.161   3.577 -0.0969 -0.2621  0.4241
11159TIP3    H154968   5.207   6.192   3.641 -1.0377 -0.7037  1.6206
11159TIP3    H254969   5.060   6.200   3.606 -0.8349 -1.7915  0.4415
11160TIP3   OH254970   1.623   4.732   1.031  0.4295  0.6693  0.2882
11160TIP3    H154971   1.687   4.709   0.963  0.5191  1.3563  0.1350
11160TIP3    H254972   1.670   4.794   1.087 -0.0753  1.1244  0.2122
11161TIP3   OH254973   0.148   2.084   2.214 -0.0323  0.1767  0.1728
11161TIP3    H154974   0.083   2.085   2.285  0.2307 -1.2745  0.4542
11161TIP3    H254975   0.126   2.160   2.161 -1.2129  0.3994  0.9456
11162TIP3   OH254976   6.257   5.737  11.151  0.4844  0.3296 -0.1961
11162TIP3    H154977   6.275   5.649  11.185 -0.9548 -0.1825 -0.6994
11162TIP3    H254978   6.170   5.730  11.112 -0.3513  2.4006  1.2113
11163TIP3   OH254979   0.672   5.598   3.165  0.1187  0.2174  0.2177
11163TIP3    H154980   0.752   5.644   3.190  0.9443 -0.6858 -0.7701
11163TIP3    H254981   0.633   5.653   3.097 -0.3883  0.9188  1.0512
11164TIP3   OH254982   1.799   1.267  15.559  0.3937 -0.4910  0.5446
11164TIP3    H154983   1.767   1.278  15.470  1.2760 -0.7205  0.1924
11164TIP3    H254984   1.885   1.309  15.559  0.5268 -0.7560  1.2037
11165TIP3   OH254985   1.757   4.038  11.860 -0.2740 -0.1493  0.1870
11165TIP3    H154986   1.731   4.027  11.769  0.6252 -1.6922  0.0939
11165TIP3    H254987   1.853   4.033  11.858 -0.1297  1.8694  0.9605
11166TIP3   OH254988   0.395   1.083   5.144 -0.0590 -0.6369  0.1273
11166TIP3    H154989   0.430   1.138   5.074  1.7673 -0.2157  1.3389
11166TIP3    H254990   0.446   1.002   5.138 -0.9451 -1.1928  0.0056
11167TIP3   OH254991   2.168   2.467   5.707  0.2466  0.3807 -1.1343
11167TIP3    H154992   2.239   2.411   5.674  1.5137 -0.1696  2.2974
11167TIP3    H254993   2.106   2.406   5.747 -0.4848  1.1164 -1.1320
11168TIP3   OH254994   0.793   2.679   6.388  0.1962 -0.1573  0.4883
11168TIP3    H154995   0.807   2.735   6.465  0.4407 -2.3356  2.0957
11168TIP3    H254996   0.763   2.596   6.425 -0.7986 -0.8783 -1.8776
11169TIP3   OH254997   3.341   0.354   2.057 -0.3782  0.1279  0.3222
11169TIP3    H154998   3.365   0.270   2.096 -1.2418 -0.0207  0.5457
11169TIP3    H254999   3.381   0.352   1.970  2.8532  1.0913  1.6948
11170TIP3   OH255000   2.223   5.502  11.226 -0.4129  0.1670  0.0496
11170TIP3    H155001   2.252   5.588  11.197  0.0894 -0.1125 -0.2832
11170TIP3    H255002   2.206   5.454  11.145  1.6299 -0.8356  0.1871
11171TIP3   OH255003   2.165   5.607  13.088 -0.0222  0.3240  0.5049
11171TIP3    H155004   2.149   5.541  13.020  0.3287  0.3919  0.3608
11171TIP3    H255005   2.078   5.643  13.107 -0.1021  0.3808  0.0220
11172TIP3   OH255006   6.717   3.692  15.501  0.3737 -0.1476  0.0279
11172TIP3    H155007   6.778   3.723  15.568 -0.3870  1.7276 -0.0941
11172TIP3    H255008   6.770   3.686  15.422  1.6084 -3.7595  1.0475
11173TIP3   OH255009   4.002   2.179  16.553  1.1222  0.6098 -0.0512
11173TIP3    H155010   3.917   2.148  16.520  0.7734  2.1661 -0.6658
11173TIP3    H255011   3.986   2.271  16.576  2.3612  0.6039  0.8645
11174TIP3   OH255012   5.113   4.889  17.085  0.2673  0.0906  0.4271
11174TIP3    H155013   5.140   4.979  17.069  3.2001 -1.1421 -2.0363
11174TIP3    H255014   5.169   4.860  17.157  0.8234 -0.4080 -0.2040
11175TIP3   OH255015   3.998   1.556  11.569  0.5263 -0.2385  0.3690
11175TIP3    H155016   4.049   1.489  11.525 -0.5082 -0.3451 -0.6957
11175TIP3    H255017   3.966   1.612  11.498  0.5626  0.8079  1.1590
11176TIP3   OH255018   5.925   5.493   0.067 -0.0424 -0.2925 -0.0773
11176TIP3    H155019   5.856   5.558   0.052  0.7831  0.4824 -0.5724
11176TIP3    H255020   5.944   5.499   0.160 -0.0298  0.1154 -0.1073
11177TIP3   OH255021   2.942   4.691   3.073  0.0848  0.0722  0.6578
11177TIP3    H155022   3.015   4.713   3.131 -0.8750  3.6223  0.6891
11177TIP3    H255023   2.948   4.755   3.002 -2.7501  0.2628  0.5212
11178TIP3   OH255024   0.084   3.059  15.257  0.4510 -0.3088  0.1601
11178TIP3    H155025   0.109   2.975  15.219  0.8705 -0.2649  0.3385
11178TIP3    H255026   0.167   3.100  15.282  0.3324  0.7072 -1.0821
11179TIP3   OH255027   3.035   2.460   3.027  0.0476 -0.4106 -0.6816
11179TIP3    H155028   2.983   2.489   2.952  0.4586 -1.1773 -1.2713
11179TIP3    H255029   3.046   2.365   3.013  0.1832 -0.5442  0.3052
11180TIP3   OH255030   3.271   2.706   3.610 -0.3539 -0.4190  0.1321
11180TIP3    H155031   3.352   2.732   3.654 -0.4543 -0.0995  0.1340
11180TIP3    H255032   3.229   2.789   3.587  0.3939 -0.5624 -1.8629
11181TIP3   OH255033   5.797   3.410   6.219  0.4468 -0.1153 -0.1431
11181TIP3    H155034   5.811   3.331   6.270  0.0736 -1.3998 -1.9878
11181TIP3    H255035   5.789   3.480   6.284  4.0755 -1.0392  1.4153
11182TIP3   OH255036   1.762   4.947   3.000  0.2997 -0.1161 -0.6720
11182TIP3    H155037   1.811   4.904   3.070  0.5618  0.4228 -0.5244
11182TIP3    H255038   1.823   5.009   2.962 -0.7048  1.6637  0.5254
11183TIP3   OH255039   2.144   3.458   4.217  0.2558 -0.1519 -0.6936
11183TIP3    H155040   2.176   3.403   4.145  3.8312  2.5019 -1.2907
11183TIP3    H255041   2.213   3.454   4.283 -1.4223  0.1929  1.1141
11184TIP3   OH255042   0.108   3.594  13.370 -0.4454  0.0106  0.0663
11184TIP3    H155043   0.043   3.625  13.434  0.9207  3.1949 -0.0152
11184TIP3    H255044   0.177   3.554  13.423 -1.5652 -1.7810  0.2427
11185TIP3   OH255045   5.369   0.794  14.937  0.4147  0.5613  0.1273
11185TIP3    H155046   5.375   0.889  14.938  4.0959  0.4554 -2.9468
11185TIP3    H255047   5.434   0.765  15.001  2.5333  0.0838 -2.1946
11186TIP3   OH255048   2.684   6.328  17.005  0.3233  0.1520 -0.3811
11186TIP3    H155049   2.763   6.334  16.951  1.7704  1.1976  1.7735
11186TIP3    H255050   2.651   6.418  17.008 -0.1973 -0.0488 -0.2084
11187TIP3   OH255051   0.414   3.053  13.961 -0.0226 -0.1875  0.1398
11187TIP3    H155052   0.484   3.119  13.964  0.3915 -0.6339  0.3559
11187TIP3    H255053   0.453   2.979  13.915 -0.9977  0.3128 -1.5338
11188TIP3   OH255054   3.949   5.556   3.099 -0.5078  0.5091  0.0215
11188TIP3    H155055   4.021   5.604   3.139 -0.6471  1.2216 -0.5846
11188TIP3    H255056   3.965   5.563   3.005 -0.7628 -0.2736 -0.0875
11189TIP3   OH255057   4.466   2.445   4.457  0.2247  0.1541  0.0222
11189TIP3    H155058   4.535   2.454   4.392  1.4053 -0.4114  1.1746
11189TIP3    H255059   4.405   2.516   4.438  2.7089  2.5801  0.9051
11190TIP3   OH255060   3.685   5.793  16.477 -0.0577 -0.6823 -0.2734
11190TIP3    H155061   3.627   5.867  16.495 -3.2792 -2.9550 -0.6955
11190TIP3    H255062   3.762   5.808  16.531 -2.0036  1.3800  2.0676
11191TIP3   OH255063   6.531   4.234   2.912  0.7017 -0.1510  0.2002
11191TIP3    H155064   6.505   4.184   2.835  1.0488 -0.3256  0.1923
11191TIP3    H255065   6.484   4.317   2.904  0.1079 -0.4884  0.2254
11192TIP3   OH255066   5.535   4.635  17.080 -0.2006 -0.3730 -0.1622
11192TIP3    H155067   5.481   4.559  17.060 -1.2911  0.2248  0.4117
11192TIP3    H255068   5.480   4.689  17.138  0.4976  0.8868 -0.6362
11193TIP3   OH255069   6.482   1.720   1.818 -0.5496  0.2636  0.2472
11193TIP3    H155070   6.478   1.690   1.909  1.1552 -1.1213 -0.1298
11193TIP3    H255071   6.489   1.640   1.766  0.5356  1.1293 -0.9706
11194TIP3   OH255072   5.312   5.950  12.192 -0.1045 -0.1761  0.0029
11194TIP3    H155073   5.321   5.871  12.246  0.6584  0.7881  1.3056
11194TIP3    H255074   5.233   5.993  12.226 -0.1942 -0.0763 -0.3268
11195TIP3   OH255075   3.081   1.240   1.548  0.3287  0.0225  0.4160
11195TIP3    H155076   3.072   1.226   1.643  1.3744 -0.0839  0.5041
11195TIP3    H255077   3.008   1.297   1.526  0.2785  0.3353  1.3589
11196TIP3   OH255078   1.652   1.487  15.752  0.3374  0.5611 -0.0646
11196TIP3    H155079   1.681   1.489  15.661 -0.4266  3.3577 -0.3139
11196TIP3    H255080   1.699   1.559  15.793  0.2457 -0.3224  1.6262
11197TIP3   OH255081   4.118   0.339   2.850  0.3979  1.1392  0.0393
11197TIP3    H155082   4.204   0.348   2.890  0.5906  0.5810 -0.2346
11197TIP3    H255083   4.128   0.266   2.789 -0.6100  0.2206  0.9375
11198TIP3   OH255084   6.336   6.467  11.960 -0.0229 -0.6598  0.3871
11198TIP3    H155085   6.408   6.528  11.949 -1.1198  0.6409  0.2138
11198TIP3    H255086   6.350   6.399  11.894  1.0855 -0.4748  0.4366
11199TIP3   OH255087   6.601   2.800   2.097  0.1402  0.3739 -1.1298
11199TIP3    H155088   6.689   2.836   2.101 -0.2407  1.2073 -0.1104
11199TIP3    H255089   6.582   2.791   2.003  0.2337  2.8062 -1.3945
11200TIP3   OH255090   3.140   5.654  16.370 -0.1196 -0.0666 -0.1041
11200TIP3    H155091   3.236   5.654  16.371 -0.1223  0.7676 -0.0562
11200TIP3    H255092   3.115   5.655  16.462 -0.1781 -1.0180 -0.1001
11201TIP3   OH255093   2.408   3.223  15.197  0.0032 -0.5198  0.3363
11201TIP3    H155094   2.421   3.129  15.191 -0.3629 -0.6198  1.0424
11201TIP3    H255095   2.324   3.239  15.154  0.4027 -0.4188 -0.4210
11202TIP3   OH255096   2.480   0.906   6.283  0.0242  0.3385 -0.2039
11202TIP3    H155097   2.515   0.994   6.303  3.4211 -1.1407  0.8549
11202TIP3    H255098   2.436   0.880   6.364 -1.9151  1.4257 -0.8696
11203TIP3   OH255099   3.484   5.048   4.415  0.2096  0.5526 -0.6810
11203TIP3    H155100   3.556   5.101   4.382  0.9347 -0.4970 -0.8026
11203TIP3    H255101   3.423   5.042   4.341 -0.1331  1.6336 -0.5028
11204TIP3   OH255102   1.681   6.495  11.821 -0.1279  0.3762 -0.3364
11204TIP3    H155103   1.595   6.471  11.857  0.2833 -2.6466 -1.2114
11204TIP3    H255104   1.743   6.437  11.867  0.8780 -0.6229 -2.8895
11205TIP3   OH255105   1.010   2.539   3.305 -0.6668  0.5272 -0.3486
11205TIP3    H155106   0.928   2.527   3.257 -0.4423 -0.0730 -0.5822
11205TIP3    H255107   1.033   2.631   3.291 -0.4615  0.2842 -1.5962
11206TIP3   OH255108   0.567   1.554  14.530 -0.8263 -0.0467  0.3068
11206TIP3    H155109   0.549   1.477  14.585  0.1568  0.3177  1.1607
11206TIP3    H255110   0.604   1.618  14.591  0.8181  0.1690 -0.8950
11207TIP3   OH255111   5.072   3.292   2.791 -0.4357  1.2007 -0.5242
11207TIP3    H155112   5.019   3.277   2.869 -1.9961  0.0287 -1.7713
11207TIP3    H255113   5.156   3.323   2.824 -0.8945  0.1929  1.6364
11208TIP3   OH255114   2.139   4.381   2.195 -0.7034 -0.2556 -0.5375
11208TIP3    H155115   2.142   4.350   2.104  3.0185 -1.0591 -0.2585
11208TIP3    H255116   2.216   4.437   2.204 -1.4324  0.4355  1.9298
11209TIP3   OH255117   4.941   1.640  13.834  0.2160 -0.2884 -0.1228
11209TIP3    H155118   5.036   1.648  13.827 -0.1503  1.7915 -3.5515
11209TIP3    H255119   4.926   1.545  13.842  2.3781 -1.1132 -4.3927
11210TIP3   OH255120   6.718   5.993  14.986 -0.9887 -0.4190  0.1994
11210TIP3    H155121   6.649   5.962  14.927  0.1165  0.2746 -1.4777
11210TIP3    H255122   6.689   6.080  15.012 -0.2963  0.2609 -1.2615
11211TIP3   OH255123   2.022   2.214  12.377  0.2000  0.5055  0.0583
11211TIP3    H155124   1.931   2.238  12.394 -0.3297 -0.1404 -1.6872
11211TIP3    H255125   2.016   2.146  12.309  1.9530  0.0482  0.3444
11212TIP3   OH255126   4.520   6.538  15.666 -0.4530 -1.1178 -0.0069
11212TIP3    H155127   4.583   6.585  15.612 -1.0141 -1.2253 -0.7730
11212TIP3    H255128   4.436   6.552  15.622 -1.1205 -0.1501  1.5464
11213TIP3   OH255129   3.703   5.053  10.996  0.0442  0.2842  0.4260
11213TIP3    H155130   3.663   5.140  10.987  0.4355  0.3230 -1.1566
11213TIP3    H255131   3.780   5.068  11.051  1.9335  1.5775 -2.4412
11214TIP3   OH255132   2.928   2.735   1.360 -0.4121 -0.0367 -0.6010
11214TIP3    H155133   2.924   2.679   1.283  1.0115 -0.1486 -0.6181
11214TIP3    H255134   2.992   2.693   1.417 -2.0001 -0.3293  0.9618
11215TIP3   OH255135   1.700   5.905  15.326 -0.1111  0.0162  0.8719
11215TIP3    H155136   1.627   5.879  15.383  0.5717  0.8643  2.1565
11215TIP3    H255137   1.676   5.993  15.295 -0.5381 -0.4929 -0.2605
11216TIP3   OH255138   2.144   6.159  13.363 -0.0131 -0.1098  0.5875
11216TIP3    H155139   2.111   6.117  13.284 -0.1462  0.0434  0.5637
11216TIP3    H255140   2.170   6.087  13.419  2.7252 -0.2168 -0.7200
11217TIP3   OH255141   0.926   3.852  16.586 -0.3325  0.3351 -0.0505
11217TIP3    H155142   0.930   3.941  16.552  0.8072 -0.0710 -1.0495
11217TIP3    H255143   0.961   3.798  16.515 -1.4223 -0.9635  0.3577
11218TIP3   OH255144   1.999   6.288  10.579  0.2581  0.5574 -0.1333
11218TIP3    H155145   1.991   6.286  10.674 -1.2832  2.4444 -0.1843
11218TIP3    H255146   2.041   6.372  10.560 -0.6193  0.7843 -1.1612
11219TIP3   OH255147   4.188   2.405   2.564  0.3252  0.2679 -0.3349
11219TIP3    H155148   4.171   2.498   2.548  0.7765  0.5750  0.9022
11219TIP3    H255149   4.283   2.399   2.575  0.1655 -0.1221  0.8965
11220TIP3   OH255150   2.375   3.317  14.729 -0.0864  0.0027  0.5998
11220TIP3    H155151   2.420   3.363  14.658 -2.3732 -0.9410 -1.4901
11220TIP3    H255152   2.400   3.366  14.808  1.2581  1.9969 -1.0162
11221TIP3   OH255153   5.951   2.465   5.858  0.0839 -0.1173  0.8603
11221TIP3    H155154   5.919   2.554   5.869  0.8057  0.1196  1.0579
11221TIP3    H255155   5.997   2.445   5.939 -1.2167 -1.1570  1.3603
11222TIP3   OH255156   0.460   2.827  15.491  0.1644 -0.1535  0.2252
11222TIP3    H155157   0.553   2.842  15.473 -0.1966  1.4365 -0.4189
11222TIP3    H255158   0.443   2.739  15.459  0.9155  0.3975 -1.7475
11223TIP3   OH255159   6.541   1.763  13.410  0.6999 -0.2415  0.1364
11223TIP3    H155160   6.502   1.841  13.449 -1.0329  0.1875 -2.2812
11223TIP3    H255161   6.562   1.706  13.484  1.2005  2.1404  1.8821
11224TIP3   OH255162   2.005   6.728   1.052  0.6422  0.2587 -0.6119
11224TIP3    H155163   1.966   6.771   1.127 -0.3025  0.4269 -1.1947
11224TIP3    H255164   1.934   6.678   1.012  1.6696 -1.7057 -0.0539
11225TIP3   OH255165   6.530   1.284  12.592  0.5246  0.5864  0.3681
11225TIP3    H155166   6.460   1.254  12.650 -0.9620 -0.9620 -2.0996
11225TIP3    H255167   6.520   1.379  12.589  0.4159  0.6449  2.3590
11226TIP3   OH255168   3.103   4.863  15.193  0.4701  0.4344  1.2840
11226TIP3    H155169   3.122   4.814  15.273  4.2576  0.2662  0.4113
11226TIP3    H255170   3.120   4.800  15.122  0.1898  1.4554  0.2977
11227TIP3   OH255171   1.077   5.557  16.352  0.1443 -0.7195 -0.5040
11227TIP3    H155172   1.159   5.601  16.375  0.4427 -0.1127 -2.6659
11227TIP3    H255173   1.104   5.472  16.316 -0.1972 -0.6323 -0.9621
11228TIP3   OH255174   2.378   2.433   4.569  0.0002  0.5746 -0.5923
11228TIP3    H155175   2.411   2.523   4.572 -0.6432  0.7876  0.0886
11228TIP3    H255176   2.457   2.379   4.564  0.5438  0.9970  2.6411
11229TIP3   OH255177   6.219   3.982  13.651  0.3609  0.4042 -0.0029
11229TIP3    H155178   6.242   4.024  13.568  1.1801  1.9455  0.9793
11229TIP3    H255179   6.301   3.977  13.699  0.0858 -1.4584  0.3015
11230TIP3   OH255180   3.224   0.152  12.352  0.1118  0.1049  0.3397
11230TIP3    H155181   3.258   0.097  12.282 -1.0434  0.8491 -0.8168
11230TIP3    H255182   3.232   0.241  12.319  0.9785  0.5806  1.7701
11231TIP3   OH255183   5.617   0.725   6.577 -0.1023 -0.3996 -0.7985
11231TIP3    H155184   5.576   0.796   6.529 -1.5684 -0.9188 -0.3321
11231TIP3    H255185   5.563   0.714   6.655  2.0876  0.2449  0.8501
11232TIP3   OH255186   5.722   2.248   5.974  0.1724 -0.1114 -0.0363
11232TIP3    H155187   5.798   2.207   6.014 -0.0209 -0.6086 -0.1756
11232TIP3    H255188   5.758   2.323   5.925  0.5527 -0.2736 -0.0062
11233TIP3   OH255189   6.089   3.581   1.143  0.0970 -0.2693  0.0033
11233TIP3    H155190   6.043   3.516   1.196 -1.6850 -0.0867 -1.2799
11233TIP3    H255191   6.125   3.643   1.207 -1.7649 -0.2031  1.0246
11234TIP3   OH255192   5.015   3.828   5.574  0.0381 -0.1116  0.6080
11234TIP3    H155193   4.999   3.734   5.569  0.3848 -0.3018  2.8198
11234TIP3    H255194   5.043   3.852   5.485 -0.7844 -1.9368 -0.1751
11235TIP3   OH255195   3.981   5.055   1.176  0.6071  0.7207  0.4093
11235TIP3    H155196   3.950   5.044   1.087  1.7981 -0.5230  0.1364
11235TIP3    H255197   4.048   4.987   1.188 -0.6772 -0.2030  2.7715
11236TIP3   OH255198   3.429   4.348   5.713 -0.2997 -0.0953  0.6706
11236TIP3    H155199   3.474   4.269   5.682 -0.0662  0.4839 -0.4966
11236TIP3    H255200   3.336   4.330   5.698 -0.2167  0.0160  0.0095
11237TIP3   OH255201   6.635   0.161  11.369  0.2216  0.3284  0.5206
11237TIP3    H155202   6.638   0.185  11.276 -0.3004 -1.3864  0.0513
11237TIP3    H255203   6.558   0.205  11.403 -2.1527 -2.5510 -0.9063
11238TIP3   OH255204   1.907   0.427   0.199  0.8914  0.0875 -0.2194
11238TIP3    H155205   1.860   0.472   0.270  0.2980 -0.2526 -0.3924
11238TIP3    H255206   1.998   0.452   0.212  0.5660  1.3870 -0.3410
11239TIP3   OH255207   4.744   1.328   4.145  0.4518  0.1172  0.1967
11239TIP3    H155208   4.772   1.242   4.176  0.3546 -0.0557 -0.1795
11239TIP3    H255209   4.816   1.357   4.088 -0.2085 -0.4204 -0.9359
11240TIP3   OH255210   5.077   3.797  16.119  0.2248  0.0377  0.4396
11240TIP3    H155211   5.103   3.888  16.108 -1.4852  0.5793  0.6646
11240TIP3    H255212   5.114   3.771  16.203 -0.0868  0.8380  0.8317
11241TIP3   OH255213   4.502   2.955   4.597  0.3060  0.1313  0.2607
11241TIP3    H155214   4.581   2.902   4.605  1.0399  0.6367 -2.7326
11241TIP3    H255215   4.430   2.896   4.619  1.4092 -0.8369  1.2868
11242TIP3   OH255216   1.296   5.659   3.653 -0.2080  0.7182 -0.7193
11242TIP3    H155217   1.208   5.639   3.685  0.6463 -1.6785  0.2804
11242TIP3    H255218   1.325   5.577   3.611  2.2697  0.8123  0.7124
11243TIP3   OH255219   1.616   1.738   0.629 -0.3467  0.3518  0.3182
11243TIP3    H155220   1.590   1.829   0.612  1.8461  0.7029 -1.3837
11243TIP3    H255221   1.705   1.744   0.662  0.3631 -1.2510 -1.2181
11244TIP3   OH255222   4.854   5.103  11.725  0.0806  0.3975  0.0805
11244TIP3    H155223   4.827   5.021  11.767  0.5877 -0.2141 -0.7781
11244TIP3    H255224   4.812   5.172  11.777  0.2364 -0.3745  1.2349
11245TIP3   OH255225   5.495   1.550   1.186  0.0278 -0.1127 -0.8257
11245TIP3    H155226   5.443   1.628   1.163  1.8375  1.0868 -0.9803
11245TIP3    H255227   5.534   1.572   1.271 -2.2333 -2.3070  0.8507
11246TIP3   OH255228   0.567   2.719  11.789  0.4097  0.6487 -0.3340
11246TIP3    H155229   0.476   2.736  11.764  0.2482 -0.8430 -0.8044
11246TIP3    H255230   0.598   2.802  11.825 -0.6681  1.6159 -1.5955
11247TIP3   OH255231   4.494   4.073  12.630  0.0483  0.0019  0.5883
11247TIP3    H155232   4.401   4.066  12.649  0.1380 -1.7793  0.4122
11247TIP3    H255233   4.525   4.142  12.690 -1.1600 -0.1474  1.4158
11248TIP3   OH255234   6.368   6.081   3.521 -0.0856 -0.2346  0.0445
11248TIP3    H155235   6.350   6.156   3.463 -1.2684  0.2095  0.9637
11248TIP3    H255236   6.285   6.034   3.525 -0.1060 -0.1008  1.5931
11249TIP3   OH255237   5.722   5.545  13.258 -0.2874  0.5072  0.4938
11249TIP3    H155238   5.676   5.488  13.196  0.2063 -0.8331  1.3247
11249TIP3    H255239   5.787   5.591  13.204 -0.7698  0.3606 -0.2181
11250TIP3   OH255240   1.415   0.037   5.623 -0.1868 -0.3071 -0.6269
11250TIP3    H155241   1.505   0.053   5.592  0.2882  0.0407  0.8978
11250TIP3    H255242   1.393   0.116   5.673 -1.2073 -0.5574 -0.6913
11251TIP3   OH255243   4.829   3.443   4.700  0.0565  0.3180  0.2702
11251TIP3    H155244   4.897   3.501   4.734  1.5070 -0.1766 -1.6843
11251TIP3    H255245   4.822   3.372   4.764  1.5988  0.2295  0.3446
11252TIP3   OH255246   1.935   4.110   2.918  0.2737 -0.1688 -0.2489
11252TIP3    H155247   1.979   4.058   2.985  1.9790  0.4931 -0.8330
11252TIP3    H255248   1.951   4.063   2.836 -1.4992 -0.7816 -0.2668
11253TIP3   OH255249   6.077   2.178   1.620 -0.3376 -0.0939  0.7101
11253TIP3    H155250   6.081   2.136   1.705 -0.5904 -1.0384  0.2589
11253TIP3    H255251   6.131   2.123   1.563  1.1727  1.4218  0.6310
11254TIP3   OH255252   1.109   6.730   3.069 -0.2729 -0.0557  0.6684
11254TIP3    H155253   1.135   6.658   3.125 -1.8242  0.0640  1.5552
11254TIP3    H255254   1.087   6.689   2.985 -0.7165 -0.5656  1.0316
11255TIP3   OH255255   4.024   1.799   3.811 -0.1789 -0.3616 -0.1826
11255TIP3    H155256   3.982   1.714   3.799 -0.9599  0.0406 -0.3545
11255TIP3    H255257   3.986   1.832   3.893  0.6397 -0.4816  0.2470
11256TIP3   OH255258   2.749   6.218   3.198 -0.3164  0.6005 -0.5842
11256TIP3    H155259   2.789   6.144   3.154 -0.8711  0.1712 -0.3792
11256TIP3    H255260   2.682   6.179   3.254  0.1358  1.1627  0.3656
11257TIP3   OH255261   0.645   1.024  11.787  0.3094  0.4029  0.2093
11257TIP3    H155262   0.718   1.087  11.787 -0.8612  1.8013 -1.6047
11257TIP3    H255263   0.686   0.940  11.805  2.4028  1.1637 -0.8118
11258TIP3   OH255264   5.858   3.851   5.739  0.3449 -0.1523 -0.2649
11258TIP3    H155265   5.893   3.938   5.718  1.2684 -0.3379  0.4899
11258TIP3    H255266   5.924   3.811   5.795  0.3621 -1.7267 -1.3764
11259TIP3   OH255267   1.685   6.587  15.822  0.2892  0.0466  0.4865
11259TIP3    H155268   1.733   6.512  15.788  0.2732  0.5410 -0.6770
11259TIP3    H255269   1.716   6.661  15.769 -0.5335  0.6555  0.8400
11260TIP3   OH255270   2.604   5.896   0.993  0.0170  0.2699  0.0457
11260TIP3    H155271   2.590   5.841   1.070 -1.9072  1.5306  0.6521
11260TIP3    H255272   2.558   5.851   0.923 -0.9915  0.7392  0.3912
11261TIP3   OH255273   0.534   4.448   5.437 -0.2528 -0.6162 -0.3466
11261TIP3    H155274   0.629   4.435   5.445  0.0140  0.6850 -1.2193
11261TIP3    H255275   0.496   4.379   5.491  1.1989 -1.0105  0.2052
11262TIP3   OH255276   1.531   0.004  14.623 -0.1860 -0.0131 -0.4773
11262TIP3    H155277   1.543   0.008  14.718 -1.8027  0.5179 -0.2816
11262TIP3    H255278   1.619  -0.008  14.588  0.0466 -3.9563  1.2841
11263TIP3   OH255279   3.016   1.233  15.219  0.1421  0.5266  0.9312
11263TIP3    H155280   2.976   1.155  15.257 -0.0175 -0.1332 -0.5368
11263TIP3    H255281   2.964   1.251  15.141 -0.5417  2.8177  1.8739
11264TIP3   OH255282   0.941   1.795   6.025 -0.3389 -0.1753  0.0941
11264TIP3    H155283   1.016   1.829   6.074 -1.3598  2.9334 -0.3728
11264TIP3    H255284   0.899   1.733   6.085  1.8371 -0.9828  0.8379
11265TIP3   OH255285   6.308   3.932  16.954  0.1971 -0.1276  0.3081
11265TIP3    H155286   6.397   3.965  16.946  0.2679 -0.2259  0.6976
11265TIP3    H255287   6.316   3.837  16.951 -0.1159 -0.1251 -1.9672
11266TIP3   OH255288   6.339   1.446   4.323  0.2824 -0.3409  0.3035
11266TIP3    H155289   6.244   1.436   4.327  0.2033  0.1740 -0.3218
11266TIP3    H255290   6.369   1.421   4.411 -0.4612 -0.1539  0.6111
11267TIP3   OH255291   6.350   0.049   4.812 -0.4126 -0.8092 -0.7494
11267TIP3    H155292   6.273  -0.006   4.803 -1.3883  0.6106 -1.1540
11267TIP3    H255293   6.344   0.112   4.740  1.2382 -0.8327 -0.9362
11268TIP3   OH255294   4.251   3.551   4.541  0.4523  0.6798  0.2117
11268TIP3    H155295   4.306   3.490   4.492  1.8691  0.5681  1.8549
11268TIP3    H255296   4.197   3.496   4.597 -0.3032  0.8394 -0.3620
11269TIP3   OH255297   6.340   3.732   4.475 -0.0682  0.2326  0.3986
11269TIP3    H155298   6.260   3.685   4.499  0.6916 -1.0083  0.5812
11269TIP3    H255299   6.409   3.684   4.521  1.1221 -0.5493 -2.1508
11270TIP3   OH255300   4.302   4.808  13.733 -0.2438 -0.1224 -0.0740
11270TIP3    H155301   4.266   4.774  13.652  0.0530  0.6978 -0.5535
11270TIP3    H255302   4.353   4.736  13.769 -1.9797 -1.1382  0.3818
11271TIP3   OH255303   3.397   6.810  13.244  0.1110  0.2684  0.2670
11271TIP3    H155304   3.401   6.723  13.204  0.7233  0.8784 -1.0097
11271TIP3    H255305   3.473   6.814  13.301  1.5157  0.9134 -1.6281
11272TIP3   OH255306   3.847   6.169  13.789 -0.0702 -0.0010  0.2434
11272TIP3    H155307   3.919   6.142  13.732 -0.1074 -1.8435  1.0343
11272TIP3    H255308   3.781   6.100  13.779 -1.6030  1.5092 -0.2273
11273TIP3   OH255309   3.148   5.620  14.467 -0.7862 -0.1935 -0.4783
11273TIP3    H155310   3.166   5.672  14.545  2.1162 -0.3637 -0.9865
11273TIP3    H255311   3.068   5.658  14.431 -0.3472  2.0095  0.7885
11274TIP3   OH255312   0.388   0.580  11.264 -0.7572 -0.0894  0.2622
11274TIP3    H155313   0.461   0.603  11.321 -0.4476  1.5738 -0.7588
11274TIP3    H255314   0.393   0.485  11.256  0.9224 -0.0551  0.7045
11275TIP3   OH255315   6.312   5.550  17.219  0.0805  0.0108 -0.4645
11275TIP3    H155316   6.281   5.503  17.296  0.3046 -1.1819 -1.0815
11275TIP3    H255317   6.399   5.513  17.202  0.5585  1.1466 -0.5531
11276TIP3   OH255318   2.375   2.310  13.219  0.2268 -0.0699  0.1854
11276TIP3    H155319   2.410   2.228  13.185 -1.4702  0.0304 -1.9209
11276TIP3    H255320   2.439   2.339  13.284  2.4732 -1.4347 -1.3530
11277TIP3   OH255321   1.972   1.504   4.112  0.1404  0.2287  0.3978
11277TIP3    H155322   1.951   1.581   4.165 -1.3753 -0.1567  0.3896
11277TIP3    H255323   2.058   1.476   4.142  0.2270  1.2973  1.1493
11278TIP3   OH255324   2.273   1.842   3.090 -0.1649 -0.3663  0.3171
11278TIP3    H155325   2.261   1.871   3.000 -0.7078  1.0774  0.8443
11278TIP3    H255326   2.358   1.877   3.116 -0.4006 -0.0471  0.6550
11279TIP3   OH255327   1.608   0.421   0.204  0.5250 -0.5564 -0.4463
11279TIP3    H155328   1.635   0.513   0.201 -0.4776 -0.2465 -0.1072
11279TIP3    H255329   1.556   0.408   0.125 -1.5617 -0.1022  0.7880
11280TIP3   OH255330   0.471   4.572   1.637  0.0222 -0.4251 -0.0323
11280TIP3    H155331   0.403   4.527   1.587 -0.4037 -1.9108  1.8538
11280TIP3    H255332   0.520   4.502   1.681  0.8357  0.8098  1.0676
11281TIP3   OH255333   3.950   0.163  16.422  0.2828  0.3733  0.0155
11281TIP3    H155334   3.973   0.084  16.373 -1.7279  0.9814 -2.0234
11281TIP3    H255335   3.969   0.235  16.362  0.2189  1.3191  1.1081
11282TIP3   OH255336   3.596   2.019  14.748 -0.1143  0.0165  0.4113
11282TIP3    H155337   3.609   1.938  14.798 -2.1665 -0.9923 -0.6332
11282TIP3    H255338   3.649   2.008  14.669 -1.1786 -0.7579 -0.2059
11283TIP3   OH255339   4.633   3.042  12.558 -0.7208 -0.2543  0.2150
11283TIP3    H155340   4.568   3.079  12.499  0.1607  0.4639 -0.3214
11283TIP3    H255341   4.678   2.975  12.506  0.5308  0.8668 -0.1602
11284TIP3   OH255342   0.389   0.830  11.928  0.7261 -0.1998 -0.0501
11284TIP3    H155343   0.423   0.891  11.994  0.4577 -0.0503 -0.0491
11284TIP3    H255344   0.463   0.773  11.907  0.9802  0.1339 -0.0572
11285TIP3   OH255345   5.200   4.825  14.911 -0.1438 -0.3645  0.1483
11285TIP3    H155346   5.175   4.872  14.991 -0.1645 -1.0436  0.5423
11285TIP3    H255347   5.126   4.837  14.852 -0.9959 -1.5272  0.9528
11286TIP3   OH255348   4.325   2.853  16.407 -0.3551 -0.6603 -0.3461
11286TIP3    H155349   4.371   2.769  16.403 -0.9280 -0.9182 -1.7208
11286TIP3    H255350   4.348   2.897  16.325 -1.4193 -0.1931 -0.4030
11287TIP3   OH255351   4.828   2.782  12.438 -0.0278 -0.1374 -0.6265
11287TIP3    H155352   4.781   2.824  12.366  1.6493  0.8963 -1.1647
11287TIP3    H255353   4.911   2.755  12.399  1.0031  0.6404  0.9582
11288TIP3   OH255354   6.392   0.039   2.418 -0.2523 -0.0947 -0.2484
11288TIP3    H155355   6.481   0.069   2.437 -0.4582 -0.3118  1.0787
11288TIP3    H255356   6.341   0.061   2.496 -0.7246 -2.5122  0.1832
11289TIP3   OH255357   5.918   6.493  12.699  0.2145  0.3593  0.3304
11289TIP3    H155358   5.917   6.584  12.729  0.8648  0.3407  0.3952
11289TIP3    H255359   5.825   6.470  12.693  0.0586  0.7047  1.3098
11290TIP3   OH255360   4.532   1.617   0.670  0.1658  0.2951  0.1025
11290TIP3    H155361   4.476   1.666   0.611 -0.0962  1.0760  0.9834
11290TIP3    H255362   4.620   1.650   0.653  0.1758  0.0589 -0.3022
11291TIP3   OH255363   0.473   3.400  13.788 -0.3452  0.1581 -0.0752
11291TIP3    H155364   0.394   3.413  13.839  0.3075  1.8844  0.5167
11291TIP3    H255365   0.544   3.412  13.851  0.4177  0.5343 -1.0047
11292TIP3   OH255366   1.669   5.141   0.056 -0.2552 -0.2523 -0.2054
11292TIP3    H155367   1.575   5.153   0.061 -0.2614  0.0715 -0.9954
11292TIP3    H255368   1.703   5.179   0.137 -0.9180 -1.6824  0.7673
11293TIP3   OH255369   3.072   4.160  15.998  0.1717 -0.2820 -0.0814
11293TIP3    H155370   3.082   4.117  15.913  0.6661 -2.3486  0.9910
11293TIP3    H255371   3.024   4.097  16.051  0.9540  0.4805  1.5572
11294TIP3   OH255372   2.897   0.601  13.106  0.1343  0.3738  0.4377
11294TIP3    H155373   2.810   0.582  13.139 -0.0790 -0.8423 -0.7847
11294TIP3    H255374   2.883   0.626  13.014  1.2130 -1.5872 -0.2951
11295TIP3   OH255375   0.498   0.645  10.992  0.3148 -0.3583  0.0899
11295TIP3    H155376   0.504   0.549  10.992 -0.1934 -0.4072  1.9301
11295TIP3    H255377   0.449   0.666  11.071 -1.4587  1.3347 -1.3917
11296TIP3   OH255378   1.043   0.543   3.805  0.0898 -0.1303 -0.0653
11296TIP3    H155379   0.952   0.519   3.822 -0.5928  3.5460  1.9711
11296TIP3    H255380   1.089   0.522   3.887  0.6201  0.1018 -0.3003
11297TIP3   OH255381   0.314   5.408   0.451 -0.4962 -0.0440 -0.2603
11297TIP3    H155382   0.343   5.347   0.519 -0.3206 -0.2617 -0.5271
11297TIP3    H255383   0.361   5.380   0.373  1.5065  1.9924  0.1768
11298TIP3   OH255384   0.365   6.689  16.494 -0.1265 -0.2502 -0.4707
11298TIP3    H155385   0.353   6.733  16.410 -2.0670  0.9034  0.3763
11298TIP3    H255386   0.276   6.673  16.525  0.5711 -1.6663  0.8625
11299TIP3   OH255387   5.249   1.926  12.386  0.3813  0.1895  0.2770
11299TIP3    H155388   5.214   1.995  12.443  0.3872  0.2867  0.1626
11299TIP3    H255389   5.193   1.850  12.403  0.8056  0.0118  0.9222
11300TIP3   OH255390   3.279   4.808  16.708 -0.1494 -0.5460  0.0878
11300TIP3    H155391   3.264   4.854  16.625 -0.7467 -1.5124 -0.3367
11300TIP3    H255392   3.244   4.867  16.775 -1.1661 -0.5132 -0.4765
11301TIP3   OH255393   1.721   1.741   0.976  0.5327  0.4102 -0.1843
11301TIP3    H155394   1.701   1.744   1.069  2.7430 -2.8775  0.4572
11301TIP3    H255395   1.789   1.808   0.964 -0.0543  1.1338  0.4574
11302TIP3   OH255396   2.222   5.172   4.129  0.2435 -0.4418  0.0161
11302TIP3    H155397   2.286   5.151   4.197  0.8421  1.3146  0.0179
11302TIP3    H255398   2.141   5.189   4.177 -0.2149 -2.5544  0.0238
11303TIP3   OH255399   5.557   5.043  16.278 -0.0049  0.3680 -0.5017
11303TIP3    H155400   5.544   5.026  16.371 -1.5282  1.8920 -0.4067
11303TIP3    H255401   5.512   4.971  16.234  0.8002 -0.4078 -0.0798
11304TIP3   OH255402   2.534   1.625  11.462 -0.2640  0.2822 -0.0334
11304TIP3    H155403   2.554   1.569  11.387 -0.0182 -0.3792  0.5215
11304TIP3    H255404   2.615   1.675  11.477 -0.3461  0.4841 -0.2722
11305TIP3   OH255405   2.046   1.544   4.983 -0.3460 -0.6173  0.0329
11305TIP3    H155406   2.072   1.578   4.898  0.0972  0.1608  0.4816
11305TIP3    H255407   2.075   1.452   4.982  1.1915 -0.1406  0.0029
11306TIP3   OH255408   1.302   3.803  10.836 -0.1040 -0.1788  0.5135
11306TIP3    H155409   1.356   3.860  10.781 -0.9031  0.8945  0.8289
11306TIP3    H255410   1.345   3.718  10.830  1.7373  0.6879  0.9284
11307TIP3   OH255411   5.410   3.274   5.714 -0.3560  0.4005 -0.1149
11307TIP3    H155412   5.502   3.247   5.713 -0.5736 -0.3361 -0.2997
11307TIP3    H255413   5.365   3.205   5.762 -0.7400  1.0268  0.4398
11308TIP3   OH255414   5.019   4.016   3.211  0.2047 -0.7051  0.9917
11308TIP3    H155415   5.055   4.052   3.292  0.7872 -0.9891  0.8680
11308TIP3    H255416   5.089   3.959   3.178  0.6139  0.6482 -0.5430
11309TIP3   OH255417   1.558   5.749   1.737  0.2726 -0.0586 -0.2806
11309TIP3    H155418   1.584   5.722   1.825 -1.1687 -0.8483 -0.0830
11309TIP3    H255419   1.465   5.727   1.731  0.7058 -1.4816 -2.5634
11310TIP3   OH255420   4.968   3.536  12.292 -0.0539  0.0008  0.1254
11310TIP3    H155421   4.943   3.626  12.274  0.2025  0.7139  3.1172
11310TIP3    H255422   5.037   3.517  12.228 -1.0783  1.4318 -1.4485
11311TIP3   OH255423   4.095   1.160   0.736  0.0604 -0.6065  0.0390
11311TIP3    H155424   4.066   1.250   0.747  1.4926 -0.2480  1.1162
11311TIP3    H255425   4.148   1.161   0.656  1.6630 -0.0480  1.0729
11312TIP3   OH255426   2.366   0.319  14.753 -0.2913 -0.1874 -0.1748
11312TIP3    H155427   2.311   0.275  14.817 -0.7696 -1.7885 -1.6386
11312TIP3    H255428   2.306   0.342  14.682  0.4304  0.5557 -0.5530
11313TIP3   OH255429   2.479   5.724  12.871  0.5490  0.0677  0.4329
11313TIP3    H155430   2.528   5.677  12.804  0.3310 -0.5605  0.7100
11313TIP3    H255431   2.531   5.713  12.951  0.8598  0.8970  0.3534
11314TIP3   OH255432   2.961   5.485   5.735  0.1251 -0.2612 -1.0378
11314TIP3    H155433   3.055   5.504   5.730  0.2259 -0.1925  0.6371
11314TIP3    H255434   2.953   5.394   5.705  1.2788 -1.6039  2.4220
11315TIP3   OH255435   3.772   2.721  17.045 -0.0550 -0.1821  0.1528
11315TIP3    H155436   3.731   2.638  17.021  1.1679 -0.6239 -0.4810
11315TIP3    H255437   3.737   2.784  16.982  0.1866 -0.5532 -0.3663
11316TIP3   OH255438   0.007   4.806   6.273 -0.3677  0.1702  0.7774
11316TIP3    H155439   0.028   4.716   6.250 -1.0237  0.3641 -0.6298
11316TIP3    H255440   0.091   4.850   6.281 -0.0961 -0.2099 -0.0112
11317TIP3   OH255441   3.915   1.238  14.461  0.6431  0.1228 -0.4646
11317TIP3    H155442   3.946   1.151  14.435  2.5263  0.7747 -0.4907
11317TIP3    H255443   3.890   1.227  14.553  0.6996 -0.5009 -0.5193
11318TIP3   OH255444   0.266   0.919  14.884 -0.1378  0.4592  0.0508
11318TIP3    H155445   0.304   0.916  14.972  1.7663  0.7209 -0.7563
11318TIP3    H255446   0.238   1.010  14.873  1.2564  0.8455 -0.3012
11319TIP3   OH255447   2.622   6.281   5.268  0.4135  0.6082  0.0760
11319TIP3    H155448   2.583   6.351   5.217  2.8347  3.5402  2.0657
11319TIP3    H255449   2.713   6.276   5.237 -0.1105 -2.7165 -1.0829
11320TIP3   OH255450   2.743   6.131   3.906 -0.5529 -0.2313  0.4525
11320TIP3    H155451   2.661   6.136   3.858  0.2475 -1.9092 -1.1181
11320TIP3    H255452   2.794   6.205   3.874 -1.3136  0.6558  1.2368
11321TIP3   OH255453   2.095   4.154  16.438  0.3289 -0.2492  0.1678
11321TIP3    H155454   2.013   4.201  16.425  0.7852  0.7640  0.8610
11321TIP3    H255455   2.089   4.117  16.526  0.1463 -1.1259 -0.2154
11322TIP3   OH255456   1.520   4.430  10.496 -0.4833 -0.0388 -0.5162
11322TIP3    H155457   1.504   4.510  10.545  0.7114  0.2929 -0.6588
11322TIP3    H255458   1.437   4.411  10.453 -1.5525 -0.3156  1.5799
11323TIP3   OH255459   3.362   3.043  16.943 -0.0533  0.6903 -0.2922
11323TIP3    H155460   3.272   3.027  16.914  0.6380 -0.3894 -1.8913
11323TIP3    H255461   3.361   3.134  16.974 -2.1382  0.1096  1.4857
11324TIP3   OH255462   0.358   4.661   3.659  0.1128 -0.2649 -0.7234
11324TIP3    H155463   0.402   4.742   3.634  1.6487 -0.8076  0.1229
11324TIP3    H255464   0.297   4.687   3.727  0.1334  0.2820 -0.9083
11325TIP3   OH255465   5.252   2.225   3.948 -0.2287 -0.0447  0.6364
11325TIP3    H155466   5.209   2.241   4.032  1.7828 -1.9540  2.1240
11325TIP3    H255467   5.186   2.182   3.895 -0.8419 -0.9639  2.1082
11326TIP3   OH255468   4.247   5.575   3.596  0.0998 -0.1572  0.4700
11326TIP3    H155469   4.298   5.620   3.528  0.2292  0.9008  1.2532
11326TIP3    H255470   4.310   5.561   3.667 -0.2935 -0.3116  0.7875
11327TIP3   OH255471   6.719   0.093   1.373  0.6299 -0.1065  0.2334
11327TIP3    H155472   6.750   0.056   1.290  3.2967 -0.3972  1.3224
11327TIP3    H255473   6.649   0.034   1.401  0.8222 -0.9413 -0.9911
11328TIP3   OH255474   1.114   6.714  14.404  0.6735 -0.2760 -0.0843
11328TIP3    H155475   1.158   6.793  14.434  1.9371 -0.8854 -0.2996
11328TIP3    H255476   1.118   6.718  14.309  0.1417 -0.2770 -0.1112
11329TIP3   OH255477   4.555   0.630   2.969 -0.1684  0.0350  0.1000
11329TIP3    H155478   4.630   0.628   3.029 -0.2767  0.9249  0.2832
11329TIP3    H255479   4.585   0.584   2.891 -0.0214 -1.1319  0.8370
11330TIP3   OH255480   4.344   4.013   5.872  0.2221  0.5557  0.2632
11330TIP3    H155481   4.440   4.020   5.865  0.3786 -0.9225  0.7313
11330TIP3    H255482   4.329   3.922   5.896 -1.3644  0.5766 -0.6183
11331TIP3   OH255483   3.445   6.071   2.008  0.1766 -0.3052 -0.5668
11331TIP3    H155484   3.521   6.102   1.958 -0.4875  2.6622  0.1541
11331TIP3    H255485   3.370   6.106   1.960 -0.6105 -0.6462  0.4153
11332TIP3   OH255486   6.005   1.671   1.375  0.1700  0.7549  0.1288
11332TIP3    H155487   6.026   1.633   1.461  0.3529  0.1138 -0.1939
11332TIP3    H255488   6.036   1.606   1.312 -0.3154  1.0462 -0.4158
11333TIP3   OH255489   2.257   3.828  12.412  0.4216  0.4145  0.4672
11333TIP3    H155490   2.246   3.871  12.327 -0.9122  0.4935  0.6590
11333TIP3    H255491   2.345   3.852  12.441  1.7127 -1.3180 -1.8412
11334TIP3   OH255492   0.583   1.894  15.391  0.2085  0.4474  0.1802
11334TIP3    H155493   0.537   1.867  15.471 -0.1889  0.9229  0.1133
11334TIP3    H255494   0.529   1.964  15.355 -0.9710 -1.4659 -1.8702
11335TIP3   OH255495   1.746   3.161   5.544  0.5417 -0.3959 -0.2452
11335TIP3    H155496   1.784   3.246   5.521  1.3585 -0.3860  1.0235
11335TIP3    H255497   1.818   3.115   5.588  0.4856 -2.2266 -1.9958
11336TIP3   OH255498   3.462   4.971   1.392  0.1741 -0.2659 -0.6777
11336TIP3    H155499   3.399   4.909   1.427 -2.9467  1.5951 -2.7859
11336TIP3    H255500   3.448   5.051   1.442  1.5717 -0.1243 -0.4876
11337TIP3   OH255501   1.303   1.630  15.450  0.3103  0.9639  0.2058
11337TIP3    H155502   1.317   1.540  15.419  2.7907  1.2810  0.2860
11337TIP3    H255503   1.223   1.626  15.501 -0.0007 -1.0628 -0.4113
11338TIP3   OH255504   1.263   0.053  13.243  0.4738  0.4262 -0.3664
11338TIP3    H155505   1.309   0.046  13.160  0.7790  2.4192 -0.3838
11338TIP3    H255506   1.332   0.055  13.309  0.3692  1.5567 -0.2712
11339TIP3   OH255507   4.763   3.412   5.739  0.0030  0.2335 -0.4286
11339TIP3    H155508   4.802   3.456   5.815  0.2608  1.4194 -1.2280
11339TIP3    H255509   4.672   3.396   5.765  0.2529  0.0836  0.3559
11340TIP3   OH255510   5.477   3.225   3.225 -0.1296 -0.2311 -0.2849
11340TIP3    H155511   5.548   3.207   3.286  0.1463 -0.2023 -0.5967
11340TIP3    H255512   5.497   3.312   3.190 -0.2522 -0.2772 -0.4695
11341TIP3   OH255513   2.273   2.472  11.719  0.2170 -0.4446  0.1024
11341TIP3    H155514   2.308   2.531  11.786 -1.8600  0.0542  0.8039
11341TIP3    H255515   2.330   2.395  11.723 -0.1309 -0.6355  2.8125
11342TIP3   OH255516   1.738   6.126  14.973 -0.2928 -0.1444  0.3329
11342TIP3    H155517   1.678   6.133  15.047 -0.6463  2.2416 -0.1551
11342TIP3    H255518   1.722   6.205  14.921  4.0233  1.1049  0.7214
11343TIP3   OH255519   1.148   0.500  16.066 -0.2817 -0.1516  0.8259
11343TIP3    H155520   1.153   0.448  16.145 -2.7542  1.1118  1.8701
11343TIP3    H255521   1.055   0.502  16.044  0.3769 -0.6842 -2.2647
11344TIP3   OH255522   5.254   2.554   5.864  0.4826 -0.0754 -0.0248
11344TIP3    H155523   5.213   2.532   5.948  0.8977  1.1834  0.5104
11344TIP3    H255524   5.186   2.600   5.815  0.9164  1.0978  0.4634
11345TIP3   OH255525   3.482   4.740  15.727  0.1530 -0.4152 -0.4123
11345TIP3    H155526   3.466   4.668  15.666 -0.4248 -0.8450  0.2498
11345TIP3    H255527   3.543   4.704  15.791 -0.7747 -0.5666  0.3844
11346TIP3   OH255528   5.836   1.304  15.838 -0.2332  0.2787  0.3001
11346TIP3    H155529   5.849   1.386  15.791 -3.0880  0.5593 -0.0812
11346TIP3    H255530   5.741   1.289  15.835  0.0424 -2.1031  1.9272
11347TIP3   OH255531   2.825   0.254  12.935  0.1075  0.0287 -0.6055
11347TIP3    H155532   2.778   0.183  12.892  0.0677 -0.6646  0.5789
11347TIP3    H255533   2.787   0.334  12.899 -0.8087 -0.5424 -0.9010
11348TIP3   OH255534   1.621   4.612   3.587  0.0978 -0.1981 -0.5134
11348TIP3    H155535   1.535   4.571   3.577 -0.6397  0.7693  1.5813
11348TIP3    H255536   1.684   4.542   3.565 -1.1810 -1.7004  0.4778
11349TIP3   OH255537   2.967   4.583  11.440 -0.0472  0.6351 -0.0469
11349TIP3    H155538   2.929   4.523  11.505 -0.5682 -0.3915 -1.2830
11349TIP3    H255539   3.062   4.574  11.452 -0.1397  0.5478  0.6539
11350TIP3   OH255540   5.300   0.721   0.234 -0.2332 -0.2210  0.6315
11350TIP3    H155541   5.235   0.685   0.294 -1.9949  0.7327 -0.6598
11350TIP3    H255542   5.348   0.644   0.203 -0.0148 -0.8241  2.4147
11351TIP3   OH255543   6.168   2.398  11.372  0.4475 -0.5560 -1.4699
11351TIP3    H155544   6.153   2.311  11.337  2.4515 -0.7103 -2.0232
11351TIP3    H255545   6.185   2.453  11.296  0.0499  0.1340 -1.0704
11352TIP3   OH255546   2.224   5.718   4.463 -0.2411 -0.5743 -0.3111
11352TIP3    H155547   2.287   5.779   4.425 -0.2970  0.2902  0.9480
11352TIP3    H255548   2.277   5.650   4.504 -0.0941  0.1788  0.7898
11353TIP3   OH255549   5.902   0.079  13.356 -0.0291 -0.1368 -0.7726
11353TIP3    H155550   5.938   0.047  13.439 -0.7078 -2.0875 -1.1990
11353TIP3    H255551   5.976   0.080  13.296 -0.0345 -1.1986 -0.8158
11354TIP3   OH255552   4.862   1.596  15.053 -0.6250  0.6390  0.0179
11354TIP3    H155553   4.808   1.622  14.978 -1.3347 -0.3270  0.1840
11354TIP3    H255554   4.864   1.500  15.048 -0.4473  0.5913  1.0732
11355TIP3   OH255555   1.814   1.895  14.328  0.8674 -0.5170 -0.3093
11355TIP3    H155556   1.789   1.875  14.238 -0.0829  0.8019 -0.3457
11355TIP3    H255557   1.756   1.840  14.381  0.2460 -0.0368 -0.4756
11356TIP3   OH255558   2.973   0.444  16.768 -0.2911 -0.5835  0.3717
11356TIP3    H155559   2.883   0.411  16.771 -0.6459  0.4402  1.6261
11356TIP3    H255560   2.969   0.518  16.707 -0.1440 -0.9683 -0.1108
11357TIP3   OH255561   5.813   3.298   4.879  0.1573 -0.2936 -0.2266
11357TIP3    H155562   5.851   3.228   4.932  0.3489 -1.2639 -1.6304
11357TIP3    H255563   5.877   3.369   4.883  1.1442 -1.1307 -0.8430
11358TIP3   OH255564   5.220   0.402   3.299 -0.1081 -0.0872  0.7704
11358TIP3    H155565   5.209   0.490   3.334  1.7159  0.2469  0.4977
11358TIP3    H255566   5.314   0.393   3.284 -0.4098 -1.6864 -0.2332
11359TIP3   OH255567   6.711   6.670   1.712  0.3825 -0.2344 -0.1538
11359TIP3    H155568   6.700   6.675   1.617 -1.8077 -1.7544 -0.0063
11359TIP3    H255569   6.706   6.577   1.732  3.0206 -0.1113  1.2370
11360TIP3   OH255570   5.474   5.200  15.614  0.1173  0.4920  0.0836
11360TIP3    H155571   5.521   5.269  15.661  0.4966  0.1538  0.2108
11360TIP3    H255572   5.427   5.245  15.544 -0.0002  0.9297  0.4472
11361TIP3   OH255573   3.042   3.649   0.277 -0.3636 -0.0700  0.2154
11361TIP3    H155574   3.011   3.696   0.354  0.4330  0.2284  0.3589
11361TIP3    H255575   3.137   3.645   0.288 -0.4235 -1.6796  0.1779
11362TIP3   OH255576   5.701   6.525   4.436 -0.7047  0.0297 -0.6691
11362TIP3    H155577   5.616   6.509   4.477 -0.4584 -2.3542 -0.9953
11362TIP3    H255578   5.749   6.443   4.448  0.8663  0.7010 -2.1243
11363TIP3   OH255579   3.857   1.135  15.674  0.1114  0.5734  0.3283
11363TIP3    H155580   3.862   1.221  15.634 -2.4119  0.7680  0.3611
11363TIP3    H255581   3.764   1.122  15.693  0.4338 -2.1640  0.3009
11364TIP3   OH255582   5.570   0.110  12.221 -0.8522 -0.0450 -0.1243
11364TIP3    H155583   5.481   0.101  12.255 -1.2491 -1.3818 -1.4434
11364TIP3    H255584   5.621   0.046  12.271 -0.6722  0.6015  0.5151
11365TIP3   OH255585   4.937   0.034   1.245 -0.3552 -1.0028 -0.1909
11365TIP3    H155586   4.889   0.089   1.183  0.3226  1.4939  1.3902
11365TIP3    H255587   4.938  -0.053   1.205 -1.2134  0.1918 -2.9415
11366TIP3   OH255588   3.377   3.107  13.095 -0.1584 -0.3085  0.6727
11366TIP3    H155589   3.359   3.046  13.024  1.1264  0.1747 -0.0885
11366TIP3    H255590   3.324   3.185  13.074  1.6894  0.5824 -0.8178
11367TIP3   OH255591   0.129   3.192  16.782 -0.0707  0.0511 -0.4530
11367TIP3    H155592   0.081   3.189  16.699  0.9945 -1.6898 -1.0210
11367TIP3    H255593   0.073   3.244  16.840 -2.0584 -0.8881 -1.4808
11368TIP3   OH255594   5.961   3.298   2.714 -0.0792 -0.3107  0.1187
11368TIP3    H155595   6.001   3.382   2.738  1.8155 -1.2664  0.3697
11368TIP3    H255596   5.956   3.250   2.797 -1.2731 -0.4056 -0.0039
11369TIP3   OH255597   1.388   6.258   5.540  0.0649 -0.0412 -0.1918
11369TIP3    H155598   1.331   6.207   5.597  0.1136 -0.6981 -0.7350
11369TIP3    H255599   1.474   6.253   5.581 -0.3341  1.3515  0.8961
11370TIP3   OH255600   6.539   1.934   2.667 -0.0401  0.0118  0.2337
11370TIP3    H155601   6.624   1.977   2.678  0.9370 -1.8309  0.0774
11370TIP3    H255602   6.479   1.987   2.719  1.2592  1.1330  0.6412
11371TIP3   OH255603   0.717   1.439  15.350  0.2183 -0.4109  0.1969
11371TIP3    H155604   0.703   1.409  15.261  0.2341  1.1268 -0.3411
11371TIP3    H255605   0.783   1.508  15.342  0.8406 -0.8259  1.4970
11372TIP3   OH255606   0.304   0.159  15.626  0.1727  0.1709 -0.3768
11372TIP3    H155607   0.380   0.191  15.675  2.1763 -0.3003 -3.0005
11372TIP3    H255608   0.280   0.232  15.569  0.3213 -0.5660 -1.4018
11373TIP3   OH255609   1.023   2.076  14.515  0.0295 -0.3604 -0.0432
11373TIP3    H155610   1.085   2.148  14.531  0.1031  0.0117 -1.9118
11373TIP3    H255611   1.056   2.003  14.567  0.9726  0.4046  0.4427
11374TIP3   OH255612   2.661   1.221   0.890  0.1777 -0.0389  0.2606
11374TIP3    H155613   2.710   1.303   0.892 -0.3971  0.3478 -1.2083
11374TIP3    H255614   2.728   1.153   0.881  0.6915  0.2205  1.9828
11375TIP3   OH255615   3.062   4.499  13.590 -0.1739  0.1932 -0.1633
11375TIP3    H155616   2.996   4.548  13.542  0.7618 -0.0667 -1.7423
11375TIP3    H255617   3.039   4.512  13.682 -2.3656  0.1468 -0.6896
11376TIP3   OH255618   4.136   3.417  16.022 -0.3695 -0.1191 -0.0580
11376TIP3    H155619   4.199   3.446  15.955  0.3679 -0.6377  0.3943
11376TIP3    H255620   4.186   3.419  16.103 -0.8688 -0.7996  0.2654
11377TIP3   OH255621   6.250   3.185   1.657 -0.0344 -0.4098  0.1283
11377TIP3    H155622   6.201   3.111   1.621 -2.1075  0.9127  0.1153
11377TIP3    H255623   6.234   3.181   1.751 -1.2411  0.7428 -0.0076
11378TIP3   OH255624   0.331   5.303   2.889 -0.3202 -0.2008  0.5136
11378TIP3    H155625   0.419   5.298   2.926 -0.0578 -0.0033 -0.0885
11378TIP3    H255626   0.274   5.273   2.960  0.2416 -0.4832  0.8485
11379TIP3   OH255627   3.037   2.125  13.849 -1.0197 -0.2888  0.4705
11379TIP3    H155628   3.025   2.219  13.862 -0.4311 -0.1001 -0.2917
11379TIP3    H255629   3.114   2.103  13.901  0.0563  0.0505 -0.9631
11380TIP3   OH255630   6.482   4.166  12.942 -0.0484  0.0986 -0.7344
11380TIP3    H155631   6.563   4.206  12.911  0.3950 -0.1741  0.0576
11380TIP3    H255632   6.507   4.117  13.020 -1.1988  0.9966  0.2281
11381TIP3   OH255633   1.179   3.616   1.228  0.8622  0.4771 -0.3116
11381TIP3    H155634   1.202   3.531   1.192  0.4471 -0.1708  0.9482
11381TIP3    H255635   1.257   3.644   1.277  1.5720  1.5357 -1.9996
11382TIP3   OH255636   3.563   4.445  13.003  0.2800  0.1521 -0.5316
11382TIP3    H155637   3.485   4.389  13.005  0.6152 -0.2939 -0.1913
11382TIP3    H255638   3.631   4.394  13.045  1.1838 -0.0714 -2.2209
11383TIP3   OH255639   3.534   2.101   4.828  0.1812 -0.0799 -0.8699
11383TIP3    H155640   3.522   2.006   4.828 -2.2480  0.1819 -1.6088
11383TIP3    H255641   3.574   2.120   4.913 -1.9365 -1.5109  0.5076
11384TIP3   OH255642   5.043   0.984  14.969  0.3340  0.0095 -0.0282
11384TIP3    H155643   5.004   0.899  14.986 -1.6513  1.1060  1.1834
11384TIP3    H255644   5.027   1.001  14.877  2.3658 -1.6938 -0.7313
11385TIP3   OH255645   1.503   1.452   3.205 -0.4691 -0.0650  0.0680
11385TIP3    H155646   1.583   1.427   3.158  0.7126  1.8865  0.9613
11385TIP3    H255647   1.527   1.445   3.297 -1.9482 -1.3078  0.3779
11386TIP3   OH255648   6.445   0.902  16.419 -0.0261  0.4570 -0.0320
11386TIP3    H155649   6.493   0.902  16.502  0.2439 -0.3553 -0.1865
11386TIP3    H255650   6.509   0.870  16.355 -0.8161 -0.7612 -0.2177
11387TIP3   OH255651   3.767   0.919  14.929  0.1151  0.2946  0.1444
11387TIP3    H155652   3.820   0.860  14.981  0.5793  0.4473 -0.1559
11387TIP3    H255653   3.795   1.007  14.956  0.0762  0.3750 -0.0705
11388TIP3   OH255654   1.453   1.832   3.890 -0.3291  0.5824  0.0426
11388TIP3    H155655   1.373   1.831   3.943 -0.0708 -2.0555  0.4277
11388TIP3    H255656   1.523   1.813   3.952  0.0470 -1.9375 -1.0801
11389TIP3   OH255657   3.522   0.313   0.241  0.2534 -0.4879 -0.3244
11389TIP3    H155658   3.612   0.340   0.224 -0.2631  1.7045  0.2508
11389TIP3    H255659   3.475   0.333   0.161 -0.0225 -0.2301 -0.0998
11390TIP3   OH255660   5.357   0.430   3.944  0.0925 -0.0359 -0.3508
11390TIP3    H155661   5.441   0.463   3.911  0.5965 -0.8076  0.1541
11390TIP3    H255662   5.348   0.469   4.031  0.7478 -1.3083  0.2979
11391TIP3   OH255663   1.641   5.371  11.215 -0.0676 -0.0614  0.6071
11391TIP3    H155664   1.620   5.343  11.304  0.1269 -1.3824  0.2440
11391TIP3    H255665   1.573   5.330  11.161  0.2705  0.1026  0.0589
11392TIP3   OH255666   3.262   2.066   1.578 -0.2770  0.0050 -0.3951
11392TIP3    H155667   3.279   1.976   1.549 -0.1544 -0.3299  0.6931
11392TIP3    H255668   3.347   2.109   1.572 -0.3745  0.1135 -1.1064
11393TIP3   OH255669   2.503   0.062  14.320 -0.3607  0.1928 -0.2319
11393TIP3    H155670   2.580   0.085  14.268 -1.3828  3.0946 -0.5407
11393TIP3    H255671   2.504   0.122  14.394 -1.5713 -0.6457  0.4856
11394TIP3   OH255672   1.210   6.598   1.886 -0.5248  0.5548  0.5832
11394TIP3    H155673   1.123   6.574   1.855 -0.8275  1.1797  0.9412
11394TIP3    H255674   1.230   6.679   1.838  0.2211 -0.0544 -0.1480
11395TIP3   OH255675   5.919   6.333   0.913  0.0331 -0.4686  0.0147
11395TIP3    H155676   5.962   6.385   0.845  0.6715 -1.2004 -0.1501
11395TIP3    H255677   5.827   6.333   0.888 -0.0012  0.7678  0.1383
11396TIP3   OH255678   3.625   0.396   1.081 -0.5490 -0.5804  0.0595
11396TIP3    H155679   3.601   0.441   1.162 -2.5403  0.2952 -0.9840
11396TIP3    H255680   3.573   0.316   1.082 -0.4255 -0.6656 -0.2539
11397TIP3   OH255681   4.715   2.763  17.184 -0.0596 -0.7535 -0.3130
11397TIP3    H155682   4.695   2.710  17.262  1.5503 -0.7502  0.1111
11397TIP3    H255683   4.758   2.702  17.124  2.5359  0.2202  0.5006
11398TIP3   OH255684   3.292   2.142   3.609  0.0948  0.3534 -0.4062
11398TIP3    H155685   3.329   2.156   3.522 -0.7840 -1.4235 -1.1025
11398TIP3    H255686   3.298   2.047   3.621 -2.3637  0.2711  0.3031
11399TIP3   OH255687   5.024   4.887  14.249  0.0258 -0.0178  0.0569
11399TIP3    H155688   4.933   4.875  14.222  0.2552 -0.4503 -0.5441
11399TIP3    H255689   5.020   4.894  14.345 -0.4512 -1.9630  0.2059
11400TIP3   OH255690   3.547   3.793  13.562  0.1528 -0.2021  0.4896
11400TIP3    H155691   3.452   3.795  13.576 -0.1071 -0.4225 -1.0632
11400TIP3    H255692   3.584   3.820  13.645 -1.2762 -0.2561  1.1674
11401TIP3   OH255693   4.783   0.305  16.516  0.3605  0.5151 -0.5770
11401TIP3    H155694   4.796   0.334  16.426 -0.8702  1.4730 -0.4557
11401TIP3    H255695   4.708   0.246  16.512 -0.8632  1.9916  0.0852
11402TIP3   OH255696   2.754   3.062   4.029 -0.3144 -0.1845  0.2507
11402TIP3    H155697   2.803   3.126   3.977 -2.3749  1.3986  0.2385
11402TIP3    H255698   2.706   3.011   3.964 -2.9848  1.8719  0.5501
11403TIP3   OH255699   0.041   1.903   5.925  0.0603  0.1823  0.3849
11403TIP3    H155700  -0.007   1.952   5.992  1.3835  0.5914  1.0487
11403TIP3    H255701   0.016   1.811   5.940 -1.6678  0.5346 -0.2447
11404TIP3   OH255702   3.819   5.357  16.105 -0.5423 -0.0352  0.3203
11404TIP3    H155703   3.810   5.415  16.030 -1.4572 -0.5504  0.0270
11404TIP3    H255704   3.882   5.401  16.162 -0.1952  0.5786 -0.5301
11405TIP3   OH255705   5.045   2.461   1.375 -0.2338  0.2870 -0.3265
11405TIP3    H155706   4.950   2.470   1.365 -0.3542  0.4855  0.9086
11405TIP3    H255707   5.060   2.367   1.379 -0.5407  0.2883  0.9141
11406TIP3   OH255708   1.270   6.651   0.047 -0.2647 -0.3415  0.7155
11406TIP3    H155709   1.291   6.742   0.065  0.4697 -0.1828 -0.8884
11406TIP3    H255710   1.189   6.655  -0.004 -1.7014 -0.7364  2.8669
11407TIP3   OH255711   6.711   4.757  17.234  0.3542  0.3099  0.5843
11407TIP3    H155712   6.769   4.832  17.244 -0.4363  0.9290  0.5323
11407TIP3    H255713   6.699   4.749  17.139 -1.0153  1.2391  0.6690
11408TIP3   OH255714   3.939   0.109   2.419  0.4423 -0.0977 -0.2170
11408TIP3    H155715   3.984   0.095   2.502 -0.0318  0.0204  0.0598
11408TIP3    H255716   3.912   0.201   2.422 -0.7639 -0.4573  0.0760
11409TIP3   OH255717   2.558   0.443   2.078 -0.3091 -0.4050 -0.5489
11409TIP3    H155718   2.569   0.510   2.145 -0.2291 -0.3573 -0.6100
11409TIP3    H255719   2.572   0.489   1.996 -0.6337 -0.4156 -0.6102
11410TIP3   OH255720   0.302   2.050  17.254  0.4179 -0.4511 -0.3192
11410TIP3    H155721   0.228   2.008  17.298 -0.0525  1.8667  1.1853
11410TIP3    H255722   0.358   1.978  17.227 -2.0148 -2.2090 -0.8152
11411TIP3   OH255723   4.875   5.390   2.699 -0.0319 -0.5151 -0.7075
11411TIP3    H155724   4.830   5.472   2.675 -1.1979 -1.0197 -0.2900
11411TIP3    H255725   4.923   5.366   2.621  0.3058  0.5663 -0.8478
11412TIP3   OH255726   1.021   6.321   2.957 -0.0983  0.0813 -0.2093
11412TIP3    H155727   1.092   6.272   2.918 -0.3192 -0.8448  0.5307
11412TIP3    H255728   0.943   6.295   2.907 -0.0733  0.3320 -0.3768
11413TIP3   OH255729   2.527   2.812   3.981 -0.1832 -0.6256 -0.3621
11413TIP3    H155730   2.563   2.743   3.924  2.2257  0.4993 -0.2660
11413TIP3    H255731   2.515   2.887   3.923 -0.4862 -0.3719  0.0292
11414TIP3   OH255732   0.818   3.368  12.694  0.5844  0.3996  0.2413
11414TIP3    H155733   0.862   3.300  12.744  1.0607 -0.0019 -0.7070
11414TIP3    H255734   0.846   3.354  12.604 -1.1002  0.4379 -0.3164
11415TIP3   OH255735   0.975   0.945  14.236 -0.0460  0.2271  0.3937
11415TIP3    H155736   0.890   0.964  14.277  0.4781 -0.2956  1.7575
11415TIP3    H255737   0.961   0.963  14.143 -1.6686  0.0942  0.5880
11416TIP3   OH255738   3.297   4.646   2.271 -0.0165  0.0639 -0.0114
11416TIP3    H155739   3.362   4.706   2.233 -1.3008  0.4782 -1.6346
11416TIP3    H255740   3.242   4.621   2.197 -1.0559 -1.1209  1.1420
11417TIP3   OH255741   4.326   1.509   3.321 -0.8377 -0.3711  0.0644
11417TIP3    H155742   4.284   1.595   3.322 -2.1593 -1.0023  0.3073
11417TIP3    H255743   4.283   1.462   3.250  1.5601 -0.0376 -1.6625
11418TIP3   OH255744   5.244   5.444   2.861 -0.3230 -0.1113 -0.2693
11418TIP3    H155745   5.166   5.402   2.897  1.5930 -1.0185  3.0880
11418TIP3    H255746   5.306   5.372   2.846  0.5562  0.7800 -0.9939
11419TIP3   OH255747   1.980   1.089   0.429 -0.0010  0.2346  0.3684
11419TIP3    H155748   1.890   1.058   0.427 -0.2552  0.8312  1.8962
11419TIP3    H255749   2.000   1.113   0.339 -0.7290 -1.6997 -0.3148
11420TIP3   OH255750   2.290   2.060   4.622 -0.1713 -0.0149  0.6679
11420TIP3    H155751   2.336   1.983   4.657 -0.2375  0.4913  1.9024
11420TIP3    H255752   2.234   2.088   4.694 -1.8953 -0.2007 -0.5803
11421TIP3   OH255753   0.691   1.609   5.194  0.0648  0.5905 -0.0608
11421TIP3    H155754   0.715   1.557   5.118 -1.0742 -1.0963  0.7107
11421TIP3    H255755   0.616   1.660   5.165 -0.6434 -0.3778  0.0549
11422TIP3   OH255756   3.523   4.357  11.735  0.1614 -0.5609 -0.6384
11422TIP3    H155757   3.608   4.329  11.702 -0.2130 -0.7979 -1.4259
11422TIP3    H255758   3.511   4.445  11.699  0.1921 -0.4143 -0.2970
11423TIP3   OH255759   2.692   1.368  13.032 -0.4220  0.2705 -0.1451
11423TIP3    H155760   2.665   1.277  13.021 -0.5021  0.3110 -0.2920
11423TIP3    H255761   2.732   1.372  13.118  1.1728 -0.2779 -0.8413
11424TIP3   OH255762   1.084   2.462   5.846  0.3376 -0.0019  0.0655
11424TIP3    H155763   1.176   2.474   5.823  0.7890 -0.2113  1.6775
11424TIP3    H255764   1.055   2.388   5.793  1.7287 -1.3659  1.1646
11425TIP3   OH255765   2.372   3.500   2.480  0.2707  0.0501 -0.2825
11425TIP3    H155766   2.353   3.457   2.563 -0.0351 -1.6809 -1.2188
11425TIP3    H255767   2.309   3.462   2.418  1.6894 -0.0625 -1.6994
11426TIP3   OH255768   5.651   4.623   0.084 -0.0232  0.4190 -0.2625
11426TIP3    H155769   5.587   4.553   0.099 -0.9344  0.8773 -1.9409
11426TIP3    H255770   5.729   4.578   0.053 -0.1330  0.0322  0.0146
11427TIP3   OH255771   6.165   2.573   6.469  0.1568 -0.2744  0.2493
11427TIP3    H155772   6.240   2.621   6.505  0.4745 -0.2644 -0.4134
11427TIP3    H255773   6.203   2.494   6.433  0.0826  0.4870 -1.5540
11428TIP3   OH255774   3.857   4.247   4.456  0.3121 -0.0238  0.7235
11428TIP3    H155775   3.949   4.223   4.468  0.1510 -0.0841  1.9787
11428TIP3    H255776   3.809   4.165   4.469  0.1530 -0.2307 -1.1164
11429TIP3   OH255777   0.356   5.364  15.440 -0.6888  0.7691  0.4651
11429TIP3    H155778   0.269   5.403  15.438  0.1144  2.5574 -0.0433
11429TIP3    H255779   0.361   5.312  15.359 -1.0003  1.2591  0.1318
11430TIP3   OH255780   0.759   2.103   1.353 -0.3981  0.6093  0.3236
11430TIP3    H155781   0.682   2.131   1.304  0.2983 -0.4097 -1.4327
11430TIP3    H255782   0.813   2.182   1.361 -0.2312  0.6654 -1.1574
11431TIP3   OH255783   6.280   1.970  15.420 -0.1189 -0.1226  0.2180
11431TIP3    H155784   6.239   2.056  15.431 -0.0913 -0.1246  0.3329
11431TIP3    H255785   6.293   1.962  15.325  0.8501  0.4417  0.3000
11432TIP3   OH255786   0.228   4.215  11.280 -0.0184  0.7491  0.2552
11432TIP3    H155787   0.276   4.285  11.325  0.4630  1.0284 -0.6816
11432TIP3    H255788   0.140   4.252  11.266 -0.6208  0.1328  2.2240
11433TIP3   OH255789   1.003   2.439  14.176  0.5555  0.4355 -0.3130
11433TIP3    H155790   1.069   2.447  14.245 -0.0987  2.7656  0.0662
11433TIP3    H255791   1.045   2.386  14.108  2.2123  0.4968  0.6460
11434TIP3   OH255792   0.240   6.545   3.212 -0.7635 -0.2523  0.6224
11434TIP3    H155793   0.299   6.620   3.204 -2.1896  0.7012 -1.3688
11434TIP3    H255794   0.153   6.584   3.219 -1.3261 -1.6910  1.8455
11435TIP3   OH255795   3.593   2.856   4.496 -0.2122  0.3672  0.1353
11435TIP3    H155796   3.615   2.804   4.573  0.1221 -1.1631 -0.9734
11435TIP3    H255797   3.608   2.797   4.422  0.1708  2.0478 -1.1471
11436TIP3   OH255798   3.147   2.492   4.408  0.0163 -0.4375  0.1351
11436TIP3    H155799   3.111   2.425   4.349 -1.1719 -1.9843  2.5432
11436TIP3    H255800   3.189   2.443   4.479  1.1770  1.3812  0.7497
11437TIP3   OH255801   5.731   0.227   1.017  0.0029  0.1361  0.1740
11437TIP3    H155802   5.659   0.289   1.002 -0.2499 -0.1683  0.1240
11437TIP3    H255803   5.772   0.217   0.931  0.7558  1.1070  0.4071
11438TIP3   OH255804   2.465   0.616  12.243 -0.1445  0.4486 -0.2463
11438TIP3    H155805   2.427   0.662  12.318  0.6587 -0.4803  0.7322
11438TIP3    H255806   2.419   0.532  12.240 -1.3276  1.1026 -1.7967
11439TIP3   OH255807   0.939   6.276   0.607  0.0938  0.2358  0.1912
11439TIP3    H155808   1.008   6.275   0.673  0.1556  2.9275  0.2309
11439TIP3    H255809   0.973   6.332   0.537 -1.1422 -0.2110 -0.8029
11440TIP3   OH255810   5.966   0.142  12.900 -0.1570 -0.3549 -0.7318
11440TIP3    H155811   6.042   0.200  12.903 -1.5830  1.5969 -1.8588
11440TIP3    H255812   5.942   0.129  12.992  2.3431 -2.1325 -0.2678
11441TIP3   OH255813   3.690   5.368  12.157 -0.5556 -0.0172 -0.3746
11441TIP3    H155814   3.727   5.331  12.237  0.4873 -0.5899 -1.1097
11441TIP3    H255815   3.745   5.333  12.086 -1.7115  0.1587 -1.3763
11442TIP3   OH255816   4.564   1.721  16.910  0.2196  0.0514  0.0836
11442TIP3    H155817   4.585   1.813  16.895  2.6228 -0.5117 -0.2604
11442TIP3    H255818   4.559   1.713  17.005 -1.7870  0.8907  0.0611
11443TIP3   OH255819   0.231   3.174   4.993 -0.2307 -0.1593 -0.3199
11443TIP3    H155820   0.149   3.128   4.974  0.2566 -1.1990  0.0843
11443TIP3    H255821   0.218   3.210   5.081 -0.0897 -0.6939 -0.0794
11444TIP3   OH255822   4.806   0.602  15.843 -0.7209 -0.2241  0.2436
11444TIP3    H155823   4.716   0.593  15.873 -1.7564 -0.3738 -2.7526
11444TIP3    H255824   4.835   0.685  15.881 -1.7640 -0.6352  2.0087
11445TIP3   OH255825   2.368   3.186  15.568  0.2524  0.3023 -0.4062
11445TIP3    H155826   2.358   3.256  15.503  1.1723  0.5301 -0.3079
11445TIP3    H255827   2.458   3.196  15.600 -0.4467  0.7289  1.5039
11446TIP3   OH255828   2.986   5.450   2.315 -0.5697 -0.0239 -0.2783
11446TIP3    H155829   2.980   5.357   2.340 -1.8626  0.1962  0.2651
11446TIP3    H255830   2.931   5.458   2.237 -0.9551  0.4057  0.0337
11447TIP3   OH255831   3.621   2.953  13.581  0.1259 -0.4021 -0.6895
11447TIP3    H155832   3.531   2.970  13.606 -0.3606 -0.8970 -2.0618
11447TIP3    H255833   3.660   2.912  13.658 -0.4713  0.9252  0.3401
11448TIP3   OH255834   0.394   3.881  12.590  0.5161  0.2502 -0.4883
11448TIP3    H155835   0.407   3.965  12.545 -1.1643  1.0765  0.4947
11448TIP3    H255836   0.362   3.823  12.522  1.7327  0.3840 -1.1930
11449TIP3   OH255837   3.693   3.457  12.036  0.3035  0.6276  0.4397
11449TIP3    H155838   3.661   3.407  12.111  1.7180 -0.2374  0.4841
11449TIP3    H255839   3.723   3.540  12.073  0.8556  0.2635  0.8146
11450TIP3   OH255840   6.568   6.597   4.634 -0.1803  0.6159 -0.2237
11450TIP3    H155841   6.607   6.665   4.690  0.0051 -0.0386  0.4537
11450TIP3    H255842   6.489   6.571   4.681  0.1291 -0.1417 -0.1255
11451TIP3   OH255843   0.321   5.015   3.973 -0.7543 -0.0726  0.1193
11451TIP3    H155844   0.303   5.025   4.067 -4.9185  0.2677 -0.6100
11451TIP3    H255845   0.363   5.097   3.948  0.7395 -0.3184  1.7402
11452TIP3   OH255846   1.003   6.056   2.728  0.2205 -0.1688 -0.1021
11452TIP3    H155847   1.000   6.090   2.638 -1.4400  0.2302  0.1023
11452TIP3    H255848   0.975   5.965   2.719  0.4566 -0.2460 -0.0458
11453TIP3   OH255849   2.296   4.082   0.930 -0.0210  0.2960 -0.2946
11453TIP3    H155850   2.210   4.102   0.967 -0.1133 -1.8399  0.6859
11453TIP3    H255851   2.356   4.088   1.004  0.9617  3.3453 -1.2768
11454TIP3   OH255852   6.523   0.230   4.648 -0.2277 -0.4179  0.1683
11454TIP3    H155853   6.483   0.166   4.590  0.9769 -1.3568  0.3392
11454TIP3    H255854   6.616   0.228   4.625  0.0907 -0.0272  1.3797
11455TIP3   OH255855   1.160   6.173  11.430 -0.2659 -0.0074 -0.2181
11455TIP3    H155856   1.097   6.161  11.359 -3.1794 -1.0340  2.4179
11455TIP3    H255857   1.160   6.267  11.447 -0.0196  0.1627 -1.1402
11456TIP3   OH255858   6.107   1.921   2.068  0.2257 -0.1906 -0.0423
11456TIP3    H155859   6.074   1.943   1.981 -2.0931 -1.8919  0.3890
11456TIP3    H255860   6.112   1.826   2.069  3.1626 -0.0877  0.6746
11457TIP3   OH255861   1.945   2.020   5.729  0.0223 -0.2392  0.1869
11457TIP3    H155862   1.858   2.059   5.714  0.2387 -0.2089 -1.0707
11457TIP3    H255863   1.997   2.049   5.654  0.7838 -1.2297  0.3280
11458TIP3   OH255864   6.386   2.227  16.453 -0.2589  0.3702  0.3547
11458TIP3    H155865   6.311   2.285  16.467 -1.0748 -0.6639  0.3191
11458TIP3    H255866   6.359   2.143  16.489  0.9520  0.0268  0.4941
11459TIP3   OH255867   5.619   2.334  11.912  0.3021  0.1928 -0.3069
11459TIP3    H155868   5.621   2.245  11.876 -0.3489 -0.2264  0.6916
11459TIP3    H255869   5.588   2.388  11.839  0.2795 -0.4539 -0.7842
11460TIP3   OH255870   2.490   2.181  13.638 -0.4932  0.5947 -0.0895
11460TIP3    H155871   2.495   2.264  13.686 -1.8836 -0.2616  1.5681
11460TIP3    H255872   2.417   2.192  13.578 -0.3993  0.7234 -0.1808
11461TIP3   OH255873   1.267   2.897  14.986  0.6828 -0.6999 -0.3159
11461TIP3    H155874   1.272   2.826  15.049 -0.4854 -1.1774 -0.7366
11461TIP3    H255875   1.306   2.861  14.906  0.1011 -0.8682 -0.5258
11462TIP3   OH255876   3.182   0.531  14.514  0.1794  0.2103 -0.3039
11462TIP3    H155877   3.087   0.525  14.501  0.2848 -1.3488 -0.4527
11462TIP3    H255878   3.193   0.604  14.575 -1.1926 -0.2010  0.4618
11463TIP3   OH255879   2.678   5.513  13.210 -0.1507 -0.5135  0.0408
11463TIP3    H155880   2.600   5.474  13.171  0.7498 -3.0377  0.5872
11463TIP3    H255881   2.699   5.455  13.283  0.7418  1.6042  1.5153
11464TIP3   OH255882   0.006   6.692   3.311  0.0076 -0.0131  0.3369
11464TIP3    H155883   0.049   6.742   3.381 -0.8169  0.6619  0.3745
11464TIP3    H255884  -0.087   6.700   3.330 -0.2115 -0.0450 -0.6975
11465TIP3   OH255885   5.558   2.075  13.563 -0.1647  0.0437 -0.0389
11465TIP3    H155886   5.579   2.009  13.629  1.0070  0.5931  0.1442
11465TIP3    H255887   5.626   2.142  13.573 -1.8427  1.7463  0.3943
11466TIP3   OH255888   1.694   2.441   5.827  0.3977 -0.0977 -0.3912
11466TIP3    H155889   1.605   2.422   5.796  1.1588 -1.5838 -1.8031
11466TIP3    H255890   1.687   2.442   5.922 -0.8218 -1.9255 -0.4322
11467TIP3   OH255891   0.591   5.542   5.805  0.9321  0.5684  0.5829
11467TIP3    H155892   0.511   5.575   5.845 -0.3243 -0.2102 -1.1856
11467TIP3    H255893   0.569   5.452   5.778  2.1950  0.5442 -0.4476
11468TIP3   OH255894   4.787   5.798   4.927 -0.0267  0.1455 -0.2469
11468TIP3    H155895   4.856   5.845   4.880 -1.3542  1.3156 -1.0466
11468TIP3    H255896   4.834   5.731   4.977  1.9899  2.7952  1.5543
11469TIP3   OH255897   0.630   4.180   3.741 -0.3920 -0.2727 -0.5963
11469TIP3    H155898   0.686   4.203   3.666  1.4617 -1.9474  0.2207
11469TIP3    H255899   0.566   4.250   3.745  1.6044  1.6859 -1.6378
11470TIP3   OH255900   6.224   3.965  15.698 -0.1842 -0.1127  0.2084
11470TIP3    H155901   6.284   3.904  15.655  0.5832  0.1203  0.9463
11470TIP3    H255902   6.145   3.962  15.644  0.6265 -0.1191 -1.0075
11471TIP3   OH255903   6.050   1.929  13.313 -0.6706 -0.1166  0.3386
11471TIP3    H155904   6.007   1.971  13.238  1.9256  0.5664 -0.8027
11471TIP3    H255905   6.021   1.838  13.310 -0.3913 -0.1522 -1.6533
11472TIP3   OH255906   1.592   1.600  15.122 -0.2405 -0.5175  0.1857
11472TIP3    H155907   1.572   1.653  15.045  0.8298 -2.1028 -1.2280
11472TIP3    H255908   1.576   1.658  15.196 -1.1118  1.0993 -1.2330
11473TIP3   OH255909   5.617   1.767  16.304  0.1791 -0.1521 -1.1994
11473TIP3    H155910   5.703   1.727  16.314  0.9951  2.2147  2.0448
11473TIP3    H255911   5.626   1.827  16.231  1.3350  0.2104 -0.7685
11474TIP3   OH255912   2.679   4.783   2.133 -0.3930 -0.4063 -0.1133
11474TIP3    H155913   2.611   4.816   2.191  0.2066 -0.4413  0.6245
11474TIP3    H255914   2.676   4.688   2.145 -1.3136 -0.5341 -1.3266
11475TIP3   OH255915   5.602   3.447   0.967  0.1859 -0.7010 -0.4435
11475TIP3    H155916   5.653   3.521   1.002 -0.2510  0.2405 -1.7590
11475TIP3    H255917   5.633   3.437   0.877 -1.3738 -0.6434 -0.9944
11476TIP3   OH255918   4.030   5.420   0.893  0.6314 -0.1034 -0.5134
11476TIP3    H155919   3.992   5.506   0.909 -0.1827 -0.7539  1.3153
11476TIP3    H255920   3.954   5.364   0.873  0.6553 -1.1815  2.1058
11477TIP3   OH255921   1.694   1.184   0.843 -0.0406  0.3082 -0.3810
11477TIP3    H155922   1.605   1.212   0.867  0.0122  0.1594  0.0041
11477TIP3    H255923   1.748   1.262   0.857 -0.1566  0.4840 -0.9013
11478TIP3   OH255924   1.160   3.294  12.328 -0.2101  0.3352 -0.1770
11478TIP3    H155925   1.247   3.273  12.362 -0.9795 -3.5799 -0.4544
11478TIP3    H255926   1.148   3.237  12.253 -2.7622  1.3277 -0.5980
11479TIP3   OH255927   6.602   5.131  17.258  0.2328  0.1150 -0.4599
11479TIP3    H155928   6.588   5.107  17.349 -0.9762 -1.6790 -1.0823
11479TIP3    H255929   6.695   5.150  17.252  0.1813  1.0070  1.3138
11480TIP3   OH255930   2.130   1.100  11.244  0.7202  0.0885 -0.1779
11480TIP3    H155931   2.217   1.116  11.207  0.0231  0.9601 -1.4960
11480TIP3    H255932   2.095   1.027  11.192  1.5159 -1.7629  1.8207
11481TIP3   OH255933   4.962   2.476   0.131 -0.3154 -0.2537  0.2302
11481TIP3    H155934   5.045   2.435   0.105 -0.2460 -0.5105  0.8423
11481TIP3    H255935   4.987   2.548   0.188 -0.4882 -0.0069 -0.0074
11482TIP3   OH255936   0.871   1.588  15.702  0.3462 -0.7041 -0.3020
11482TIP3    H155937   0.809   1.656  15.727  1.0877  0.4904 -1.6446
11482TIP3    H255938   0.817   1.520  15.661  0.0312  0.8217 -2.4762
11483TIP3   OH255939   0.313   3.373  12.041 -0.6624  0.0827 -0.7304
11483TIP3    H155940   0.362   3.342  11.964 -1.0034 -0.3306 -0.7776
11483TIP3    H255941   0.224   3.384  12.009 -0.7724  0.0553 -0.4276
11484TIP3   OH255942   1.601   0.675  15.098 -0.0605  0.4531  0.2981
11484TIP3    H155943   1.565   0.643  15.015 -1.1855  0.6202  0.7107
11484TIP3    H255944   1.604   0.770  15.088 -1.1547  0.5508  0.8156
11485TIP3   OH255945   2.335   4.504   2.979 -0.4090  0.1413 -0.0048
11485TIP3    H155946   2.249   4.463   2.966 -0.4954  0.5763 -0.8188
11485TIP3    H255947   2.343   4.566   2.907  0.3617  0.4900  0.3814
11486TIP3   OH255948   1.031   2.723  15.706 -0.4606 -0.7747  0.3317
11486TIP3    H155949   1.072   2.647  15.747  2.8138  0.7464  0.0400
11486TIP3    H255950   0.967   2.686  15.645  1.0754 -3.2827  0.1911
11487TIP3   OH255951   6.190   4.607   5.978 -0.4818 -0.1764 -0.3642
11487TIP3    H155952   6.252   4.564   5.918 -1.4099  1.3517 -2.4858
11487TIP3    H255953   6.224   4.696   5.988 -1.3416  0.1223 -0.0776
11488TIP3   OH255954   4.679   3.325  15.202 -0.3966 -0.6988  0.5479
11488TIP3    H155955   4.596   3.294  15.166  0.0199  0.9408 -1.9896
11488TIP3    H255956   4.656   3.394  15.263 -0.8832  0.5413 -1.0046
11489TIP3   OH255957   5.711   5.465  15.502 -0.1418  0.3109  0.1293
11489TIP3    H155958   5.690   5.557  15.483  0.0769  0.2755 -0.3068
11489TIP3    H255959   5.719   5.425  15.415 -0.9329 -0.2855  0.3313
11490TIP3   OH255960   2.065   6.356   5.708  0.1422  0.1167 -0.2921
11490TIP3    H155961   2.055   6.421   5.777 -2.1081  0.6383 -1.0887
11490TIP3    H255962   2.157   6.330   5.713  0.2041  0.7437  2.3455
11491TIP3   OH255963   0.883   5.384   4.062  0.1924  0.2644 -0.2943
11491TIP3    H155964   0.848   5.378   4.151  1.0305  0.2417  0.0379
11491TIP3    H255965   0.879   5.294   4.028 -0.7730  0.3891 -0.5377
11492TIP3   OH255966   2.460   5.507  11.382  0.0003 -0.7208  0.3766
11492TIP3    H155967   2.450   5.593  11.342  1.7474 -0.4483  0.4795
11492TIP3    H255968   2.379   5.461  11.362 -0.2563  0.3599 -1.1258
11493TIP3   OH255969   4.003   5.045   3.096  0.3651 -0.7061  0.4924
11493TIP3    H155970   4.011   4.954   3.124 -0.9078 -0.8598  0.3850
11493TIP3    H255971   4.029   5.096   3.173  2.0038 -1.1511  0.2534
11494TIP3   OH255972   2.748   3.904  12.705 -0.3862 -0.3986 -0.1016
11494TIP3    H155973   2.690   3.980  12.695  0.0080 -0.3095 -1.9331
11494TIP3    H255974   2.740   3.879  12.797  0.7225  2.9043  0.9851
11495TIP3   OH255975   4.174   0.128   3.479 -0.1544  0.2442 -0.4135
11495TIP3    H155976   4.152   0.037   3.502  0.9257 -0.4240 -1.9377
11495TIP3    H255977   4.251   0.148   3.531 -0.2607  0.1996 -0.2406
11496TIP3   OH255978   3.110   6.187  12.464 -0.0451 -0.0896  0.0781
11496TIP3    H155979   3.043   6.159  12.526  0.4940  0.2200  0.8107
11496TIP3    H255980   3.078   6.271  12.430 -1.0445 -0.9543 -1.1603
11497TIP3   OH255981   5.490   2.000  11.367  0.4181  0.1781  0.3650
11497TIP3    H155982   5.400   2.026  11.388  0.5742  1.2790 -0.2889
11497TIP3    H255983   5.497   2.013  11.272  1.7102  1.5281  0.6219
11498TIP3   OH255984   6.139   1.081  13.744  0.3482  0.2951 -0.1601
11498TIP3    H155985   6.186   1.165  13.743  2.5074 -0.8795  0.7039
11498TIP3    H255986   6.139   1.055  13.836  1.5000 -1.6285 -0.6777
11499TIP3   OH255987   0.572   1.124   1.980  0.4137 -0.6344  0.0912
11499TIP3    H155988   0.500   1.123   2.043  0.0762  0.4239 -0.2752
11499TIP3    H255989   0.535   1.163   1.901  1.5638  0.5374  0.1161
11500TIP3   OH255990   3.882   3.754  12.748 -0.5968 -0.1756  0.3829
11500TIP3    H155991   3.971   3.720  12.755  0.1164  1.6468  0.5429
11500TIP3    H255992   3.869   3.804  12.828 -1.1550  0.9415 -0.3848
11501TIP3   OH255993   3.222   6.108  16.411  0.1735 -0.0069 -0.2341
11501TIP3    H155994   3.195   6.105  16.319 -0.6383  0.9864 -0.0391
11501TIP3    H255995   3.188   6.027  16.449  0.0421 -0.1620 -0.6760
11502TIP3   OH255996   6.811   1.372  13.290 -0.2904  0.2465  0.0212
11502TIP3    H155997   6.783   1.454  13.330  0.8202 -0.0226  1.3920
11502TIP3    H255998   6.780   1.304  13.350 -0.1789 -0.2748 -0.5037
11503TIP3   OH255999   5.839   0.857  13.388 -0.1347 -0.9455 -0.6812
11503TIP3    H156000   5.748   0.888  13.397  0.1049  0.2518 -2.1500
11503TIP3    H256001   5.870   0.848  13.478 -1.3399 -0.1970 -0.1743
11504TIP3   OH256002   0.303   5.160   0.886  0.0242  0.3961  0.4715
11504TIP3    H156003   0.222   5.210   0.873  0.1559  0.1519 -1.3684
11504TIP3    H256004   0.306   5.144   0.981 -1.5857  1.2263  0.6811
11505TIP3   OH256005   6.512   1.892   1.114  0.3307  0.5659 -0.3506
11505TIP3    H156006   6.495   1.808   1.071  0.6691  0.1158  0.3857
11505TIP3    H256007   6.606   1.890   1.135  0.0618  0.5615  0.8799
11506TIP3   OH256008   5.369   2.010   0.048  0.3148  0.0375 -0.6702
11506TIP3    H156009   5.353   2.051   0.133 -0.2225  1.3360 -1.3765
11506TIP3    H256010   5.367   2.083  -0.014  1.7557 -0.7621 -1.6731
11507TIP3   OH256011   5.710   5.541   4.384  0.0322 -0.5167 -0.0721
11507TIP3    H156012   5.796   5.570   4.355  1.0697 -2.4623  0.9851
11507TIP3    H256013   5.689   5.597   4.458  0.4545 -0.1564 -0.2226
11508TIP3   OH256014   2.098   1.082   1.966  0.9499 -0.1669 -0.0599
11508TIP3    H156015   2.036   1.037   2.023  2.2642  0.3624  1.8206
11508TIP3    H256016   2.060   1.169   1.953  0.7426 -0.2248  0.1545
11509TIP3   OH256017   5.738   1.921   3.327 -0.2288 -0.4337 -0.4681
11509TIP3    H156018   5.791   1.841   3.330 -1.6772 -1.3942 -0.2226
11509TIP3    H256019   5.792   1.983   3.277  0.8738 -1.5844 -0.7341
11510TIP3   OH256020   3.904   1.631   5.770  0.0745  0.5154  0.3272
11510TIP3    H156021   3.885   1.663   5.858 -1.0013  0.9198 -0.0389
11510TIP3    H256022   3.818   1.606   5.735  0.3641  1.2648 -0.9482
11511TIP3   OH256023   6.328   1.910  12.348  0.4269  0.4106  0.8345
11511TIP3    H156024   6.326   1.878  12.439 -1.4288  0.6789  0.9155
11511TIP3    H256025   6.314   1.831  12.295  0.8214  0.3581  0.8057
11512TIP3   OH256026   4.808   5.449   4.213  0.3896  0.2423  0.5261
11512TIP3    H156027   4.797   5.479   4.123 -1.0183  0.0717  0.6316
11512TIP3    H256028   4.809   5.529   4.265  1.1169  0.3366  0.3656
11513TIP3   OH256029   3.928   4.084  16.373 -0.3748  0.9897  0.6417
11513TIP3    H156030   3.899   4.056  16.460 -0.4158  1.7174  0.8654
11513TIP3    H256031   3.848   4.100  16.324 -0.3523  0.1976  0.3418
11514TIP3   OH256032   0.825   1.762  16.067  0.1475 -0.3775  0.3605
11514TIP3    H156033   0.909   1.785  16.028  0.4921 -0.0785  1.2786
11514TIP3    H256034   0.840   1.678  16.109  0.2200  0.0714  1.2449
11515TIP3   OH256035   5.279   2.947   4.172  0.3696 -0.7593 -0.2072
11515TIP3    H156036   5.328   3.022   4.208 -2.4700  1.0330  0.1156
11515TIP3    H256037   5.306   2.873   4.226  2.1051  0.3088  0.4569
11516TIP3   OH256038   1.888   0.076   4.275  0.5422  0.3251 -0.1747
11516TIP3    H156039   1.919   0.075   4.366 -0.1838 -1.5695  0.0677
11516TIP3    H256040   1.793   0.081   4.282  0.4274 -0.8977 -0.8115
11517TIP3   OH256041   2.397   4.085   5.173  0.0263  0.0096 -0.0404
11517TIP3    H156042   2.414   3.990   5.170 -0.0818 -0.0322  0.5448
11517TIP3    H256043   2.419   4.116   5.085 -0.6305 -0.6750 -0.4531
11518TIP3   OH256044   0.074   4.420  10.979 -0.3110 -0.1023  0.6313
11518TIP3    H156045   0.112   4.474  11.048  1.1829 -1.8421  1.2119
11518TIP3    H256046   0.143   4.413  10.913  0.1320 -2.5333  1.2702
11519TIP3   OH256047   6.598   2.733  13.353 -0.1889 -0.8092 -0.1465
11519TIP3    H156048   6.678   2.747  13.303  0.2050 -2.1986  0.0755
11519TIP3    H256049   6.552   2.817  13.349  0.8620 -0.2648 -1.0059
11520TIP3   OH256050   2.611   4.501   1.814 -0.8892 -0.0825 -0.2183
11520TIP3    H156051   2.690   4.554   1.815 -3.2242  3.5949 -0.1455
11520TIP3    H256052   2.584   4.499   1.722 -2.1107  0.9059  0.1080
11521TIP3   OH256053   4.349   2.786  16.070 -0.0223 -0.6944 -0.2142
11521TIP3    H156054   4.369   2.693  16.076  0.2272 -0.6523 -0.4047
11521TIP3    H256055   4.420   2.829  16.117  0.5873 -0.5178 -1.2895
11522TIP3   OH256056   3.193   4.470   1.029 -0.4460 -0.2698 -0.1260
11522TIP3    H156057   3.190   4.379   1.059  0.8121 -0.2159  0.1971
11522TIP3    H256058   3.125   4.476   0.962 -0.7406 -1.3659  0.0665
11523TIP3   OH256059   2.548   3.658   4.372  0.4719  0.2686  0.5598
11523TIP3    H156060   2.476   3.614   4.418 -0.5522  1.2686 -0.0688
11523TIP3    H256061   2.505   3.722   4.316  1.9402  2.0222  1.3948
11524TIP3   OH256062   3.483   3.008  14.193  0.2735  0.0504 -0.0928
11524TIP3    H156063   3.393   3.016  14.164 -0.1102  0.7739  1.2997
11524TIP3    H256064   3.485   2.927  14.244  0.7021 -0.6186 -1.1356
11525TIP3   OH256065   5.838   2.143   3.164 -0.8257 -0.3457  0.4918
11525TIP3    H156066   5.867   2.229   3.135  0.7527 -0.5695  1.3279
11525TIP3    H256067   5.769   2.118   3.102 -1.0165  1.3267  0.0084
11526TIP3   OH256068   0.843   5.147  17.114  0.1532 -0.2366 -0.1650
11526TIP3    H156069   0.898   5.169  17.039  0.6590  0.9271  0.5382
11526TIP3    H256070   0.779   5.084  17.080 -0.0757  0.8378 -1.7408
11527TIP3   OH256071   0.537   5.428  12.873 -0.1121  0.0506 -0.3406
11527TIP3    H156072   0.459   5.402  12.922  0.6184 -1.0106  0.2872
11527TIP3    H256073   0.551   5.520  12.896 -2.2616  0.8364 -1.9503
11528TIP3   OH256074   4.116   5.212  16.935  0.0347 -0.2385  0.6941
11528TIP3    H156075   4.186   5.257  16.983  0.1762  1.1667 -0.7666
11528TIP3    H256076   4.118   5.252  16.848  0.5364 -3.4987 -0.8830
11529TIP3   OH256077   2.322   0.075  16.801 -0.0081  0.2552 -0.1588
11529TIP3    H156078   2.379   0.027  16.740 -0.2061 -0.6277  0.3450
11529TIP3    H256079   2.242   0.091  16.750 -0.2128 -0.5697 -0.1142
11530TIP3   OH256080   0.713   6.551   5.004  0.0508  0.1093 -0.2230
11530TIP3    H156081   0.753   6.631   4.970  0.0525  0.9502  1.6930
11530TIP3    H256082   0.783   6.486   5.003  0.4606  0.5514 -0.3502
11531TIP3   OH256083   0.037   5.555  15.917  0.1975 -0.3901  0.3075
11531TIP3    H156084  -0.013   5.529  15.994 -0.5393  0.7262  0.2186
11531TIP3    H256085  -0.025   5.605  15.863  1.3892  1.0195  0.1975
11532TIP3   OH256086   0.157   6.315  14.319  0.0822 -0.3823 -0.2421
11532TIP3    H156087   0.102   6.381  14.277  0.5102 -0.7828 -1.4641
11532TIP3    H256088   0.129   6.314  14.411 -2.2652 -0.8969 -0.9249
11533TIP3   OH256089   4.499   6.111  12.259  0.6699  0.0565  0.2991
11533TIP3    H156090   4.512   6.102  12.165 -0.4676 -2.5493  0.3442
11533TIP3    H256091   4.408   6.138  12.268  0.6868 -0.0091  0.6700
11534TIP3   OH256092   1.374   3.224   5.362 -0.0102 -0.0305 -0.2794
11534TIP3    H156093   1.394   3.277   5.286  0.8985  1.8141  1.2063
11534TIP3    H256094   1.296   3.265   5.400 -1.0130 -1.4917 -0.7064
11535TIP3   OH256095   5.847   1.232   0.363 -0.2783 -0.4794 -0.4498
11535TIP3    H156096   5.882   1.318   0.385 -1.7070  0.0157 -0.0046
11535TIP3    H256097   5.911   1.170   0.398  0.2777  0.3918  0.0936
11536TIP3   OH256098   1.714   2.917  14.232 -0.2666 -0.5497  0.0821
11536TIP3    H156099   1.808   2.930  14.222 -0.5275  0.2718 -1.4272
11536TIP3    H256100   1.695   2.840  14.177 -0.6427 -0.0774 -0.4498
11537TIP3   OH256101   0.309   1.068  12.896 -0.0894  0.1180 -0.0216
11537TIP3    H156102   0.290   0.988  12.847  0.7391  0.0003 -0.1588
11537TIP3    H256103   0.231   1.083  12.949 -0.3684 -0.6163 -0.2186
11538TIP3   OH256104   3.365   1.515  13.136  0.2602 -0.5003 -0.0382
11538TIP3    H156105   3.298   1.510  13.204  0.4023  0.5004  0.1841
11538TIP3    H256106   3.345   1.442  13.078 -1.3368  0.0783 -0.2490
11539TIP3   OH256107   4.548   2.781   1.231 -0.1943 -0.2791  0.3667
11539TIP3    H156108   4.610   2.759   1.162 -0.2693  0.0609  0.1896
11539TIP3    H256109   4.464   2.788   1.186 -0.7887 -3.0076  0.9457
11540TIP3   OH256110   2.428   0.098   0.829  0.4654 -0.3635  0.0386
11540TIP3    H156111   2.483   0.062   0.759  1.4868 -1.5865  1.4278
11540TIP3    H256112   2.432   0.193   0.817  0.1181 -0.5644 -1.9213
11541TIP3   OH256113   5.834   5.087  15.382 -0.0684 -0.2341 -0.1548
11541TIP3    H156114   5.871   5.175  15.391  3.5010 -1.8210  1.7759
11541TIP3    H256115   5.892   5.042  15.320  0.4267 -2.3232  1.7543
11542TIP3   OH256116   1.304   1.926  12.827  0.0275  0.3296 -0.1680
11542TIP3    H156117   1.336   1.863  12.762  0.1035 -0.0908  0.2719
11542TIP3    H256118   1.379   1.940  12.885  0.2157  1.3303 -0.6445
11543TIP3   OH256119   3.462   6.695   2.677 -0.5610  0.6066 -0.0295
11543TIP3    H156120   3.546   6.708   2.633  0.0436 -1.6296  0.4144
11543TIP3    H256121   3.482   6.702   2.770 -0.9958  0.8064  0.0508
11544TIP3   OH256122   3.043   1.312  11.341 -0.2653 -0.2927 -0.0261
11544TIP3    H156123   3.052   1.293  11.248 -0.3307 -0.3377 -0.0224
11544TIP3    H256124   3.115   1.371  11.361  0.4711 -1.2277  0.1572
11545TIP3   OH256125   6.414   5.205  11.474  0.8312  0.0344 -0.0956
11545TIP3    H156126   6.326   5.171  11.488  0.0024  1.1757 -2.1670
11545TIP3    H256127   6.430   5.192  11.380  2.6770  0.2491  0.1721
11546TIP3   OH256128   3.467   3.115   4.185  0.1104 -0.3386  0.2370
11546TIP3    H156129   3.518   3.108   4.266 -0.5996 -0.5330  0.6667
11546TIP3    H256130   3.377   3.128   4.214 -0.2274 -0.9328 -0.5237
11547TIP3   OH256131   1.712   0.988   3.951 -0.1764 -0.5022  0.2114
11547TIP3    H156132   1.729   1.082   3.957 -0.7255 -0.4120  0.4191
11547TIP3    H256133   1.795   0.950   3.923  0.0196  0.0565  0.0274
11548TIP3   OH256134   5.156   0.409  15.604 -0.4134  0.8590  0.2128
11548TIP3    H156135   5.119   0.430  15.689  0.5747 -2.0134  1.4269
11548TIP3    H256136   5.240   0.454  15.602  2.0911 -3.3437  3.1383
11549TIP3   OH256137   1.775   3.266  13.630  0.3861  0.3614  0.2850
11549TIP3    H156138   1.836   3.332  13.660  0.3502  0.2013  0.7116
11549TIP3    H256139   1.817   3.182  13.650  0.6423  0.2498 -0.6746
11550TIP3   OH256140   5.802   0.894   4.513  0.1881 -0.2959 -0.3707
11550TIP3    H156141   5.871   0.853   4.460  1.0482  1.7116 -0.8423
11550TIP3    H256142   5.850   0.951   4.574 -1.0651  1.3151 -0.8664
11551TIP3   OH256143   5.423   4.090   5.306  0.1893  1.0438 -0.1445
11551TIP3    H156144   5.468   4.174   5.295  1.1974  0.5886  0.5000
11551TIP3    H256145   5.360   4.106   5.377  1.5895  0.7841  1.1893
11552TIP3   OH256146   1.243   0.984   5.385 -0.3028  0.0031  0.4101
11552TIP3    H156147   1.276   0.958   5.299 -0.6077 -1.5260  0.7435
11552TIP3    H256148   1.151   1.006   5.370 -0.3143 -0.1167  0.3044
11553TIP3   OH256149   5.896   0.992  12.030  0.2082  0.5526  0.1317
11553TIP3    H156150   5.989   1.012  12.018  0.6160 -1.5674 -0.4268
11553TIP3    H256151   5.874   1.033  12.114  2.0888 -0.3824  1.1146
11554TIP3   OH256152   1.862   4.023   3.642  0.4089  0.6780  0.2926
11554TIP3    H156153   1.769   4.037   3.659  1.0618  1.6528  3.3793
11554TIP3    H256154   1.887   3.951   3.700  1.1916 -0.9064 -1.9329
11555TIP3   OH256155   3.792   6.314  13.009 -0.4270 -0.3600 -0.3821
11555TIP3    H156156   3.753   6.227  13.008  0.4207 -0.7387 -2.5237
11555TIP3    H256157   3.819   6.327  13.100 -1.1913 -2.0237  0.1039
11556TIP3   OH256158   0.505   0.727   4.209 -0.3398  0.0576  0.0593
11556TIP3    H156159   0.485   0.656   4.271  1.5795 -0.6845 -0.1522
11556TIP3    H256160   0.421   0.771   4.197 -1.5905 -2.1854  0.2026
11557TIP3   OH256161   2.822   1.252   1.413 -0.0820  0.3383  0.0971
11557TIP3    H156162   2.867   1.241   1.330  0.3105  1.8851  0.0849
11557TIP3    H256163   2.744   1.303   1.391  0.2647  1.1581  0.7381
11558TIP3   OH256164   5.949   3.822   6.352 -0.2854  0.1747  0.0839
11558TIP3    H156165   6.008   3.895   6.331 -0.5733 -0.2865 -2.4513
11558TIP3    H256166   5.913   3.845   6.438  1.4730  1.8213  0.4293
11559TIP3   OH256167   3.088   0.370  15.537  1.0571  0.2509 -0.4395
11559TIP3    H156168   3.099   0.320  15.457 -1.5545  0.0613 -0.7175
11559TIP3    H256169   3.044   0.311  15.597  3.4433  0.2229  1.3621
11560TIP3   OH256170   2.533   2.173   4.560 -0.2778 -0.0794 -0.1464
11560TIP3    H156171   2.581   2.092   4.541 -0.2644 -0.2536  0.5952
11560TIP3    H256172   2.443   2.144   4.576 -0.8706  0.3643 -2.5472
11561TIP3   OH256173   1.292   2.197  14.455 -0.1196 -0.1768  0.3912
11561TIP3    H156174   1.233   2.270  14.437  0.6650  0.5179  0.6276
11561TIP3    H256175   1.345   2.187  14.376 -1.2372 -1.4660 -0.2138
11562TIP3   OH256176   0.124   2.621   2.486  0.1249  0.5317 -0.4148
11562TIP3    H156177   0.208   2.587   2.457  1.0398  1.6073  0.9405
11562TIP3    H256178   0.071   2.542   2.504  0.5741 -0.1424 -1.9463
11563TIP3   OH256179   1.929   5.801  16.391  0.4201  0.2799 -0.3715
11563TIP3    H156180   2.015   5.773  16.425 -0.1940 -1.3756 -0.1302
11563TIP3    H256181   1.913   5.885  16.433  1.3180 -0.0323  0.6196
11564TIP3   OH256182   5.686   0.034  13.542 -0.2501 -1.2131 -0.4189
11564TIP3    H156183   5.729  -0.051  13.552  0.2245 -0.9132  0.1493
11564TIP3    H256184   5.735   0.078  13.473 -1.5751 -2.0627 -1.9504
11565TIP3   OH256185   2.424   0.750   2.727  0.3845 -0.3219  0.3974
11565TIP3    H156186   2.395   0.824   2.674 -0.4975  0.7115  2.2937
11565TIP3    H256187   2.359   0.681   2.709  0.3252 -0.1222 -0.1694
11566TIP3   OH256188   5.900   1.568   4.659  0.1854  0.3838  0.6523
11566TIP3    H156189   5.831   1.504   4.643 -2.0485  2.3935  1.9658
11566TIP3    H256190   5.877   1.643   4.603  1.4110  0.9986  0.9442
11567TIP3   OH256191   1.488   0.682   5.993  0.6730 -1.3754 -0.4096
11567TIP3    H156192   1.534   0.618   5.939  0.8191 -1.4695 -0.1733
11567TIP3    H256193   1.433   0.629   6.051  0.0445 -1.2544 -0.8914
11568TIP3   OH256194   0.913   3.643   4.473 -0.2082  0.4262 -0.4138
11568TIP3    H156195   0.884   3.563   4.428 -0.4370  0.8204 -0.9650
11568TIP3    H256196   0.890   3.714   4.413 -1.8103  1.0810  0.9361
11569TIP3   OH256197   6.174   1.544   3.104 -0.0410  0.3881  0.7152
11569TIP3    H156198   6.256   1.535   3.056 -0.6163  0.3269 -0.2781
11569TIP3    H256199   6.170   1.637   3.126 -0.7171  0.8324 -1.1265
11570TIP3   OH256200   2.335   4.368  13.193 -0.0410  0.0734 -0.0196
11570TIP3    H156201   2.316   4.323  13.275 -0.3294 -0.5688 -0.4350
11570TIP3    H256202   2.386   4.445  13.219 -0.0545 -0.1747  0.7502
11571TIP3   OH256203   1.954   3.936  10.893 -0.0709  0.1952 -0.2256
11571TIP3    H156204   1.962   4.018  10.845 -0.2608  0.4647  0.2038
11571TIP3    H256205   2.018   3.878  10.851  0.8926  0.9107  0.2058
11572TIP3   OH256206   4.367   1.963   5.319  0.0673  0.0142  0.2356
11572TIP3    H156207   4.409   2.034   5.271  1.6052 -1.0603 -0.0182
11572TIP3    H256208   4.438   1.906   5.347 -0.8818  0.0836  2.9535
11573TIP3   OH256209   2.783   0.284   0.106 -0.0290 -0.2533 -0.4592
11573TIP3    H156210   2.696   0.275   0.145  0.4029  1.2730  0.9047
11573TIP3    H256211   2.841   0.300   0.181  0.7679  3.1455 -1.7417
11574TIP3   OH256212   4.130   2.166  16.813 -0.3407 -0.4111  0.7127
11574TIP3    H156213   4.214   2.204  16.790 -1.1002  0.6244 -0.4493
11574TIP3    H256214   4.078   2.172  16.733 -2.0409  0.4239  1.8306
11575TIP3   OH256215   0.889   0.336  16.038 -0.4372 -0.0996  0.2245
11575TIP3    H156216   0.816   0.364  16.093 -1.7044 -0.4244 -1.2547
11575TIP3    H256217   0.848   0.288  15.966  0.9994  2.1517 -2.2006
11576TIP3   OH256218   1.408   1.088   1.267 -0.0585 -0.2150 -0.8166
11576TIP3    H156219   1.412   1.173   1.223  2.1035 -0.7119 -1.6409
11576TIP3    H256220   1.455   1.101   1.350 -0.7810 -0.2974 -0.3884
11577TIP3   OH256221   6.299   1.794  12.931 -0.3803 -0.2853  0.3600
11577TIP3    H156222   6.349   1.776  13.010  0.5168  0.3931 -0.0532
11577TIP3    H256223   6.246   1.715  12.918 -1.1113 -0.1049  2.0588
11578TIP3   OH256224   5.606   3.637   4.311 -0.5231 -0.2984 -0.0200
11578TIP3    H156225   5.591   3.690   4.390  1.3488 -0.0575  0.1972
11578TIP3    H256226   5.695   3.657   4.285  0.1319 -3.0910 -0.1314
11579TIP3   OH256227   6.553   0.945  16.081 -0.3001 -0.1845  0.2630
11579TIP3    H156228   6.491   1.006  16.120  0.8245  0.7919  0.5750
11579TIP3    H256229   6.557   0.872  16.143 -0.9973 -0.1728  0.3250
11580TIP3   OH256230   0.033   4.953   5.667 -0.1076  0.0713  0.5011
11580TIP3    H156231  -0.013   5.037   5.670 -3.0366 -1.4638  2.8288
11580TIP3    H256232   0.098   4.959   5.737  0.6653  0.8983 -0.2830
11581TIP3   OH256233   1.820   3.048  12.449  0.5642  0.8030  0.1755
11581TIP3    H156234   1.903   3.006  12.423  1.1718  1.8123  0.4388
11581TIP3    H256235   1.810   3.120  12.387 -1.0190 -0.3681 -0.9470
11582TIP3   OH256236   0.803   0.825   2.779 -0.0396 -0.1439  0.4264
11582TIP3    H156237   0.779   0.909   2.739  1.9411  1.3227  2.1375
11582TIP3    H256238   0.787   0.838   2.873  0.2417 -1.7079  0.7010
11583TIP3   OH256239   1.805   0.713   2.437 -0.5797 -0.1274  0.5229
11583TIP3    H156240   1.854   0.770   2.496  0.3537  0.3560 -0.6945
11583TIP3    H256241   1.862   0.639   2.420 -0.5626  0.0624 -0.2928
11584TIP3   OH256242   0.560   0.120  16.181 -0.2190  0.2661  0.0662
11584TIP3    H156243   0.560   0.045  16.122  1.4688 -0.7902  1.3589
11584TIP3    H256244   0.599   0.087  16.262 -2.1638  1.7681  1.6603
11585TIP3   OH256245   0.731   4.969   4.823  0.0285 -0.0581 -0.8827
11585TIP3    H156246   0.680   4.929   4.752 -0.1374 -0.6021 -0.4634
11585TIP3    H256247   0.783   4.896   4.859  1.0358  0.4680 -1.2474
11586TIP3   OH256248   4.146   4.951   0.106 -0.1844  0.0948  0.4418
11586TIP3    H156249   4.096   4.870   0.117 -2.6328  1.5955  0.6459
11586TIP3    H256250   4.178   4.971   0.193 -0.1512 -0.2752  0.5176
11587TIP3   OH256251   1.571   5.215   1.377 -0.1867  0.3746  0.1692
11587TIP3    H156252   1.629   5.138   1.376 -0.5431  0.0812  1.1340
11587TIP3    H256253   1.609   5.271   1.445  0.6178  1.4880 -1.1850
11588TIP3   OH256254   3.969   4.612   4.073 -0.0638 -0.0449  0.5557
11588TIP3    H156255   3.954   4.535   4.128 -1.7192  0.8181  1.3666
11588TIP3    H256256   4.057   4.641   4.096  0.3526 -1.3382  0.6706
11589TIP3   OH256257   2.674   6.665   3.091 -0.3885 -0.7726 -0.1070
11589TIP3    H156258   2.745   6.718   3.053  0.0440  0.1461  1.8757
11589TIP3    H256259   2.594   6.704   3.057  0.0079 -0.5131 -0.7490
11590TIP3   OH256260   3.770   0.135  11.963  0.6822  0.2129 -0.2865
11590TIP3    H156261   3.847   0.134  12.018  1.5257 -0.3117 -1.4480
11590TIP3    H256262   3.744   0.227  11.958  0.5912  0.2573  0.9775
11591TIP3   OH256263   3.331   5.623   1.922 -0.2464 -0.1883 -0.0573
11591TIP3    H156264   3.360   5.619   1.831  0.2332 -2.0234  0.1611
11591TIP3    H256265   3.248   5.671   1.919  0.3762  0.8320 -1.2996
11592TIP3   OH256266   0.008   1.193  15.187  0.5248 -0.7052  0.0400
11592TIP3    H156267  -0.019   1.110  15.228 -2.5158  0.4364  0.5073
11592TIP3    H256268  -0.075   1.237  15.166  2.0584  2.8247  1.0324
11593TIP3   OH256269   1.484   4.444   1.370 -0.4532  0.0455 -0.2424
11593TIP3    H156270   1.492   4.500   1.293 -2.8873  0.2376 -0.3951
11593TIP3    H256271   1.575   4.425   1.395  0.3945  1.7548 -1.8417
11594TIP3   OH256272   5.169   3.047   2.342  0.1991 -0.1349 -0.4044
11594TIP3    H156273   5.107   3.014   2.277 -1.1167 -0.7448  1.1364
11594TIP3    H256274   5.114   3.082   2.412  1.5946  0.8302  0.2351
11595TIP3   OH256275   1.062   1.762  16.981  0.3194 -0.3526 -0.2017
11595TIP3    H156276   1.033   1.770  16.890 -0.9785 -1.9282  0.0550
11595TIP3    H256277   1.132   1.696  16.978  0.5290 -0.1355 -0.1036
11596TIP3   OH256278   3.179   6.356  14.362  0.6892 -0.3530  0.4701
11596TIP3    H156279   3.109   6.418  14.343 -0.6361 -1.6014  1.1921
11596TIP3    H256280   3.195   6.311  14.279 -0.0004 -0.7023  0.5257
11597TIP3   OH256281   3.519   0.557   6.549  0.3026  0.4510 -0.1600
11597TIP3    H156282   3.526   0.595   6.461 -1.7947 -0.8899 -0.9405
11597TIP3    H256283   3.492   0.630   6.605 -2.3344  0.4815 -1.3926
11598TIP3   OH256284   5.132   1.476   0.143 -0.4081  0.1775 -0.6304
11598TIP3    H156285   5.056   1.531   0.125  0.0987  0.8573 -0.7044
11598TIP3    H256286   5.154   1.493   0.234 -0.9928 -0.8254 -0.2974
11599TIP3   OH256287   0.817   5.946   0.119  0.1614  0.2182 -0.6009
11599TIP3    H156288   0.797   5.956   0.026  0.6468 -1.6976 -0.9329
11599TIP3    H256289   0.754   5.882   0.151  0.9190 -0.2233  0.0447
11600TIP3   OH256290   1.587   3.948   4.130  0.0845  0.5613 -0.1748
11600TIP3    H156291   1.492   3.935   4.132  0.2299 -0.5143  0.2895
11600TIP3    H256292   1.605   3.997   4.210 -0.1853  1.5687 -0.7262
11601TIP3   OH256293   6.558   3.376   0.856  0.1668  0.3172  0.3361
11601TIP3    H156294   6.487   3.431   0.888  0.8562 -0.0199  2.5001
11601TIP3    H256295   6.520   3.288   0.850  0.0274  0.3880  0.1643
11602TIP3   OH256296   1.231   4.047  14.902  0.4577  0.2180  0.3585
11602TIP3    H156297   1.313   4.041  14.950  1.9611  3.2816 -1.6910
11602TIP3    H256298   1.219   3.959  14.865  3.6124  0.1359 -0.5992
11603TIP3   OH256299   1.390   2.614   2.816 -0.0731 -0.1052 -0.0165
11603TIP3    H156300   1.458   2.678   2.793 -0.4877  0.3586  0.0431
11603TIP3    H256301   1.392   2.611   2.912  0.5562 -0.8475 -0.0468
11604TIP3   OH256302   1.086   2.092  11.346  0.0736  0.3970 -0.4328
11604TIP3    H156303   1.092   2.138  11.262  0.9470 -0.6574 -0.9605
11604TIP3    H256304   1.084   1.999  11.323 -1.0057  0.1315  0.6522
11605TIP3   OH256305   6.418   6.431   0.409  0.3512 -0.0418  0.3601
11605TIP3    H156306   6.509   6.452   0.387 -0.0689  0.9157 -0.4800
11605TIP3    H256307   6.391   6.502   0.468  0.2269 -0.4659  0.8189
11606TIP3   OH256308   0.490   3.776  13.364  0.3200  1.0940  0.7406
11606TIP3    H156309   0.571   3.736  13.331  0.3909 -0.8357  3.0426
11606TIP3    H256310   0.516   3.815  13.448 -0.6140  2.6129  0.3233
11607TIP3   OH256311   1.673   6.078  14.449  0.0502 -0.0709  0.3610
11607TIP3    H156312   1.662   6.140  14.521 -2.6675  0.5742 -0.5471
11607TIP3    H256313   1.655   6.130  14.370  0.2173 -1.4347 -0.5947
11608TIP3   OH256314   2.915   4.326   2.153  0.0638 -0.1271  0.0497
11608TIP3    H156315   2.911   4.388   2.080  0.8052  0.0973  0.1928
11608TIP3    H256316   2.957   4.375   2.224  1.1178 -0.9406  0.0026
11609TIP3   OH256317   6.458   5.944  15.286 -0.1059 -0.0794  0.2646
11609TIP3    H156318   6.502   5.861  15.303 -0.1674  0.1662  1.6698
11609TIP3    H256319   6.395   5.953  15.357 -0.5306  0.8823 -0.2142
11610TIP3   OH256320   1.910   1.454  13.124 -0.1439 -0.0847 -0.1139
11610TIP3    H156321   1.945   1.535  13.088  0.5236  0.7041  2.2450
11610TIP3    H256322   1.823   1.477  13.157 -0.5523 -0.6849 -0.7459
11611TIP3   OH256323   0.683   1.035   2.303 -0.0901 -0.1686  0.1913
11611TIP3    H156324   0.623   1.035   2.378  0.8122  0.2821  0.9174
11611TIP3    H256325   0.688   1.127   2.276 -3.5376 -0.7721 -2.9777
11612TIP3   OH256326   0.602   6.395  15.889 -0.3131  0.3679 -0.3249
11612TIP3    H156327   0.623   6.313  15.844  0.5275 -0.0291  0.7676
11612TIP3    H256328   0.656   6.461  15.844  0.7661 -0.0801  0.2904
11613TIP3   OH256329   2.140   3.317   5.609  0.2444  0.1304 -0.2846
11613TIP3    H156330   2.096   3.244   5.652  0.7143 -0.8660 -1.4874
11613TIP3    H256331   2.184   3.278   5.534  0.9409  1.5648 -0.6344
11614TIP3   OH256332   4.095   4.648   2.263  0.5440  0.1592  0.6120
11614TIP3    H156333   4.069   4.736   2.290  1.1097 -0.3051  2.7863
11614TIP3    H256334   4.160   4.621   2.328  0.7857 -1.6544 -0.3339
11615TIP3   OH256335   3.112   4.268   5.986 -0.3900 -0.2910 -1.0457
11615TIP3    H156336   3.203   4.298   5.991 -0.1836 -0.3793 -3.9652
11615TIP3    H256337   3.063   4.345   5.956 -1.3692 -0.1280  0.8816
11616TIP3   OH256338   2.013   4.628   2.140 -0.6838 -0.5296 -0.1457
11616TIP3    H156339   2.042   4.554   2.193  1.1362 -0.1690 -0.6317
11616TIP3    H256340   2.013   4.702   2.201  0.3643 -0.3298 -0.3943
11617TIP3   OH256341   1.072   5.206  15.698 -0.2601 -0.0555 -0.1101
11617TIP3    H156342   1.018   5.226  15.622 -3.1498  0.7977  2.0725
11617TIP3    H256343   1.027   5.134  15.742  1.5245 -0.7465  0.6208
11618TIP3   OH256344   2.451   6.048   4.584 -0.2796 -0.4374 -0.0533
11618TIP3    H156345   2.499   6.119   4.627 -1.1587 -0.1482  0.4608
11618TIP3    H256346   2.416   6.088   4.505  0.0981 -0.5831 -0.3001
11619TIP3   OH256347   3.868   4.768   5.801 -0.1563  0.5274  0.5136
11619TIP3    H156348   3.881   4.859   5.775  1.6777  0.5706  1.4353
11619TIP3    H256349   3.795   4.770   5.862 -0.4175  1.3153  0.1745
11620TIP3   OH256350   4.995   4.816   4.697  0.1822  0.6744 -0.1276
11620TIP3    H156351   5.040   4.891   4.658 -0.2187  2.5383  2.8838
11620TIP3    H256352   5.058   4.780   4.760 -0.5107 -0.1108  0.1282
11621TIP3   OH256353   0.271   0.375   1.864 -0.3918 -0.1363 -0.3237
11621TIP3    H156354   0.233   0.307   1.808  0.3931 -0.1957 -0.7933
11621TIP3    H256355   0.365   0.365   1.852 -0.1785 -0.6628  1.6139
11622TIP3   OH256356   0.790   0.935   0.991 -0.0437  0.5959  0.9092
11622TIP3    H156357   0.846   1.008   1.018 -0.4935  1.0224  0.6919
11622TIP3    H256358   0.798   0.933   0.895 -0.2783  0.5550  0.8919
11623TIP3   OH256359   4.924   1.181   3.723  0.3145 -0.4052 -0.2861
11623TIP3    H156360   4.847   1.228   3.755  1.6362  0.4051  1.7906
11623TIP3    H256361   4.998   1.239   3.743  1.6759 -2.0546 -0.3923
11624TIP3   OH256362   4.171   0.874  15.324 -0.2181 -0.0823 -0.3380
11624TIP3    H156363   4.125   0.939  15.272  0.9099  1.0443  0.0657
11624TIP3    H256364   4.136   0.790  15.293 -0.2945  0.6095 -2.1820
11625TIP3   OH256365   4.563   4.792   0.350 -0.1183  0.5987 -0.0447
11625TIP3    H156366   4.502   4.756   0.415 -0.5418  1.4693  0.0517
11625TIP3    H256367   4.516   4.784   0.267  0.3916 -0.4432 -0.2381
11626TIP3   OH256368   3.859   2.940   2.385  0.0587  0.3945 -0.2848
11626TIP3    H156369   3.816   2.865   2.342  2.1353 -0.3782 -1.0702
11626TIP3    H256370   3.838   2.929   2.478  0.5892 -1.3503 -0.3490
11627TIP3   OH256371   5.158   5.032  16.379  1.1956  0.6957 -0.1812
11627TIP3    H156372   5.162   4.940  16.355  0.3862  0.6441 -0.1193
11627TIP3    H256373   5.109   5.074  16.308  0.7599  0.9182  0.2431
11628TIP3   OH256374   5.728   4.142  14.817 -0.2170  0.3295 -0.5172
11628TIP3    H156375   5.723   4.067  14.758 -2.6778 -0.7281  0.9698
11628TIP3    H256376   5.716   4.218  14.760 -1.0977 -0.5885 -1.5731
11629TIP3   OH256377   4.753   6.235  11.270  0.6326  0.6844  0.0384
11629TIP3    H156378   4.727   6.153  11.311  0.9148  0.8867  0.6290
11629TIP3    H256379   4.753   6.298  11.342  0.6648  1.1465 -0.3666
11630TIP3   OH256380   4.099   1.552  12.463 -0.6298  0.7297  0.4606
11630TIP3    H156381   4.113   1.598  12.545  0.4336  0.3444  0.5053
11630TIP3    H256382   4.102   1.459  12.486 -0.5347  0.6202  0.0292
11631TIP3   OH256383   3.097   6.130   3.571  0.2130  0.3538 -0.2221
11631TIP3    H156384   3.060   6.153   3.486 -0.1440  1.5751  0.2477
11631TIP3    H256385   3.185   6.168   3.571  0.4374 -0.1625 -0.2766
11632TIP3   OH256386   2.352   5.986   5.527 -0.0517  0.2798 -0.3800
11632TIP3    H156387   2.401   5.908   5.554  0.8194  0.1586 -2.2816
11632TIP3    H256388   2.398   6.059   5.568  0.3333 -0.0321 -0.2522
11633TIP3   OH256389   4.915   0.878   3.331 -0.0559 -0.4390  0.3954
11633TIP3    H156390   4.845   0.822   3.365 -0.1789 -0.3790  0.2418
11633TIP3    H256391   4.939   0.839   3.247 -1.5120  0.8536 -0.6657
11634TIP3   OH256392   5.797   0.614   5.649  0.0399 -0.2233 -0.3099
11634TIP3    H156393   5.772   0.568   5.729  0.5671 -0.9789 -0.5649
11634TIP3    H256394   5.741   0.691   5.646 -0.0706 -0.2597  0.7196
11635TIP3   OH256395   2.611   2.865   1.072  0.3928 -0.3966 -0.1886
11635TIP3    H156396   2.616   2.779   1.114 -1.6018  0.0206  0.9610
11635TIP3    H256397   2.519   2.874   1.047  0.4365  1.6664  0.2935
11636TIP3   OH256398   0.044   0.923  13.160  0.0489 -0.3109 -0.2765
11636TIP3    H156399  -0.038   0.900  13.117  0.5314 -0.4920 -1.1123
11636TIP3    H256400   0.066   1.010  13.125 -0.9283  0.7403  1.6348
11637TIP3   OH256401   3.265   5.565  12.748  0.2053  0.1130  0.4353
11637TIP3    H156402   3.299   5.577  12.660 -0.7570  0.9480  0.1677
11637TIP3    H256403   3.256   5.470  12.758  0.2016  0.0254 -0.4117
11638TIP3   OH256404   4.395   6.205   0.886  0.2404  0.0563 -0.0551
11638TIP3    H156405   4.380   6.133   0.948 -0.0767  0.8138  0.7544
11638TIP3    H256406   4.464   6.257   0.926  0.2646  0.3668 -0.5014
11639TIP3   OH256407   6.074   3.156   2.493  0.1897  0.2391  0.3146
11639TIP3    H156408   6.018   3.080   2.510  1.7774 -1.0427 -0.1097
11639TIP3    H256409   6.078   3.202   2.577 -0.4041 -0.3856  0.6920
11640TIP3   OH256410   3.896   2.708   5.549 -0.4670  0.5087 -0.2920
11640TIP3    H156411   3.849   2.748   5.475 -2.0960  1.1663  1.0691
11640TIP3    H256412   3.828   2.662   5.598  0.5373  0.4422  1.0359
11641TIP3   OH256413   0.919   6.663  15.098  0.1258 -0.7815 -0.0247
11641TIP3    H156414   0.989   6.699  15.044 -1.0056  0.2839 -0.8065
11641TIP3    H256415   0.890   6.585  15.051 -0.5968 -0.0686 -0.7891
11642TIP3   OH256416   0.910   3.067   3.002 -0.1165 -0.2071  0.6657
11642TIP3    H156417   0.913   3.037   2.911  0.0198 -2.0724  1.2527
11642TIP3    H256418   0.898   3.161   2.996  1.3157 -0.1031 -1.3172
11643TIP3   OH256419   1.166   6.531   2.905  0.1314  0.6640 -0.2487
11643TIP3    H156420   1.228   6.469   2.867  0.9835  0.2802  1.7288
11643TIP3    H256421   1.101   6.476   2.948 -0.8322  1.0992 -1.1277
11644TIP3   OH256422   2.329   4.258   6.821 -0.0834 -0.6357  0.4594
11644TIP3    H156423   2.344   4.243   6.914 -1.6818 -1.3745  0.6068
11644TIP3    H256424   2.379   4.188   6.778 -1.3632 -1.8377  0.8729
11645TIP3   OH256425   3.307   4.891   1.081 -0.2486  0.4926 -0.5843
11645TIP3    H156426   3.400   4.897   1.103 -0.5428 -0.6487  1.0980
11645TIP3    H256427   3.277   4.812   1.126 -2.2073  1.2787 -0.4763
11646TIP3   OH256428   3.415   2.351   4.905 -0.8620  0.1959  0.4822
11646TIP3    H156429   3.326   2.348   4.939 -1.9911  1.2603 -2.2004
11646TIP3    H256430   3.428   2.266   4.863 -1.2804  0.6638 -0.6259
11647TIP3   OH256431   5.316   2.891  13.469 -0.5739 -0.4972 -0.7847
11647TIP3    H156432   5.313   2.890  13.564 -0.1483 -0.9472 -0.7740
11647TIP3    H256433   5.265   2.968  13.444 -0.7992 -0.4562 -0.2002
11648TIP3   OH256434   1.282   5.527  12.485  0.3600 -0.3028 -0.3254
11648TIP3    H156435   1.265   5.618  12.509 -1.7326 -1.2356  2.0082
11648TIP3    H256436   1.358   5.502  12.538 -0.2667 -0.4565  0.5201
11649TIP3   OH256437   1.947   4.357  10.952  0.4460 -0.0304  0.8379
11649TIP3    H156438   1.908   4.319  10.874  0.7288 -1.1294  1.2181
11649TIP3    H256439   1.876   4.358  11.017 -0.0367  1.7043  0.3190
11650TIP3   OH256440   4.115   3.950  11.479  0.6483 -0.4161 -0.1370
11650TIP3    H156441   4.208   3.955  11.500  0.2934  1.1263  1.1526
11650TIP3    H256442   4.110   3.976  11.387  1.4901 -0.5525 -0.2268
11651TIP3   OH256443   6.259   5.557  13.592 -0.5333  0.1970  0.3653
11651TIP3    H156444   6.329   5.510  13.638 -0.0105  1.0691  0.4667
11651TIP3    H256445   6.276   5.649  13.610 -0.0010  0.5897 -2.0010
11652TIP3   OH256446   4.721   0.717  12.983  0.0441 -0.2536  0.5518
11652TIP3    H156447   4.770   0.799  12.984 -0.6526  0.1877 -0.3217
11652TIP3    H256448   4.757   0.668  12.909 -0.8906  0.1224 -0.1640
11653TIP3   OH256449   5.354   3.595   5.625  0.0894 -0.1810 -0.3848
11653TIP3    H156450   5.372   3.688   5.641  1.0272 -0.1196 -1.6992
11653TIP3    H256451   5.261   3.584   5.646  0.1471  0.8939  0.4747
11654TIP3   OH256452   3.113   1.780  16.396 -0.3129 -0.4726 -0.3367
11654TIP3    H156453   3.162   1.711  16.439 -2.9898 -0.4306  3.0332
11654TIP3    H256454   3.176   1.852  16.386  1.3793 -1.8834  0.0395
11655TIP3   OH256455   5.223   5.402  16.035  0.1094 -0.8955  0.3696
11655TIP3    H156456   5.257   5.489  16.053  2.4783 -1.7071 -0.0664
11655TIP3    H256457   5.215   5.361  16.121 -0.5741 -0.4358  0.5356
11656TIP3   OH256458   0.238   1.726  17.252 -0.5888  0.1994 -0.2436
11656TIP3    H156459   0.295   1.666  17.205 -1.7819 -0.2029 -1.2158
11656TIP3    H256460   0.175   1.670  17.296  0.1008  0.6105  1.3068
11657TIP3   OH256461   5.091   5.222   1.559  0.0083  0.5805 -0.3504
11657TIP3    H156462   5.037   5.213   1.638  1.9031 -0.6215  0.8342
11657TIP3    H256463   5.093   5.316   1.542 -3.0638  0.6055 -0.8734
11658TIP3   OH256464   4.145   2.891   2.439  0.4150 -0.1311 -0.1968
11658TIP3    H156465   4.072   2.936   2.396  0.9213 -0.3621 -1.3142
11658TIP3    H256466   4.118   2.883   2.530  0.2185  2.3008  0.0098
11659TIP3   OH256467   5.396   1.518   2.432  0.0774  0.0502  0.5516
11659TIP3    H156468   5.491   1.529   2.441  0.0851  0.0496  0.4717
11659TIP3    H256469   5.366   1.601   2.397  0.0904 -0.0570  0.2835
11660TIP3   OH256470   3.586   4.081  14.812  0.0898 -0.3615 -0.0630
11660TIP3    H156471   3.674   4.052  14.789  0.3190 -1.1353  1.6755
11660TIP3    H256472   3.532   4.055  14.738  0.8400 -2.4638  0.0874
11661TIP3   OH256473   6.270   2.929   2.948 -0.1531 -0.1367  0.2680
11661TIP3    H156474   6.305   2.860   3.003  2.1526  0.9214  0.1999
11661TIP3    H256475   6.320   3.007   2.973 -1.0051  0.9567 -1.3482
11662TIP3   OH256476   2.593   2.805   6.641 -0.1109  0.3190 -0.0518
11662TIP3    H156477   2.544   2.886   6.629 -0.0329  0.1525 -1.5309
11662TIP3    H256478   2.646   2.821   6.719 -0.7418  1.3720  0.1710
11663TIP3   OH256479   2.900   2.328   1.006 -0.4667  0.4034 -0.8685
11663TIP3    H156480   2.964   2.310   0.937 -2.0485 -1.1114 -1.9638
11663TIP3    H256481   2.828   2.372   0.962 -0.7637  0.9483  0.1292
11664TIP3   OH256482   2.662   1.531  13.928  0.5873  0.1894  0.6009
11664TIP3    H156483   2.731   1.546  13.864 -0.5496  1.7806 -0.3033
11664TIP3    H256484   2.585   1.574  13.890 -0.7476 -1.0638  1.8451
11665TIP3   OH256485   3.137   1.567  15.839 -0.1408  0.0444 -0.3852
11665TIP3    H156486   3.073   1.507  15.877 -0.8667  1.2978  0.4056
11665TIP3    H256487   3.221   1.538  15.875 -0.4930 -0.4494  0.0447
11666TIP3   OH256488   4.243   0.994  12.019  0.5896 -0.3309  0.7402
11666TIP3    H156489   4.320   0.936  12.021 -0.8875 -2.3277  1.2968
11666TIP3    H256490   4.175   0.941  11.979 -1.1514  0.5908  2.4186
11667TIP3   OH256491   2.976   6.300   4.233  0.0000 -0.6936  0.1799
11667TIP3    H156492   2.971   6.390   4.201  2.2751 -0.2929  0.8802
11667TIP3    H256493   2.896   6.287   4.283 -1.1444  0.3796 -1.3532
11668TIP3   OH256494   4.636   3.368  11.678  0.4922  0.2867 -0.1220
11668TIP3    H156495   4.594   3.436  11.730  0.0593  0.3039 -0.4952
11668TIP3    H256496   4.730   3.379  11.696  0.1834 -1.4436  2.7530
11669TIP3   OH256497   5.696   0.925  13.817  0.5651  0.5789  0.5398
11669TIP3    H156498   5.659   0.867  13.883  1.9913  0.3366  1.1483
11669TIP3    H256499   5.686   1.013  13.854 -1.2999  0.7207 -0.2399
11670TIP3   OH256500   1.946   1.359   6.182  0.2018  0.2878  0.1500
11670TIP3    H156501   1.854   1.372   6.206 -0.2754 -0.4420 -1.2226
11670TIP3    H256502   1.993   1.358   6.265 -1.1366 -0.1499  0.9144
11671TIP3   OH256503   5.880   0.954   5.018  0.2121  0.0225  0.0683
11671TIP3    H156504   5.884   1.046   4.991 -1.2428  0.4624  1.2855
11671TIP3    H256505   5.821   0.912   4.956 -0.4123  0.2809  0.4791
11672TIP3   OH256506   3.120   1.503   4.152  0.5990  0.2905  0.4926
11672TIP3    H156507   3.197   1.557   4.131  0.5462 -0.0226 -0.4864
11672TIP3    H256508   3.121   1.499   4.248  0.2563  2.5558  0.6353
11673TIP3   OH256509   4.324   4.718   0.860 -0.2572  0.1280  0.2383
11673TIP3    H156510   4.383   4.787   0.890 -0.2519 -0.5919  1.9377
11673TIP3    H256511   4.361   4.637   0.896 -0.8347 -0.6365 -0.8590
11674TIP3   OH256512   4.961   3.557   3.055 -0.1223  0.1621  0.4909
11674TIP3    H156513   4.953   3.585   3.147  0.6054 -0.7567  0.8438
11674TIP3    H256514   4.973   3.463   3.060 -2.0967 -0.1705 -0.6854
11675TIP3   OH256515   2.533   1.767   5.686  0.3742  0.0221  0.3599
11675TIP3    H156516   2.576   1.690   5.647  1.4353  0.0290  1.4731
11675TIP3    H256517   2.440   1.754   5.669  0.6732 -0.7999 -0.7167
11676TIP3   OH256518   4.150   2.390   3.498 -0.5365 -0.1975 -0.4600
11676TIP3    H156519   4.180   2.433   3.578 -1.1589 -0.9668  0.1962
11676TIP3    H256520   4.163   2.456   3.429 -0.6173  0.7051  0.3744
11677TIP3   OH256521   2.053   2.486   1.829  0.2906  0.1360 -0.4514
11677TIP3    H156522   2.049   2.504   1.923 -0.7942 -0.6343 -0.3421
11677TIP3    H256523   1.968   2.449   1.808  0.5717  0.1875 -1.7242
11678TIP3   OH256524   2.224   2.810   4.348 -0.1848  0.6522  0.4569
11678TIP3    H156525   2.170   2.745   4.302  0.4874  0.0110  0.5579
11678TIP3    H256526   2.307   2.765   4.362  0.0352  1.2887  1.1886
11679TIP3   OH256527   0.273   0.372   2.559  0.2191 -0.3808 -0.2858
11679TIP3    H156528   0.222   0.296   2.533  0.7266 -0.6113 -0.6060
11679TIP3    H256529   0.244   0.442   2.501  0.0463 -0.4337 -0.2625
11680TIP3   OH256530   0.562   3.857  11.919 -0.2456  0.3545  0.3040
11680TIP3    H156531   0.619   3.886  11.990 -1.0578  0.4767  0.9120
11680TIP3    H256532   0.519   3.779  11.952 -1.6306  1.1688  0.4605
11681TIP3   OH256533   5.806   6.199   5.572  0.3573 -0.3067 -0.0484
11681TIP3    H156534   5.786   6.211   5.480  2.4319  1.2457 -0.3383
11681TIP3    H256535   5.893   6.237   5.583 -0.1543  0.1963  2.6984
11682TIP3   OH256536   1.458   3.187  11.031 -0.2818  0.4265 -0.0323
11682TIP3    H156537   1.525   3.198  10.964 -0.3623 -1.0986 -0.3816
11682TIP3    H256538   1.504   3.199  11.114  0.4493 -0.7381 -0.2645
11683TIP3   OH256539   2.122   1.579   0.407  0.4076  0.4625 -0.3772
11683TIP3    H156540   2.070   1.499   0.412 -0.9628  1.2985 -0.9635
11683TIP3    H256541   2.122   1.601   0.314 -0.4436  1.9129 -0.0505
11684TIP3   OH256542   3.141   5.159   2.274  0.0831 -0.3141  0.3560
11684TIP3    H156543   3.179   5.072   2.291 -0.1968 -0.5615 -0.2788
11684TIP3    H256544   3.153   5.172   2.180 -1.6676 -0.5252  0.0861
11685TIP3   OH256545   4.145   2.982  16.916  0.8316  0.1574 -0.1446
11685TIP3    H156546   4.171   2.972  16.824  0.4249  0.9232 -0.3515
11685TIP3    H256547   4.072   2.921  16.928 -0.1061  1.1513 -0.7428
11686TIP3   OH256548   6.617   6.016   1.099  0.2376 -0.2253  0.4506
11686TIP3    H156549   6.526   5.994   1.080  0.0785 -0.9468  1.9725
11686TIP3    H256550   6.620   6.111   1.093 -0.8160 -0.1283  1.1565
11687TIP3   OH256551   5.449   3.282  11.362  0.1496  0.0014 -0.4742
11687TIP3    H156552   5.371   3.226  11.371 -0.4270  0.9697  0.6585
11687TIP3    H256553   5.476   3.270  11.271 -0.3106 -1.6846 -0.4103
11688TIP3   OH256554   4.057   2.957  15.715  0.1703 -0.1147 -0.2584
11688TIP3    H156555   4.122   3.007  15.665  0.2907  0.3912  0.3941
11688TIP3    H256556   4.093   2.952  15.804  0.7284 -2.4004 -0.5802
11689TIP3   OH256557   6.326   4.160  15.325  0.4252  0.0467 -0.1631
11689TIP3    H156558   6.361   4.145  15.237  0.2495  0.0384 -0.2308
11689TIP3    H256559   6.284   4.077  15.349 -2.0071  0.9486 -1.2021
11690TIP3   OH256560   3.405   3.754   6.343  0.0218  0.8045 -0.4102
11690TIP3    H156561   3.454   3.824   6.386  0.6775  0.3359 -0.3788
11690TIP3    H256562   3.439   3.674   6.383 -1.3787  0.5140  0.2254
11691TIP3   OH256563   2.737   0.059  14.948 -0.1765  0.1882  0.3160
11691TIP3    H156564   2.763   0.037  14.858  0.0175 -0.1925  0.4658
11691TIP3    H256565   2.690  -0.018  14.978 -0.6884  0.5163  0.3679
11692TIP3   OH256566   6.777   0.372  15.575  0.1777 -0.0147  0.1931
11692TIP3    H156567   6.699   0.401  15.622  1.3972  2.2777  0.8725
11692TIP3    H256568   6.744   0.310  15.509 -2.2072  0.9903  0.4055
11693TIP3   OH256569   3.165   1.028   5.138 -0.0074  0.6726 -0.3497
11693TIP3    H156570   3.227   1.016   5.066 -1.3195 -2.0344 -1.1224
11693TIP3    H256571   3.091   1.075   5.098  0.8425  2.5204  0.1933
11694TIP3   OH256572   6.122   6.038  14.517 -0.2843  0.3106 -0.4624
11694TIP3    H156573   6.129   5.968  14.452  1.1228  0.6372 -0.6895
11694TIP3    H256574   6.029   6.046  14.535 -0.5621 -0.7142 -1.4285
11695TIP3   OH256575   5.476   2.920   4.516  0.6816  0.5421  0.2371
11695TIP3    H156576   5.554   2.948   4.469 -1.6347  1.3293 -3.3462
11695TIP3    H256577   5.453   2.836   4.475 -1.1725  1.0552  0.1917
11696TIP3   OH256578   5.312   4.489  17.157 -0.1988  0.7026  0.6329
11696TIP3    H156579   5.365   4.450  17.226 -0.7371  2.2359  1.9243
11696TIP3    H256580   5.269   4.564  17.198 -0.3417  1.7847 -1.4139
11697TIP3   OH256581   4.359   1.684  16.471  0.1069 -0.1577 -0.1226
11697TIP3    H156582   4.265   1.682  16.453 -0.1210  0.4914  0.9934
11697TIP3    H256583   4.379   1.595  16.502 -0.3789  0.0546  0.8221
11698TIP3   OH256584   0.550   1.130   4.499  0.3340  0.1305 -1.0991
11698TIP3    H156585   0.526   1.048   4.542  1.9077  0.1569 -0.1162
11698TIP3    H256586   0.601   1.104   4.423  0.5365  0.1768 -0.9806
11699TIP3   OH256587   3.634   3.421  15.803 -0.1142  0.1229  0.2737
11699TIP3    H156588   3.719   3.410  15.759  0.2161  2.1130  0.3639
11699TIP3    H256589   3.570   3.416  15.733  0.0854 -1.0927  0.1651
11700TIP3   OH256590   6.313   0.740   2.570  0.0023 -0.9417 -0.2446
11700TIP3    H156591   6.317   0.658   2.620 -3.1210 -0.1375  1.4989
11700TIP3    H256592   6.312   0.808   2.637 -3.7419  0.1818 -1.3406
11701TIP3   OH256593   6.228   5.219   1.310  0.2135  0.6114  0.4741
11701TIP3    H156594   6.282   5.169   1.372 -0.5690 -0.6658  0.1474
11701TIP3    H256595   6.254   5.187   1.224 -0.7866  0.2436  0.2973
11702TIP3   OH256596   4.225   1.833  12.993 -0.3886  0.0877 -0.1221
11702TIP3    H156597   4.214   1.739  13.008 -0.3235  0.2980  1.3093
11702TIP3    H256598   4.149   1.873  13.036  1.7697  0.9902  2.9574
11703TIP3   OH256599   2.049   4.478   2.635 -0.4234 -0.1922  0.1692
11703TIP3    H156600   1.963   4.446   2.606 -0.6074 -1.1766  1.7403
11703TIP3    H256601   2.056   4.449   2.726  0.9936  1.0904  0.4900
11704TIP3   OH256602   4.567   2.088   0.171  0.0741 -0.2670  0.3511
11704TIP3    H156603   4.627   2.161   0.184 -0.5165  0.1949  0.5198
11704TIP3    H256604   4.493   2.107   0.230  0.5509 -1.7114  1.4341
11705TIP3   OH256605   4.834   6.086  14.500  0.8773 -0.3107 -0.2392
11705TIP3    H156606   4.760   6.027  14.511  0.6416  0.0865  0.3592
11705TIP3    H256607   4.899   6.056  14.565  0.7478  0.0976  0.0817
11706TIP3   OH256608   2.964   1.110   4.991 -0.0328 -0.2842 -0.2562
11706TIP3    H156609   3.001   1.059   4.918  0.7965  1.3332 -1.0029
11706TIP3    H256610   2.880   1.142   4.958 -0.0659 -0.2848 -0.1720
11707TIP3   OH256611   4.271   3.522  14.464  0.0681 -0.5806  0.2047
11707TIP3    H156612   4.190   3.471  14.459 -0.2295 -0.1188  0.2111
11707TIP3    H256613   4.242   3.609  14.492  0.4681 -0.1811 -0.6188
11708TIP3   OH256614   4.036   4.934  16.662  0.1665 -0.2403  0.2016
11708TIP3    H156615   4.090   4.945  16.741  1.7619 -3.1508 -0.4037
11708TIP3    H256616   4.095   4.953  16.590 -0.6020 -0.0638 -0.3831
11709TIP3   OH256617   2.139   3.537  14.846 -0.2439 -0.3535 -0.3884
11709TIP3    H156618   2.213   3.481  14.868  0.0398 -0.2090 -0.9761
11709TIP3    H256619   2.175   3.625  14.842 -0.6239 -0.1667  0.2044
11710TIP3   OH256620   0.150   1.925  13.623  0.3645  0.2467  0.0524
11710TIP3    H156621   0.143   1.978  13.544 -1.6647  0.8569  0.5893
11710TIP3    H256622   0.112   1.840  13.598 -0.0483  0.3593  0.2929
11711TIP3   OH256623   2.619   3.259   0.655 -0.1435  0.8919  0.2523
11711TIP3    H156624   2.706   3.223   0.637 -0.2035  1.0559 -0.3954
11711TIP3    H256625   2.581   3.275   0.568 -1.4291 -0.6265  0.4920
11712TIP3   OH256626   3.234   5.213   0.533 -0.0921  0.1923  0.2194
11712TIP3    H156627   3.328   5.211   0.554 -0.4269 -0.1558  1.7419
11712TIP3    H256628   3.231   5.230   0.439  1.4672  1.5843  0.4035
11713TIP3   OH256629   5.880   0.336  14.062 -0.0098  0.3820 -0.6007
11713TIP3    H156630   5.887   0.407  13.998  0.5301  1.0719  0.2013
11713TIP3    H256631   5.801   0.357  14.112  1.1824  1.4833  0.8733
11714TIP3   OH256632   3.020   3.978   2.668 -0.2541 -0.2397 -0.2426
11714TIP3    H156633   2.963   3.954   2.741  1.3590 -3.2975  0.1008
11714TIP3    H256634   3.025   3.898   2.615  1.9205  0.6654 -1.4683
11715TIP3   OH256635   2.040   4.444   0.097  0.1062 -0.3272  0.1764
11715TIP3    H156636   2.112   4.462   0.157 -0.8600  1.6987  0.7430
11715TIP3    H256637   2.017   4.352   0.114 -0.0529  0.1735  2.7845
11716TIP3   OH256638   0.953   6.584   3.532 -0.0800  0.0767  0.3976
11716TIP3    H156639   0.988   6.542   3.610  0.4996 -0.7366 -0.2937
11716TIP3    H256640   0.859   6.565   3.535  0.2503 -1.7240 -0.1758
11717TIP3   OH256641   1.293   1.892  15.736 -0.1017  0.5164 -0.1596
11717TIP3    H156642   1.362   1.844  15.783 -0.2709  2.1080  1.7888
11717TIP3    H256643   1.230   1.824  15.711  0.0138 -0.4149  1.9159
11718TIP3   OH256644   6.463   5.141   5.361 -0.0669 -0.9278  0.5093
11718TIP3    H156645   6.446   5.058   5.317 -0.9601 -0.4579 -0.0447
11718TIP3    H256646   6.418   5.133   5.445  2.3914 -2.1781  1.7635
11719TIP3   OH256647   4.914   4.823   5.766 -0.5270  0.0889  0.0955
11719TIP3    H156648   4.904   4.740   5.719  0.1982  0.3231 -0.4865
11719TIP3    H256649   4.950   4.798   5.851  0.5195 -0.1219 -0.4015
11720TIP3   OH256650   1.790   0.266  16.458  0.0296  0.2952  0.0737
11720TIP3    H156651   1.817   0.308  16.540  0.9788 -1.0587  0.4748
11720TIP3    H256652   1.721   0.322  16.424  0.4363  1.5095  1.2158
11721TIP3   OH256653   2.533   2.540   2.314 -0.1546  0.3851 -0.4420
11721TIP3    H156654   2.454   2.512   2.360  0.7097 -0.4581  0.5367
11721TIP3    H256655   2.515   2.519   2.222  0.2768 -3.0519  0.1779
11722TIP3   OH256656   3.115   3.997   0.525 -0.1519 -0.1322  0.5736
11722TIP3    H156657   3.065   3.932   0.575 -1.2677 -0.1496 -0.5470
11722TIP3    H256658   3.098   4.080   0.571 -2.0229  0.0221 -0.3579
11723TIP3   OH256659   4.866   5.220   5.616  0.3105  0.1885  0.2609
11723TIP3    H156660   4.839   5.149   5.558  0.7257  0.7210 -0.5958
11723TIP3    H256661   4.962   5.219   5.612  0.3521 -0.0692  1.3027
11724TIP3   OH256662   0.742   2.179   4.527  0.0656  0.2782  0.2276
11724TIP3    H156663   0.787   2.215   4.603  1.0201 -0.0838 -0.1544
11724TIP3    H256664   0.757   2.085   4.532  2.4620  0.5041 -1.8685
11725TIP3   OH256665   4.392   5.831  14.615  0.2551 -0.5521  0.2934
11725TIP3    H156666   4.334   5.877  14.676 -0.7376 -1.0311 -0.2642
11725TIP3    H256667   4.397   5.888  14.538 -0.9308 -1.3165 -0.3753
11726TIP3   OH256668   5.611   1.820   4.567 -0.0396  0.1503 -0.1706
11726TIP3    H156669   5.605   1.724   4.558 -1.0450  0.2205 -0.3758
11726TIP3    H256670   5.520   1.847   4.584  0.2914  1.0383  0.1981
11727TIP3   OH256671   0.254   5.909  14.616 -0.3737  0.3473 -0.0528
11727TIP3    H156672   0.217   5.852  14.684 -0.5574 -0.2774 -0.6727
11727TIP3    H256673   0.349   5.900  14.627 -0.4026  0.6984  0.4992
11728TIP3   OH256674   2.633   1.180  15.993 -0.3541 -0.4268 -0.1352
11728TIP3    H156675   2.637   1.239  15.917  0.5239  1.1463  1.1017
11728TIP3    H256676   2.719   1.186  16.033 -0.3189 -2.4165  0.1524
11729TIP3   OH256677   1.819   1.019  11.223  0.6850  0.3354  0.2398
11729TIP3    H156678   1.806   1.113  11.234  3.1721  0.6382  0.8510
11729TIP3    H256679   1.865   1.011  11.139  0.7155 -0.3199  0.3170
11730TIP3   OH256680   6.057   4.666  16.445 -0.3458  0.4229  0.2679
11730TIP3    H156681   6.038   4.757  16.470  0.0040  0.3323  0.8556
11730TIP3    H256682   6.136   4.672  16.391 -0.9889  0.5965 -0.6714
11731TIP3   OH256683   5.430   2.823   3.682 -0.3549  0.0065  0.4880
11731TIP3    H156684   5.397   2.845   3.769 -1.0494 -0.1787  0.2762
11731TIP3    H256685   5.444   2.728   3.685 -1.0541 -0.1112  0.1796
11732TIP3   OH256686   5.159   6.242   0.380 -0.3202  0.1351 -0.1918
11732TIP3    H156687   5.232   6.186   0.354 -0.5508 -0.7677  1.0775
11732TIP3    H256688   5.185   6.330   0.352  1.4391 -0.1090  0.6072
11733TIP3   OH256689   1.128   4.514   5.507  0.6946 -0.2391 -0.6271
11733TIP3    H156690   1.211   4.466   5.508  0.5924 -0.3980  0.0761
11733TIP3    H256691   1.149   4.601   5.540  0.7232 -0.0471 -1.1474
11734TIP3   OH256692   5.244   3.995   4.969  0.4035 -0.3104 -0.1102
11734TIP3    H156693   5.290   4.079   4.965  0.5889 -0.4024  0.0872
11734TIP3    H256694   5.313   3.929   4.963  0.4557 -0.4545  1.7846
11735TIP3   OH256695   1.418   5.443   1.052 -0.9250 -0.4146  0.1804
11735TIP3    H156696   1.410   5.385   0.977 -1.3593 -0.7548  0.4787
11735TIP3    H256697   1.333   5.488   1.056 -1.7773 -2.0939  1.8243
11736TIP3   OH256698   4.838   5.811   1.320  0.6800 -0.1384  0.4840
11736TIP3    H156699   4.911   5.853   1.274 -0.1270 -2.5448 -3.2040
11736TIP3    H256700   4.869   5.723   1.339 -1.1178 -1.1367 -0.9831
11737TIP3   OH256701   3.591   3.162   2.380  0.1335  0.4726 -0.6371
11737TIP3    H156702   3.613   3.090   2.439  0.3790 -0.2066 -1.5373
11737TIP3    H256703   3.525   3.213   2.428 -1.3330 -1.3327 -0.6562
11738TIP3   OH256704   2.429   2.249  12.335  0.0183  0.6209  0.0382
11738TIP3    H156705   2.369   2.301  12.389 -0.1657  1.6651 -1.1435
11738TIP3    H256706   2.379   2.230  12.256  0.5458 -0.2402 -0.0867
11739TIP3   OH256707   2.981   4.632  13.149 -0.0668 -0.6372  0.6606
11739TIP3    H156708   2.938   4.706  13.107 -0.4668 -2.0830 -1.5844
11739TIP3    H256709   3.022   4.584  13.077 -0.1739 -2.8211  1.9960
11740TIP3   OH256710   6.802   4.510   4.243  0.1807 -0.1433  0.2636
11740TIP3    H156711   6.874   4.447   4.234 -0.1784 -0.3569 -1.3429
11740TIP3    H256712   6.750   4.498   4.163 -1.5052  0.1840  1.2953
11741TIP3   OH256713   1.662   3.009  15.052 -0.9342 -0.1456 -0.1843
11741TIP3    H156714   1.733   2.984  14.993 -0.6361  1.7461 -0.6423
11741TIP3    H256715   1.611   2.929  15.063  1.1254 -1.4630 -0.0436
11742TIP3   OH256716   3.630   1.985  15.534  0.1388 -0.1466  0.2472
11742TIP3    H156717   3.630   1.973  15.628  0.0324 -1.9940  0.0340
11742TIP3    H256718   3.537   1.984  15.509  0.1879 -0.3278  0.0611
11743TIP3   OH256719   3.678   3.733   1.616  0.0945 -0.6114  0.0134
11743TIP3    H156720   3.667   3.675   1.541  0.2861 -1.4593  0.6259
11743TIP3    H256721   3.747   3.794   1.590 -0.3332 -0.4577 -0.7579
11744TIP3   OH256722   6.179   5.721  14.055 -0.0760 -0.7961 -0.3837
11744TIP3    H156723   6.090   5.705  14.086 -0.0451 -3.8999 -1.6795
11744TIP3    H256724   6.171   5.793  13.993 -1.0860  1.2994  2.0851
11745TIP3   OH256725   4.045   0.095  12.343 -0.5925  0.5069  0.0047
11745TIP3    H156726   4.097   0.172  12.365 -1.9636  0.7507  2.4855
11745TIP3    H256727   4.110   0.025  12.335  0.4073  1.4082  0.1161
11746TIP3   OH256728   2.362   4.483   0.725  0.8314 -0.2624 -0.2341
11746TIP3    H156729   2.432   4.523   0.673  1.9498  0.4731  1.7863
11746TIP3    H256730   2.282   4.512   0.683  1.7013  0.7144 -1.2510
11747TIP3   OH256731   2.680   4.937  16.030  0.1116  0.3920  1.0029
11747TIP3    H156732   2.727   4.995  16.090  0.5294 -0.3264  1.3655
11747TIP3    H256733   2.657   4.861  16.082  1.0489 -0.5324  0.1053
11748TIP3   OH256734   0.706   6.536   1.002  0.1642 -0.1090  0.1178
11748TIP3    H156735   0.612   6.558   0.996  0.4213  1.0086 -0.0716
11748TIP3    H256736   0.717   6.462   0.942 -0.8614 -1.1724  1.2222
11749TIP3   OH256737   5.327   4.744   5.354  0.6293 -0.4793 -0.3549
11749TIP3    H156738   5.323   4.657   5.315 -0.7139 -1.3166  1.6319
11749TIP3    H256739   5.237   4.765   5.378  0.9967  1.2899 -0.3977
11750TIP3   OH256740   1.771   5.140  14.182  0.1280  0.5097 -0.2605
11750TIP3    H156741   1.842   5.155  14.119  2.5535 -1.9360  1.7116
11750TIP3    H256742   1.737   5.054  14.159  0.7286 -0.2082  1.3774
11751TIP3   OH256743   3.630   3.443  11.621  0.1308  0.6907 -0.5409
11751TIP3    H156744   3.583   3.526  11.631  2.5643  1.9555  0.8609
11751TIP3    H256745   3.619   3.399  11.705 -1.0104 -0.3641 -1.2235
11752TIP3   OH256746   3.604   4.376   3.515 -0.1220  0.4465  0.5935
11752TIP3    H156747   3.636   4.424   3.438  0.6253  1.5239  1.5499
11752TIP3    H256748   3.650   4.416   3.588 -1.7356  0.2387  1.7351
11753TIP3   OH256749   1.098   4.003   5.862  0.0303  0.1228 -0.3214
11753TIP3    H156750   1.100   4.001   5.766  0.6360 -1.6680 -0.2895
11753TIP3    H256751   1.017   3.957   5.886 -0.0007  0.3566  0.0243
11754TIP3   OH256752   5.664   2.108   3.718 -0.1983 -0.2787  0.1556
11754TIP3    H156753   5.728   2.056   3.767 -0.0188 -0.9328 -0.7510
11754TIP3    H256754   5.606   2.043   3.678 -0.4327  0.2468 -0.3726
11755TIP3   OH256755   6.721   3.376  16.061  0.1681  0.4476  0.4697
11755TIP3    H156756   6.773   3.313  16.011  0.0491 -1.0929  2.2171
11755TIP3    H256757   6.786   3.428  16.108  0.1922 -0.5469  1.5569
11756TIP3   OH256758   4.591   4.101   3.744  0.0411 -0.2967  0.3030
11756TIP3    H156759   4.552   4.058   3.820 -0.2852 -0.1803  0.2023
11756TIP3    H256760   4.678   4.128   3.774  0.4644 -1.4948  0.2140
11757TIP3   OH256761   4.749   6.046   5.739 -0.1402  0.3739  0.3221
11757TIP3    H156762   4.772   5.958   5.709  1.8188  1.1608 -0.5245
11757TIP3    H256763   4.790   6.104   5.675 -2.2074  1.9072  0.3365
11758TIP3   OH256764   1.574   5.844   4.988  0.3313  0.1974 -0.3077
11758TIP3    H156765   1.611   5.883   4.909  0.1397 -1.2544 -1.1348
11758TIP3    H256766   1.489   5.809   4.960 -0.1276  0.4276  0.7542
11759TIP3   OH256767   2.737   4.061   5.044  0.0514 -0.2537 -0.6757
11759TIP3    H156768   2.751   4.062   5.138 -1.2992  1.5821 -0.4663
11759TIP3    H256769   2.738   3.968   5.021 -1.2361 -0.8151  1.4016
11760TIP3   OH256770   0.442   2.228  12.374  1.0730  0.3088  0.3437
11760TIP3    H156771   0.354   2.253  12.399 -0.0423 -1.4665 -1.6208
11760TIP3    H256772   0.485   2.310  12.352  0.0452  1.2238  1.6575
11761TIP3   OH256773   2.515   1.820  16.266  0.0382 -0.5487  0.3468
11761TIP3    H156774   2.455   1.895  16.268  0.2320 -0.3704 -0.3846
11761TIP3    H256775   2.600   1.857  16.291  0.4538 -0.2137 -1.5078
11762TIP3   OH256776   0.562   6.233   2.493 -0.6728  0.2815 -0.0839
11762TIP3    H156777   0.477   6.255   2.456 -1.5878 -0.1480  1.6853
11762TIP3    H256778   0.600   6.318   2.517  0.4746  0.6535 -3.0894
11763TIP3   OH256779   5.672   1.896   1.171 -0.1793  0.3622  0.4373
11763TIP3    H156780   5.748   1.954   1.165 -0.0435  0.0614 -0.7178
11763TIP3    H256781   5.705   1.817   1.214  0.4369 -0.2384 -1.1191
11764TIP3   OH256782   3.622   5.792   0.283 -0.2516  0.0782  0.1266
11764TIP3    H156783   3.532   5.797   0.316 -1.0722 -1.3930 -1.7465
11764TIP3    H256784   3.675   5.839   0.347 -2.1054 -0.6454  2.2363
11765TIP3   OH256785   3.582   2.792  15.858 -0.2117 -0.3780 -0.2931
11765TIP3    H156786   3.652   2.840  15.812  0.0088  1.4045  1.8406
11765TIP3    H256787   3.523   2.765  15.788  0.8843  0.9711 -1.8063
11766TIP3   OH256788   0.992   1.336   3.430 -0.0475  0.4469 -0.0427
11766TIP3    H156789   1.070   1.369   3.473 -0.0287  0.1445  0.1507
11766TIP3    H256790   0.953   1.274   3.492  0.3076 -0.4423 -0.6952
11767TIP3   OH256791   2.927   4.253  13.319 -0.1078 -0.5886  0.0390
11767TIP3    H156792   2.863   4.322  13.335 -2.0470 -2.4305  0.3138
11767TIP3    H256793   2.969   4.239  13.404  1.0937  0.9740 -0.2534
11768TIP3   OH256794   0.469   5.699  11.853 -0.2173 -0.3022  0.1797
11768TIP3    H156795   0.510   5.741  11.929 -1.9466 -0.5510  1.2789
11768TIP3    H256796   0.511   5.613  11.849  1.0893  0.3270 -0.1925
11769TIP3   OH256797   1.547   3.353  11.996  0.9323 -0.6150 -0.2948
11769TIP3    H156798   1.639   3.356  11.971  0.9177 -0.2853 -0.3114
11769TIP3    H256799   1.547   3.311  12.082  1.1517 -0.1052 -0.0407
11770TIP3   OH256800   5.919   0.941   0.720  0.4341 -0.3499 -0.7776
11770TIP3    H156801   5.929   0.989   0.802  1.3149  0.0764 -1.1252
11770TIP3    H256802   5.827   0.951   0.697  0.5177  0.8536 -0.6374
11771TIP3   OH256803   6.266   4.468  12.798  0.3098  0.3271  0.0769
11771TIP3    H156804   6.197   4.414  12.761  0.5202 -0.4715  0.8305
11771TIP3    H256805   6.224   4.552  12.817 -0.2279  0.1375 -0.2961
11772TIP3   OH256806   0.912   4.355   1.769 -0.0003  0.0418  0.5669
11772TIP3    H156807   0.946   4.286   1.826 -1.4814 -0.3359  1.0115
11772TIP3    H256808   0.918   4.434   1.823  2.5268  0.4444 -0.2559
11773TIP3   OH256809   2.884   6.238   2.336  0.0309  0.1446 -0.1673
11773TIP3    H156810   2.884   6.153   2.379  1.1703 -0.6992 -1.7431
11773TIP3    H256811   2.977   6.255   2.318 -0.4259  0.2617 -2.5856
11774TIP3   OH256812   5.746   0.613  16.681 -0.7686 -0.5167 -0.1015
11774TIP3    H156813   5.765   0.670  16.606 -3.4059 -0.9805 -1.1816
11774TIP3    H256814   5.765   0.525  16.649 -2.1803 -0.7441 -0.3570
11775TIP3   OH256815   6.467   1.570   0.220  0.3451 -0.0255  0.2712
11775TIP3    H156816   6.492   1.490   0.266  0.1605 -1.0264 -1.2956
11775TIP3    H256817   6.423   1.538   0.141  0.0203  1.6372 -0.2289
11776TIP3   OH256818   4.525   3.120   0.105 -0.2822 -0.6052  0.2192
11776TIP3    H156819   4.519   3.032   0.143  0.1577 -0.6565  0.1757
11776TIP3    H256820   4.508   3.107   0.012 -2.1153 -0.3731  0.5136
11777TIP3   OH256821   2.421   2.632  13.222  0.7456  0.5303 -0.6118
11777TIP3    H156822   2.498   2.574  13.222 -0.6606 -1.3842 -0.0285
11777TIP3    H256823   2.401   2.646  13.314  0.0685  0.6026 -0.7708
11778TIP3   OH256824   2.810   4.772  14.102 -0.6323  0.4111  0.0948
11778TIP3    H156825   2.825   4.680  14.125 -0.7342  0.6548  1.1404
11778TIP3    H256826   2.755   4.806  14.173 -0.9219  1.1785 -0.4893
11779TIP3   OH256827   2.527   0.334   3.610 -0.4270  0.2584  0.5064
11779TIP3    H156828   2.539   0.348   3.704 -1.6681  1.1112  0.5407
11779TIP3    H256829   2.469   0.258   3.605  0.6475 -0.5698  0.4019
11780TIP3   OH256830   0.925   6.732  12.413  0.1353  0.0729 -0.9949
11780TIP3    H156831   0.875   6.783  12.476  2.0450  1.1012 -0.2816
11780TIP3    H256832   0.962   6.796  12.353  1.2320 -0.5956 -1.0542
11781TIP3   OH256833   3.110   0.776   0.130  0.0281 -0.5525 -0.5372
11781TIP3    H156834   3.089   0.704   0.189 -1.3303  1.2789  1.3287
11781TIP3    H256835   3.050   0.846   0.156  1.5546  1.3735 -2.0243
11782TIP3   OH256836   2.648   5.237  17.062  0.1654  0.6142 -0.6373
11782TIP3    H156837   2.564   5.193  17.050 -0.7851  2.1596  0.1316
11782TIP3    H256838   2.686   5.242  16.975 -0.9135  0.5958 -1.1169
11783TIP3   OH256839   3.156   0.982   3.251  0.4738 -0.2132  0.1971
11783TIP3    H156840   3.222   1.050   3.262 -0.0353 -0.0035  2.1452
11783TIP3    H256841   3.127   0.962   3.340 -1.5898 -0.8046 -0.5845
11784TIP3   OH256842   4.745   1.119  11.889 -0.0373 -0.4020 -0.2578
11784TIP3    H156843   4.792   1.043  11.852  0.3149 -1.1272  1.6276
11784TIP3    H256844   4.759   1.112  11.983 -0.3626  1.7961 -0.0274
11785TIP3   OH256845   6.516   5.631   0.188 -0.1469 -0.0447  0.4551
11785TIP3    H156846   6.532   5.539   0.166 -0.3153 -0.1355  0.7089
11785TIP3    H256847   6.604   5.669   0.195 -0.0922 -0.0240 -0.3298
11786TIP3   OH256848   4.575   6.816  12.204  0.0994  0.0348 -0.1559
11786TIP3    H156849   4.586   6.721  12.204  1.7779  0.2050 -0.2620
11786TIP3    H256850   4.518   6.834  12.279 -0.6002 -1.0921 -0.4143
11787TIP3   OH256851   0.830   4.057   0.812  0.0549  0.2247  0.2222
11787TIP3    H156852   0.921   4.028   0.815 -0.0601  0.0327  2.4936
11787TIP3    H256853   0.780   3.985   0.849 -0.9962  0.4513 -0.7326
11788TIP3   OH256854   5.160   6.773  15.339 -0.3434  0.0046 -0.5993
11788TIP3    H156855   5.140   6.831  15.413  2.5261  0.6543 -0.2985
11788TIP3    H256856   5.240   6.808  15.301  0.2006 -2.4454 -1.8252
11789TIP3   OH256857   4.647   1.640   1.597  0.7272  0.0976 -0.0946
11789TIP3    H156858   4.565   1.685   1.616  2.1967  1.6397  2.7764
11789TIP3    H256859   4.656   1.576   1.667  1.0103 -1.4917 -1.5373
11790TIP3   OH256860   4.844   6.031   1.576 -0.0317  0.5545 -0.6707
11790TIP3    H156861   4.763   6.046   1.624  0.4063  1.4882 -0.2089
11790TIP3    H256862   4.844   5.937   1.557 -0.3505  0.2265  0.8981
11791TIP3   OH256863   3.279   4.665  11.941  0.2282  0.1150  0.5038
11791TIP3    H156864   3.252   4.732  12.003  0.5644  0.3274  0.4193
11791TIP3    H256865   3.212   4.668  11.872  0.2605  0.3773  0.4862
11792TIP3   OH256866   0.481   2.515   3.884 -0.1510  0.3262  0.3616
11792TIP3    H156867   0.568   2.496   3.850 -0.9059 -0.6325 -1.0862
11792TIP3    H256868   0.496   2.575   3.956  1.7433 -0.1297  0.3723
11793TIP3   OH256869   5.849   2.379   5.561 -0.5356  0.6667  0.1724
11793TIP3    H156870   5.924   2.378   5.621 -0.4386  3.0472  0.1439
11793TIP3    H256871   5.782   2.328   5.606  0.7733 -0.6920  0.6279
11794TIP3   OH256872   4.049   3.366  12.595  0.6333 -0.1944  0.1780
11794TIP3    H156873   4.048   3.279  12.636  1.7011 -0.6816 -0.7963
11794TIP3    H256874   4.139   3.377  12.565 -0.1170  0.1157 -2.0856
11795TIP3   OH256875   2.842   3.983  14.668  0.4492  0.2080 -0.0845
11795TIP3    H156876   2.790   4.001  14.589 -0.3458 -0.1290  0.3641
11795TIP3    H256877   2.927   3.953  14.634  1.1359  2.8811 -0.8275
11796TIP3   OH256878   4.647   6.611  11.243 -0.2815  0.2063  0.4911
11796TIP3    H156879   4.662   6.706  11.242 -1.8196  0.4951  2.7839
11796TIP3    H256880   4.728   6.575  11.280 -0.7213  0.8382  2.0843
11797TIP3   OH256881   4.483   0.876   0.044 -0.4606 -0.8701 -0.1227
11797TIP3    H156882   4.560   0.837   0.003  0.5419 -0.3119  1.1834
11797TIP3    H256883   4.515   0.957   0.084 -1.6768 -0.7246  0.5963
11798TIP3   OH256884   4.298   3.102  14.347  0.0304  0.3745 -0.0980
11798TIP3    H156885   4.320   3.164  14.278  1.1128 -0.5308 -0.5705
11798TIP3    H256886   4.271   3.023  14.301 -0.2497  0.1140  0.5080
11799TIP3   OH256887   2.277   6.188   0.230 -0.2172 -0.4376  0.0305
11799TIP3    H156888   2.261   6.164   0.321  0.3212 -0.9552 -0.0087
11799TIP3    H256889   2.209   6.253   0.210 -2.8400 -3.1652 -0.3560
11800TIP3   OH256890   2.609   6.638   5.758 -0.1666 -0.0365 -0.4163
11800TIP3    H156891   2.558   6.691   5.820 -0.6645  0.3168 -1.1292
11800TIP3    H256892   2.698   6.672   5.765 -0.5204  1.0384 -1.0276
11801TIP3   OH256893   4.901   5.179   6.101 -0.8018  0.0466  0.6864
11801TIP3    H156894   4.913   5.139   6.014 -1.0103  1.2066  0.1166
11801TIP3    H256895   4.814   5.218   6.097 -0.5260  0.7055  1.1841
11802TIP3   OH256896   2.027   4.695   2.455  0.1122 -0.2913 -0.0510
11802TIP3    H156897   2.047   4.642   2.532  0.5766 -0.8985 -0.5755
11802TIP3    H256898   2.029   4.786   2.487  0.3713 -0.5332  0.6337
11803TIP3   OH256899   0.752   6.670  15.297  0.6120 -0.1000  0.4153
11803TIP3    H156900   0.801   6.697  15.219 -0.2407 -0.5587 -0.2831
11803TIP3    H256901   0.800   6.593  15.330  0.3034 -0.6210 -0.3353
11804TIP3   OH256902   2.274   5.483   1.911 -0.6295  0.0300 -1.2431
11804TIP3    H156903   2.319   5.559   1.946 -0.5384 -1.0046  0.9780
11804TIP3    H256904   2.185   5.489   1.944 -0.6212 -0.8201 -1.0339
11805TIP3   OH256905   1.126   4.610  12.702 -0.2299 -0.4067 -0.2496
11805TIP3    H156906   1.190   4.619  12.632  0.2195 -2.1866 -0.0907
11805TIP3    H256907   1.051   4.566  12.662 -1.2166  1.2926 -0.3324
11806TIP3   OH256908   4.094   3.942  15.486 -0.1852 -0.0422  0.1768
11806TIP3    H156909   4.024   3.964  15.425  0.4668  0.7900 -0.2895
11806TIP3    H256910   4.172   3.932  15.431 -0.0206 -1.4570  0.6279
11807TIP3   OH256911   1.951   6.615   0.516 -0.2530  0.6581 -0.2836
11807TIP3    H156912   1.905   6.692   0.482 -1.6980 -0.8950 -1.9841
11807TIP3    H256913   1.920   6.606   0.606 -2.4513  0.3392 -1.0318
11808TIP3   OH256914   2.569   0.477  14.612 -0.1105  0.4388 -0.2022
11808TIP3    H156915   2.661   0.499  14.599  0.0282  0.2823  0.4850
11808TIP3    H256916   2.571   0.385  14.641 -0.6734 -0.5138 -3.0499
11809TIP3   OH256917   5.073   0.612   2.134  0.2441  0.2370  0.6774
11809TIP3    H156918   5.114   0.545   2.078 -0.2265 -0.6624  1.3809
11809TIP3    H256919   5.033   0.561   2.205 -0.5622  1.2387  0.9483
11810TIP3   OH256920   2.222   0.459   5.013  0.3086 -0.2009 -0.1421
11810TIP3    H156921   2.134   0.495   5.008  0.5579  0.6646  1.2177
11810TIP3    H256922   2.216   0.373   4.970 -0.9719  0.2247 -0.8399
11811TIP3   OH256923   4.275   0.379  16.021 -0.4069  0.2439  0.2160
11811TIP3    H156924   4.287   0.316  15.950  0.1678  0.7007 -0.0909
11811TIP3    H256925   4.212   0.442  15.986  1.4068  1.6065 -0.6469
11812TIP3   OH256926   1.020   0.439  15.754 -0.4387  0.2005  0.2956
11812TIP3    H156927   1.077   0.363  15.762  0.0508  0.4759 -0.5449
11812TIP3    H256928   0.949   0.422  15.816 -1.5898 -2.0693 -1.5657
11813TIP3   OH256929   6.572   5.874   5.395 -0.2950 -0.7232 -0.1444
11813TIP3    H156930   6.547   5.801   5.340  2.1167 -1.2372 -0.6391
11813TIP3    H256931   6.592   5.834   5.480 -0.3045 -0.4728 -0.0248
11814TIP3   OH256932   4.047   3.556  13.442 -0.1939 -0.0143  0.2445
11814TIP3    H156933   4.134   3.519  13.457 -0.1080  0.0776 -0.0202
11814TIP3    H256934   4.063   3.634  13.389 -0.6208 -1.3052 -1.8540
11815TIP3   OH256935   5.121   2.960  11.439  0.7876  0.5135  0.1191
11815TIP3    H156936   5.064   2.889  11.469  1.5459 -0.2410 -0.2096
11815TIP3    H256937   5.176   2.981  11.515  2.4649 -1.1570 -0.5970
11816TIP3   OH256938   6.613   4.303   4.640  0.3596  0.1618 -0.1436
11816TIP3    H156939   6.688   4.245   4.626  0.3271  0.3523 -1.0974
11816TIP3    H256940   6.638   4.385   4.598 -0.5153  0.1285 -0.7307
11817TIP3   OH256941   2.076   1.592   0.807 -0.1996  0.5549 -0.4182
11817TIP3    H156942   2.086   1.497   0.810  1.1792  0.7148  2.4116
11817TIP3    H256943   2.161   1.623   0.777 -0.2969  0.9224 -0.3116
11818TIP3   OH256944   3.300   4.204   1.697 -0.3557  0.1283  0.4831
11818TIP3    H156945   3.334   4.134   1.641 -0.2520 -0.1491  0.8940
11818TIP3    H256946   3.303   4.282   1.642 -0.7059 -0.2375 -0.0593
11819TIP3   OH256947   4.654   1.469  11.686  0.9725 -0.0017 -0.6736
11819TIP3    H156948   4.573   1.439  11.728  1.5663 -1.3866 -0.5020
11819TIP3    H256949   4.648   1.435  11.596  0.5165  1.4781 -1.2324
11820TIP3   OH256950   4.206   5.397   2.424  0.7132 -0.5936  0.1239
11820TIP3    H156951   4.200   5.326   2.489 -2.6258 -0.5284  0.0141
11820TIP3    H256952   4.291   5.438   2.440  0.1911 -0.8547  4.1778
11821TIP3   OH256953   3.063   4.035  11.808 -0.3075  0.0228  0.1001
11821TIP3    H156954   3.010   4.051  11.886 -0.3591  1.1695 -0.1661
11821TIP3    H256955   3.153   4.049  11.836 -0.4647  2.5034 -0.5404
11822TIP3   OH256956   6.030   1.362  13.252 -0.5208 -0.4907  0.4746
11822TIP3    H156957   6.113   1.327  13.220 -0.4428  0.4989 -0.4290
11822TIP3    H256958   5.995   1.293  13.309  0.8050 -1.0042  0.6870
11823TIP3   OH256959   6.472   1.068   5.486 -0.6973 -0.5522 -0.2282
11823TIP3    H156960   6.547   1.086   5.543 -1.5060  1.4465  0.2319
11823TIP3    H256961   6.495   1.111   5.403 -0.2229 -2.1191 -0.9372
11824TIP3   OH256962   2.294   4.485  17.255  0.2997  0.2853  0.1987
11824TIP3    H156963   2.341   4.419  17.306  0.7616 -0.3639 -1.0398
11824TIP3    H256964   2.204   4.453  17.251  0.8131 -1.0050 -1.5676
11825TIP3   OH256965   4.389   3.453   3.768  0.7112  0.1186 -0.0735
11825TIP3    H156966   4.387   3.523   3.703  0.7817 -0.6429 -0.8961
11825TIP3    H256967   4.476   3.459   3.808  0.5387  0.8099  0.2107
11826TIP3   OH256968   3.906   6.680   2.276  0.6644 -0.4629 -0.0301
11826TIP3    H156969   3.811   6.669   2.273  0.5384  0.1557  1.2397
11826TIP3    H256970   3.919   6.762   2.324  1.8413 -0.5540 -0.1727
11827TIP3   OH256971   1.734   5.392   2.879  0.2307  0.3388  0.1758
11827TIP3    H156972   1.817   5.385   2.832  0.5117  0.2294  0.6899
11827TIP3    H256973   1.688   5.463   2.835  1.2760  1.5015  0.9257
11828TIP3   OH256974   3.588   3.741   5.836  0.3793 -0.4428  0.2859
11828TIP3    H156975   3.612   3.745   5.929 -0.1280 -0.0235  0.4002
11828TIP3    H256976   3.495   3.761   5.834  0.0678 -1.8510 -0.1801
11829TIP3   OH256977   1.860   5.612  13.122 -0.2718  0.0771 -0.2978
11829TIP3    H156978   1.798   5.625  13.050 -0.8220  0.0779  0.1789
11829TIP3    H256979   1.865   5.697  13.165 -0.1487  0.0027 -0.1637
11830TIP3   OH256980   3.847   0.916   5.445 -0.2244 -0.9080 -0.0876
11830TIP3    H156981   3.828   1.010   5.445 -0.3867 -0.9389 -1.0499
11830TIP3    H256982   3.786   0.879   5.509 -0.9822 -0.5210 -0.5866
11831TIP3   OH256983   4.802   4.981   5.436  0.0605  0.0193  0.3261
11831TIP3    H156984   4.773   4.897   5.470 -0.2543 -0.4197 -0.9997
11831TIP3    H256985   4.722   5.033   5.430 -0.3256 -0.8195 -2.2797
11832TIP3   OH256986   0.769   2.841   5.094  0.0499  0.1493 -0.0551
11832TIP3    H156987   0.707   2.814   5.027  0.7859  0.1167 -0.7248
11832TIP3    H256988   0.802   2.926   5.064  1.2522 -0.4012 -0.3409
11833TIP3   OH256989   2.001   5.510   4.519 -0.5734  0.3214  0.3309
11833TIP3    H156990   2.061   5.525   4.446  0.4762  0.8567  1.2965
11833TIP3    H256991   1.920   5.481   4.477 -0.8102  3.0575 -1.2139
11834TIP3   OH256992   4.559   5.556  13.788  0.6392 -0.2268 -0.0832
11834TIP3    H156993   4.581   5.581  13.698  0.1966  0.3659 -0.0333
11834TIP3    H256994   4.473   5.595  13.804  0.1165 -1.4482  0.1543
11835TIP3   OH256995   3.959   5.410   3.943  0.3507  0.1308 -0.1926
11835TIP3    H156996   4.009   5.443   4.018 -0.5192  1.6595 -0.2591
11835TIP3    H256997   3.896   5.349   3.981  1.5604 -0.9948  0.0168
11836TIP3   OH256998   0.162   4.064   3.190 -0.3035  0.1344  0.1526
11836TIP3    H156999   0.070   4.061   3.166 -0.0775 -1.5081 -0.5360
11836TIP3    H257000   0.164   4.032   3.280 -0.1144 -2.4893 -0.7479
11837TIP3   OH257001   3.640   1.376  12.617  0.1067  0.1425 -0.3371
11837TIP3    H157002   3.589   1.296  12.631  1.3610 -0.5970  0.1260
11837TIP3    H257003   3.588   1.445  12.657  0.1154 -0.8130  1.3642
11838TIP3   OH257004   1.590   5.017   2.039 -0.0225 -0.0274 -0.4595
11838TIP3    H157005   1.558   5.096   2.081  3.1733 -0.3883  2.9449
11838TIP3    H257006   1.547   4.946   2.087  0.4527 -0.3787 -0.5463
11839TIP3   OH257007   3.531   5.500  14.503 -0.2243  0.2667  0.2700
11839TIP3    H157008   3.495   5.470  14.586 -0.3275  0.5226  0.3161
11839TIP3    H257009   3.576   5.582  14.523 -2.0989  1.4755 -0.3000
11840TIP3   OH257010   4.041   2.037  12.069  0.2311 -0.0757 -0.1683
11840TIP3    H157011   4.105   2.078  12.128 -0.7994 -0.0751  0.9826
11840TIP3    H257012   3.979   2.107  12.050  1.5869  0.4490 -2.8011
11841TIP3   OH257013   2.804   3.338   1.826  0.6268 -0.2689 -0.0806
11841TIP3    H157014   2.739   3.380   1.770  3.0980  1.1514 -1.9460
11841TIP3    H257015   2.812   3.396   1.902  0.5901  0.1681 -0.4095
11842TIP3   OH257016   3.608   0.294   4.435  0.3677  0.4106 -0.3774
11842TIP3    H157017   3.605   0.384   4.466  0.5576 -0.3868  2.0498
11842TIP3    H257018   3.673   0.295   4.365  1.5188  1.8703  0.6732
11843TIP3   OH257019   4.024   0.805  11.361  0.6250  0.0758  0.1965
11843TIP3    H157020   4.107   0.841  11.330 -1.0181  2.2119 -1.9610
11843TIP3    H257021   4.004   0.734  11.300  0.3503  0.2988  0.0221
11844TIP3   OH257022   4.305   1.175  13.227  0.2691 -0.4123  0.0857
11844TIP3    H157023   4.257   1.256  13.213  1.1538  0.0496 -0.3062
11844TIP3    H257024   4.335   1.180  13.318  1.4371  0.3067 -0.3292
11845TIP3   OH257025   3.383   6.737  17.003 -0.5394 -0.3005 -0.7425
11845TIP3    H157026   3.428   6.821  17.011 -0.6789 -0.0814 -2.1570
11845TIP3    H257027   3.290   6.760  17.009 -0.5289 -0.8025  2.6535
11846TIP3   OH257028   3.765   1.276  17.230 -0.2715 -0.0658  0.2699
11846TIP3    H157029   3.802   1.364  17.222  0.8092 -0.4872  0.5425
11846TIP3    H257030   3.751   1.246  17.140 -2.0170  0.9390  0.1806
11847TIP3   OH257031   2.770   2.499   3.405  0.1993  0.2274  0.0851
11847TIP3    H157032   2.715   2.431   3.444  0.1078  1.5424  2.3226
11847TIP3    H257033   2.837   2.451   3.356 -0.3542 -1.4540  0.9468
11848TIP3   OH257034   4.415   4.024   0.342  0.0029  0.5857 -0.2274
11848TIP3    H157035   4.319   4.018   0.336 -0.0160  0.5128  0.1399
11848TIP3    H257036   4.435   4.113   0.313 -0.2860  1.0510  0.9720
11849TIP3   OH257037   2.884   3.804  15.623  0.1885 -0.2105  0.2630
11849TIP3    H157038   2.895   3.786  15.529  2.2836  0.2472  0.3842
11849TIP3    H257039   2.888   3.718  15.664  0.8731 -0.2876  0.0510
11850TIP3   OH257040   5.095   2.361  11.965  0.2265  0.2484  0.3045
11850TIP3    H157041   5.081   2.341  12.057  0.7709  1.4780  0.6620
11850TIP3    H257042   5.188   2.382  11.958  0.5649 -1.5508 -0.8574
11851TIP3   OH257043   2.943   5.833   4.849  0.0197  0.0980  0.0426
11851TIP3    H157044   2.946   5.926   4.874 -2.0530  0.8017 -2.0421
11851TIP3    H257045   2.882   5.794   4.912 -1.1764  0.7523 -0.6759
11852TIP3   OH257046   2.555   4.092  13.041  0.0331 -0.5794 -0.2661
11852TIP3    H157047   2.572   4.010  12.995  1.0990  0.2132 -1.2944
11852TIP3    H257048   2.537   4.156  12.972  0.7713  0.4182  0.4444
11853TIP3   OH257049   4.982   1.801  16.949 -0.1986  0.3659 -0.1214
11853TIP3    H157050   5.009   1.729  16.893  0.4767  0.1777  0.4338
11853TIP3    H257051   5.054   1.864  16.943 -1.0341  1.2425 -1.0319
11854TIP3   OH257052   4.027   3.944  11.171  0.0745  0.1193  0.5651
11854TIP3    H157053   4.081   4.023  11.180 -0.2368  0.3996 -0.0164
11854TIP3    H257054   4.043   3.913  11.082 -1.2428  0.5945  0.1436
11855TIP3   OH257055   1.750   5.733   4.102 -0.3317 -0.1569  0.0625
11855TIP3    H157056   1.809   5.749   4.029  1.4874  2.3690  1.9951
11855TIP3    H257057   1.664   5.759   4.070  0.7007  2.4838 -0.7174
11856TIP3   OH257058   1.723   1.583   0.380  0.0314  0.5673 -0.2769
11856TIP3    H157059   1.795   1.524   0.399 -1.0322 -0.8277 -0.4840
11856TIP3    H257060   1.697   1.619   0.465  0.8707  0.9788 -0.1881
11857TIP3   OH257061   0.000   1.620  11.948  0.1313 -0.5325 -0.0314
11857TIP3    H157062   0.011   1.532  11.911 -0.3879 -1.1476  1.2347
11857TIP3    H257063  -0.056   1.607  12.024  2.2042  0.4818  1.7578
11858TIP3   OH257064   0.595   4.273   1.999  0.6071 -0.1803  0.3969
11858TIP3    H157065   0.602   4.191   2.049 -0.7475  0.6722  2.0347
11858TIP3    H257066   0.677   4.318   2.016  1.2983 -1.1095 -0.3901
11859TIP3   OH257067   0.935   4.699  12.335 -0.2001  0.4496  0.5211
11859TIP3    H157068   0.958   4.624  12.281 -2.0054 -0.2321  0.6617
11859TIP3    H257069   0.842   4.689  12.351 -0.3946  2.5448  0.8407
11860TIP3   OH257070   5.224   2.167   0.287 -0.4525 -0.5329 -0.1103
11860TIP3    H157071   5.319   2.163   0.284 -0.4742 -1.6375  0.2858
11860TIP3    H257072   5.204   2.211   0.370 -0.2713  1.6560 -1.2013
11861TIP3   OH257073   4.621   2.021   1.697 -0.0820  0.4218  0.3735
11861TIP3    H157074   4.637   1.988   1.786  1.3693 -0.4147 -0.1822
11861TIP3    H257075   4.527   2.008   1.683 -0.1231 -0.4422  1.3863
11862TIP3   OH257076   6.515   6.107  12.707 -0.0159  0.1117  0.2528
11862TIP3    H157077   6.598   6.151  12.691 -1.1025  2.1657  0.1921
11862TIP3    H257078   6.537   6.014  12.708  2.6531  0.7264  2.4578
11863TIP3   OH257079   2.768   2.884  12.594  0.4192  0.1546 -0.4501
11863TIP3    H157080   2.720   2.968  12.592  1.4378  0.7190 -2.8221
11863TIP3    H257081   2.781   2.867  12.687 -0.9265  1.9945  0.1237
11864TIP3   OH257082   3.341   1.618  11.184 -0.7296  0.4059 -0.1247
11864TIP3    H157083   3.316   1.582  11.269 -0.3827 -0.2448 -0.2915
11864TIP3    H257084   3.266   1.598  11.127 -1.0850  1.1016  0.0987
11865TIP3   OH257085   0.746   4.564   0.142  0.0857  0.3458 -0.4699
11865TIP3    H157086   0.752   4.495   0.208 -1.8595 -0.2820 -0.8880
11865TIP3    H257087   0.665   4.544   0.095  0.9714  1.3016 -2.4592
11866TIP3   OH257088   6.541   0.488  14.090  0.3948 -0.4038  0.2413
11866TIP3    H157089   6.464   0.443  14.056  1.2579 -0.6299 -1.4373
11866TIP3    H257090   6.506   0.558  14.144 -0.9825 -0.6988 -0.2639
11867TIP3   OH257091   3.313   0.281  14.450 -0.0540  0.2945  0.0565
11867TIP3    H157092   3.317   0.283  14.546  1.3876  1.3021  0.0066
11867TIP3    H257093   3.264   0.360  14.427 -1.3990 -0.5557 -0.0062
11868TIP3   OH257094   2.501   5.175  11.667  0.2084  0.6133  0.0874
11868TIP3    H157095   2.516   5.194  11.759 -2.0676  4.5615 -0.2455
11868TIP3    H257096   2.587   5.149  11.634  1.4437  0.9458  2.9023
11869TIP3   OH257097   2.380   3.434  15.437 -0.1428  0.2911 -0.3454
11869TIP3    H157098   2.401   3.526  15.454 -0.5645  0.0887  1.3903
11869TIP3    H257099   2.323   3.437  15.360 -0.6251  1.5339  0.0428
11870TIP3   OH257100   4.828   6.205   6.038  0.1069 -0.2371 -0.6765
11870TIP3    H157101   4.904   6.159   6.073  0.0419  0.8970  1.0030
11870TIP3    H257102   4.851   6.298   6.044 -0.6982  0.0488 -1.8335
11871TIP3   OH257103   5.538   1.699  12.862  0.1479  0.2825 -0.1817
11871TIP3    H157104   5.477   1.626  12.875  0.7451 -0.1571  0.1752
11871TIP3    H257105   5.623   1.657  12.850  0.1538  0.8388 -2.1349
11872TIP3   OH257106   1.192   0.601   6.022 -0.2026 -0.4162  0.5636
11872TIP3    H157107   1.160   0.511   6.026  0.0790 -0.5701 -0.3888
11872TIP3    H257108   1.172   0.638   6.108  0.3913 -1.6267  1.2270
11873TIP3   OH257109   5.637   2.982  11.820 -0.4969  0.8791  0.1442
11873TIP3    H157110   5.673   2.900  11.784  0.3096  0.7306  1.2581
11873TIP3    H257111   5.559   2.955  11.868 -0.6858  0.8727 -0.1658
11874TIP3   OH257112   1.304   5.382   4.135  0.5140 -0.4639 -0.1932
11874TIP3    H157113   1.376   5.407   4.077  0.0075 -0.5799 -0.8863
11874TIP3    H257114   1.253   5.463   4.145  0.5402 -0.4726 -0.0088
11875TIP3   OH257115   3.606   4.898   0.480  0.0645 -0.0078 -1.0939
11875TIP3    H157116   3.688   4.893   0.431  1.4254  1.6682  0.9324
11875TIP3    H257117   3.599   4.815   0.525  0.6351 -0.1713 -1.3025
11876TIP3   OH257118   3.221   3.537   4.083  0.5957 -0.5447  0.3198
11876TIP3    H157119   3.286   3.530   4.013 -0.1556  0.7348 -0.5233
11876TIP3    H257120   3.268   3.576   4.156  1.0658 -0.6937  0.0978
11877TIP3   OH257121   2.544   4.275   3.039  0.3824 -0.4131 -0.0766
11877TIP3    H157122   2.600   4.263   3.115  1.4334  0.9107 -0.6235
11877TIP3    H257123   2.539   4.370   3.027 -1.4767 -0.5262 -0.4055
11878TIP3   OH257124   5.635   3.213   5.430 -0.1897  0.2212  0.4026
11878TIP3    H157125   5.713   3.214   5.375 -0.4334  0.7422  0.0692
11878TIP3    H257126   5.562   3.202   5.369 -0.3433 -0.7691  0.7574
11879TIP3   OH257127   0.653   3.941   4.992  0.6217  0.5952 -0.2516
11879TIP3    H157128   0.606   4.023   5.007  2.3611  1.5283  0.1370
11879TIP3    H257129   0.610   3.878   5.051  0.4359  1.6473  0.7551
11880TIP3   OH257130   1.034   1.510   3.015  0.3505  0.7375  0.5462
11880TIP3    H157131   1.110   1.451   3.019  1.0926  1.6765  0.6164
11880TIP3    H257132   1.040   1.562   3.095 -1.6794 -0.7121  1.6980
11881TIP3   OH257133   2.281   5.597  15.829  0.1399 -0.0596 -0.0984
11881TIP3    H157134   2.375   5.605  15.816  0.1282 -0.9111 -0.7393
11881TIP3    H257135   2.246   5.683  15.805  0.5857 -0.2394 -1.4100
11882TIP3   OH257136   2.483   3.464   3.730 -0.3637  0.5094  0.1898
11882TIP3    H157137   2.518   3.448   3.643 -1.2483  0.7728 -0.2260
11882TIP3    H257138   2.389   3.475   3.716 -0.4557  0.9649  1.1211
11883TIP3   OH257139   0.563   0.418   4.056 -0.4159 -0.0663  0.7732
11883TIP3    H157140   0.517   0.499   4.079  0.5967  1.4322 -2.1456
11883TIP3    H257141   0.653   0.434   4.084  0.1520  0.5371 -1.3354
11884TIP3   OH257142   1.766   4.273   5.961 -0.3294 -0.5435 -0.5274
11884TIP3    H157143   1.724   4.209   6.019  0.0116 -0.7328 -0.4801
11884TIP3    H257144   1.695   4.314   5.913 -0.5020 -1.5677 -1.1810
11885TIP3   OH257145   6.460   5.113  14.383  0.1861  0.2613 -0.2447
11885TIP3    H157146   6.427   5.182  14.441  0.8729  0.3110  0.0952
11885TIP3    H257147   6.556   5.124  14.385  0.3052 -0.7720 -0.0921
11886TIP3   OH257148   2.712   3.634   6.051 -0.3194  0.4959  0.0379
11886TIP3    H157149   2.644   3.645   6.117  3.1068  1.3113  3.6182
11886TIP3    H257150   2.732   3.722   6.021 -0.0427  0.3734 -0.1505
11887TIP3   OH257151   3.160   3.275  12.405  0.1073 -0.0999  0.0165
11887TIP3    H157152   3.160   3.371  12.412  0.8649 -0.0938 -0.0491
11887TIP3    H257153   3.172   3.258  12.312  2.0914 -0.2629  0.2745
11888TIP3   OH257154   5.689   6.053   6.412  0.3724 -0.6473  0.5566
11888TIP3    H157155   5.676   6.115   6.484 -0.1296  0.7413 -0.6929
11888TIP3    H257156   5.762   6.090   6.362 -0.7878 -0.3119 -0.9483
11889TIP3   OH257157   0.652   5.240   1.871 -0.1471  0.0453  0.3320
11889TIP3    H157158   0.689   5.293   1.801 -1.1728 -1.9525 -1.7704
11889TIP3    H257159   0.692   5.153   1.860 -1.6025 -0.7513  1.1565
11890TIP3   OH257160   2.732   1.194   3.118  0.0371  0.6335 -0.2403
11890TIP3    H157161   2.698   1.178   3.030 -1.1206 -0.1659  0.3413
11890TIP3    H257162   2.689   1.274   3.147 -3.2671 -1.6538  1.4222
11891TIP3   OH257163   3.306   2.690   4.280  0.0599  0.2598  0.0742
11891TIP3    H157164   3.266   2.616   4.325  1.7671  0.0315  1.2399
11891TIP3    H257165   3.241   2.760   4.287 -0.6250 -0.4544  0.9364
11892TIP3   OH257166   3.543   0.112  10.525  0.7086  0.1684 -0.1646
11892TIP3    H157167   3.474   0.049  10.502  0.3890 -0.0340  1.2891
11892TIP3    H257168   3.623   0.060  10.527  0.6590  0.0856 -0.3443
11893TIP3   OH257169   6.340   5.985  13.203  0.2191 -0.1493 -0.1474
11893TIP3    H157170   6.261   6.010  13.250  0.7188 -0.4208  0.8691
11893TIP3    H257171   6.343   5.889  13.212  1.3137 -0.0322  0.9144
11894TIP3   OH257172   2.154   0.752   2.946  0.1730 -0.8638 -0.3033
11894TIP3    H157173   2.105   0.724   3.024  1.2251 -1.7514  0.0555
11894TIP3    H257174   2.190   0.671   2.911 -0.1132 -0.4344 -1.6026
11895TIP3   OH257175   2.725   3.600   1.299  0.5748  0.6800 -0.4623
11895TIP3    H157176   2.752   3.521   1.251  2.4632  1.0477 -0.0298
11895TIP3    H257177   2.796   3.615   1.361 -0.1826  2.2525  0.0251
11896TIP3   OH257178   1.636   3.016  13.886  0.2970  0.4764 -0.2788
11896TIP3    H157179   1.719   3.062  13.883  1.1006 -0.9326 -0.2619
11896TIP3    H257180   1.648   2.950  13.955 -1.0584  0.6935  0.1850
11897TIP3   OH257181   3.840   4.989  14.804 -0.1405  0.4294 -0.0306
11897TIP3    H157182   3.807   5.027  14.723  0.5253 -0.8240 -0.8974
11897TIP3    H257183   3.884   5.062  14.848 -0.8395  1.2043 -0.6014
11898TIP3   OH257184   6.427   4.028  16.413  0.6852 -0.2223  0.0614
11898TIP3    H157185   6.380   3.998  16.491 -0.0756 -4.9238 -2.0129
11898TIP3    H257186   6.516   3.994  16.424  0.7417 -0.3777 -0.8187
11899TIP3   OH257187   1.230   4.194  15.904 -0.0825  0.4246  0.1564
11899TIP3    H157188   1.192   4.128  15.962  0.7776  0.5287  0.8467
11899TIP3    H257189   1.302   4.232  15.954  1.4304 -0.3110 -1.4259
11900TIP3   OH257190   5.147   1.554  13.429  0.0799 -0.2396 -0.1182
11900TIP3    H157191   5.154   1.517  13.517 -0.2107 -0.8758 -0.3618
11900TIP3    H257192   5.204   1.499  13.376 -2.3091 -1.9554 -0.9968
11901TIP3   OH257193   0.832   5.185   6.437 -0.0941  0.1909  0.1084
11901TIP3    H157194   0.835   5.117   6.370  0.5424 -0.0274  0.3639
11901TIP3    H257195   0.903   5.164   6.497 -1.2918 -0.1910  1.4201
11902TIP3   OH257196   6.061   4.190  14.331 -0.2061 -0.0382 -0.5623
11902TIP3    H157197   6.114   4.254  14.284 -2.6140  1.4063 -1.4416
11902TIP3    H257198   6.124   4.137  14.379  2.0209  1.4165 -1.7711
11903TIP3   OH257199   5.596   2.382  11.189 -0.4912 -0.1272 -0.5516
11903TIP3    H157200   5.595   2.363  11.283  1.1341 -2.4558 -0.9570
11903TIP3    H257201   5.508   2.356  11.159 -1.4583  1.8232  0.4966
11904TIP3   OH257202   6.257   4.789   4.366  0.5172 -0.1730  0.1808
11904TIP3    H157203   6.181   4.818   4.417  0.4951  1.3958 -0.7067
11904TIP3    H257204   6.310   4.740   4.429 -0.3640  0.2255  1.2664
11905TIP3   OH257205   2.550   3.721   0.974  0.3131  0.3599  0.3631
11905TIP3    H157206   2.535   3.639   0.927 -1.7767 -0.7751  2.8717
11905TIP3    H257207   2.464   3.763   0.978  0.9092  1.5429  1.1330
11906TIP3   OH257208   4.079   3.953  10.832 -0.4708 -0.1118  0.3303
11906TIP3    H157209   4.010   4.017  10.851 -0.7612 -0.4588  0.4601
11906TIP3    H257210   4.039   3.894  10.769 -0.7269 -1.0459  1.3462
11907TIP3   OH257211   6.231   1.392   3.739 -0.4941 -0.4034  0.1759
11907TIP3    H157212   6.300   1.441   3.783 -1.9887 -0.6743  2.9422
11907TIP3    H257213   6.166   1.458   3.713  0.8255 -0.1201 -2.6218
11908TIP3   OH257214   4.288   1.657   0.524  0.4012 -0.9112 -0.2390
11908TIP3    H157215   4.237   1.585   0.487  2.3935 -1.6918 -1.5506
11908TIP3    H257216   4.297   1.720   0.452  1.0072 -0.6213  0.0847
11909TIP3   OH257217   0.219   1.336   0.607 -0.5242 -0.8298 -0.1841
11909TIP3    H157218   0.274   1.374   0.676  1.1137  1.0151 -2.4024
11909TIP3    H257219   0.160   1.407   0.581 -0.3435 -1.1214 -1.4395
11910TIP3   OH257220   5.510   5.402   5.862 -0.4838 -0.2923  0.4630
11910TIP3    H157221   5.516   5.469   5.930  0.2585 -1.1029  1.2149
11910TIP3    H257222   5.601   5.374   5.849 -1.0811 -3.3878  2.4285
11911TIP3   OH257223   4.969   0.911   3.807  0.0022 -0.2759  0.1449
11911TIP3    H157224   4.972   0.908   3.902 -1.7360 -0.8240  0.1969
11911TIP3    H257225   4.936   0.998   3.786  0.0771 -0.2679  0.0602
11912TIP3   OH257226   3.186   5.078   1.250 -0.2791  1.1384 -0.3060
11912TIP3    H157227   3.184   5.057   1.343 -3.3404  3.7010  0.2827
11912TIP3    H257228   3.232   5.004   1.210  0.7043 -0.2179  3.1484
11913TIP3   OH257229   5.099   2.004  12.191 -0.8742 -0.7619 -0.2617
11913TIP3    H157230   5.172   1.985  12.250 -1.3570 -2.3300 -0.1519
11913TIP3    H257231   5.024   2.015  12.250 -0.5936  1.6517 -0.3114
11914TIP3   OH257232   6.704   6.292  12.714  0.2486 -0.8416 -0.7523
11914TIP3    H157233   6.793   6.257  12.711  0.4159 -0.4478 -0.5207
11914TIP3    H257234   6.689   6.327  12.626  1.1456  1.0616 -0.1863
11915TIP3   OH257235   1.190   0.033   3.618  0.1955 -0.3193  0.2989
11915TIP3    H157236   1.214  -0.003   3.533 -0.9544 -1.4243  0.4206
11915TIP3    H257237   1.118  -0.023   3.648  1.2097 -0.5314  2.4184
11916TIP3   OH257238   5.278   5.301  14.569 -0.0386 -0.2606  0.2170
11916TIP3    H157239   5.331   5.271  14.643  0.8560  0.5373 -0.1027
11916TIP3    H257240   5.264   5.222  14.517  0.4381 -0.5703  0.5505
11917TIP3   OH257241   1.427   3.385  15.391 -0.0409  0.4065  0.2526
11917TIP3    H157242   1.341   3.410  15.359 -1.0391 -1.9891  0.9768
11917TIP3    H257243   1.475   3.358  15.312 -1.1307 -1.5956  0.2653
11918TIP3   OH257244   6.684   4.215  11.006  0.1714 -0.0366 -0.5298
11918TIP3    H157245   6.646   4.227  10.919  0.7414  1.3586 -0.5885
11918TIP3    H257246   6.761   4.272  11.007  1.5056 -1.8011  0.0705
11919TIP3   OH257247   4.480   4.746  10.045  0.3551 -0.3879  0.2744
11919TIP3    H157248   4.399   4.761  10.095 -0.0456  0.0984 -0.5092
11919TIP3    H257249   4.538   4.817  10.073 -0.3020  0.6088 -0.8425
11920TIP3   OH257250   6.458   2.335  12.694 -0.3218 -0.5714  0.0199
11920TIP3    H157251   6.443   2.251  12.738 -1.2401  0.1950  1.1714
11920TIP3    H257252   6.415   2.400  12.749  1.6984  0.8753 -0.0506
11921TIP3   OH257253   1.591   0.388   5.553  0.0875  0.0451  0.0946
11921TIP3    H157254   1.667   0.443   5.574 -0.3769  0.7446 -0.0067
11921TIP3    H257255   1.625   0.322   5.494  0.6346  0.3149  0.0972
11922TIP3   OH257256   2.292   3.128   3.781 -0.0551  0.1075  0.0126
11922TIP3    H157257   2.285   3.094   3.692  0.9367 -2.2284  0.7788
11922TIP3    H257258   2.383   3.108   3.807 -0.4064  0.5425  1.6105
11923TIP3   OH257259   2.473   1.518  14.701 -0.1186  0.0487 -0.1511
11923TIP3    H157260   2.399   1.463  14.675 -0.9273  0.7742  0.5616
11923TIP3    H257261   2.533   1.514  14.626 -0.0627 -1.9430 -0.0289
11924TIP3   OH257262   0.649   4.929   2.348  0.5497  0.4107  0.6411
11924TIP3    H157263   0.601   4.996   2.299  0.6582 -0.9697 -1.4263
11924TIP3    H257264   0.593   4.908   2.423  0.7529  3.1426  1.5955
11925TIP3   OH257265   3.934   4.670  11.614 -0.0749 -0.2358  0.5441
11925TIP3    H157266   3.892   4.677  11.528 -1.1033 -1.7684  0.9032
11925TIP3    H257267   3.958   4.578  11.622  2.8796  0.5006  0.6053
11926TIP3   OH257268   1.747   0.275   3.432 -0.4619 -0.0997 -0.1673
11926TIP3    H157269   1.735   0.216   3.507 -1.9616  0.0307 -0.2868
11926TIP3    H257270   1.754   0.217   3.357  0.1822 -0.1950 -0.0414
11927TIP3   OH257271   1.122   1.849  11.246  0.2984 -0.1228 -0.3979
11927TIP3    H157272   1.207   1.870  11.209 -0.8136  1.3399 -2.2522
11927TIP3    H257273   1.076   1.804  11.175 -1.1074  0.7847 -0.0890
11928TIP3   OH257274   5.148   6.458   5.730  0.3286 -0.4605 -0.5189
11928TIP3    H157275   5.161   6.445   5.824 -1.4464 -2.1798 -0.4530
11928TIP3    H257276   5.065   6.413   5.712 -1.2884  3.0584 -2.2148
11929TIP3   OH257277   1.580   3.016   0.959 -0.2466 -0.0735  0.1025
11929TIP3    H157278   1.620   3.067   0.889  0.7791  0.9910  1.4592
11929TIP3    H257279   1.536   2.944   0.913  2.1497 -0.5789 -1.5196
11930TIP3   OH257280   4.157   5.478  11.537  0.4532 -0.3251  0.0311
11930TIP3    H157281   4.085   5.538  11.555 -0.1613 -1.7908  2.6483
11930TIP3    H257282   4.236   5.532  11.542 -0.3182  0.9628 -1.2934
11931TIP3   OH257283   5.406   0.792   2.661  0.6920  0.5761 -0.1991
11931TIP3    H157284   5.329   0.832   2.623 -0.6129 -0.6479  1.0582
11931TIP3    H257285   5.480   0.832   2.616 -0.6936  1.4735 -1.7001
11932TIP3   OH257286   1.937   2.342   5.800  0.4646  0.4177  0.7578
11932TIP3    H157287   1.921   2.251   5.826  0.4886 -0.1734 -1.2292
11932TIP3    H257288   1.850   2.379   5.785  0.4038  1.0357  2.5300
11933TIP3   OH257289   5.144   3.430   4.809 -0.3761  0.1895 -0.3079
11933TIP3    H157290   5.127   3.420   4.902  0.2635  1.1807 -0.0733
11933TIP3    H257291   5.220   3.489   4.804 -0.2563 -0.0372 -1.4426
11934TIP3   OH257292   3.333   1.961   2.095 -0.5498  0.2011  0.1430
11934TIP3    H157293   3.323   1.981   2.188  1.5881  0.7022  0.2950
11934TIP3    H257294   3.292   1.875   2.085  0.4438 -0.4902  1.8420
11935TIP3   OH257295   2.121   6.373  11.767 -0.0481  0.3004  0.2401
11935TIP3    H157296   2.120   6.324  11.850  0.8163 -0.7115 -0.3284
11935TIP3    H257297   2.145   6.307  11.702 -0.8680  1.0622 -0.8396
11936TIP3   OH257298   1.224   0.847   3.724 -0.6101 -0.0644 -0.6657
11936TIP3    H157299   1.191   0.877   3.809  1.0317  0.5012 -0.2098
11936TIP3    H257300   1.232   0.752   3.735  1.2254  0.1946  0.4088
11937TIP3   OH257301   4.212   3.587   5.300  0.5581 -0.4116  0.0658
11937TIP3    H157302   4.241   3.618   5.215 -3.0483  1.7718 -0.4930
11937TIP3    H257303   4.164   3.506   5.281  2.3734 -1.5868  0.4273
11938TIP3   OH257304   3.413   3.983  16.979 -0.0769  0.2275  0.3085
11938TIP3    H157305   3.487   4.024  17.025 -0.8566  0.9670  0.9186
11938TIP3    H257306   3.434   3.995  16.886  0.5242  0.5256  0.4727
11939TIP3   OH257307   1.801   6.493  11.564  0.4541 -0.1188  0.5022
11939TIP3    H157308   1.740   6.469  11.634 -1.0915  1.0352 -0.4199
11939TIP3    H257309   1.884   6.509  11.609 -0.0224 -1.2626  1.8287
11940TIP3   OH257310   3.995   1.856   3.044 -0.0927 -0.0149  0.1084
11940TIP3    H157311   4.005   1.871   2.950 -3.1281 -0.3379 -0.3435
11940TIP3    H257312   4.006   1.943   3.084  1.0914  0.1384 -0.5393
11941TIP3   OH257313   4.541   4.613   5.362 -0.7420  0.1307 -0.0835
11941TIP3    H157314   4.570   4.523   5.349 -0.5145  0.0954  0.6479
11941TIP3    H257315   4.544   4.652   5.275  0.3960 -0.1945 -0.1956
11942TIP3   OH257316   4.853   2.862  10.854 -0.3647  0.3947  0.1651
11942TIP3    H157317   4.870   2.932  10.790  1.1831  1.0240  1.2393
11942TIP3    H257318   4.761   2.840  10.841 -0.7153  2.2089 -0.6220
11943TIP3   OH257319   5.177   1.296   5.557  0.4999 -0.1102  0.2533
11943TIP3    H157320   5.251   1.270   5.502 -0.6321 -1.6322 -0.6237
11943TIP3    H257321   5.123   1.216   5.563 -1.6138  1.2374 -0.0631
11944TIP3   OH257322   1.593   2.607  11.254 -0.1965 -0.6678 -0.0418
11944TIP3    H157323   1.587   2.616  11.349  1.3888 -0.0691  0.0156
11944TIP3    H257324   1.575   2.695  11.221 -0.7369 -0.8728 -0.3020
11945TIP3   OH257325   1.593   6.066  12.752  0.4369  0.2021 -0.0207
11945TIP3    H157326   1.625   6.073  12.842  0.4554  0.4322 -0.0438
11945TIP3    H257327   1.664   6.104  12.699 -0.5255  2.1909  0.0523
11946TIP3   OH257328   3.543   3.201  12.061 -0.1557 -0.7949 -0.4237
11946TIP3    H157329   3.612   3.155  12.109  0.4153 -1.4225 -1.8369
11946TIP3    H257330   3.481   3.133  12.035  0.1677 -0.6384 -1.6389
11947TIP3   OH257331   5.817   5.890  12.798  0.4030  0.5197  0.1641
11947TIP3    H157332   5.821   5.854  12.886  1.9818 -1.7150 -0.7625
11947TIP3    H257333   5.902   5.932  12.785 -0.1723  1.6503  0.0293
11948TIP3   OH257334   2.525   2.035  14.113  0.0835  0.2473 -0.1541
11948TIP3    H157335   2.460   1.967  14.096  2.2512 -1.8809 -0.0783
11948TIP3    H257336   2.475   2.117  14.111 -2.7326 -1.4029  0.7443
11949TIP3   OH257337   0.208   6.715   4.223 -0.0948 -0.7236  0.0628
11949TIP3    H157338   0.273   6.701   4.155 -0.2786  0.1204 -0.2925
11949TIP3    H257339   0.126   6.725   4.176 -0.2950 -0.5938  0.4371
11950TIP3   OH257340   5.685   6.160   5.314 -0.0927 -0.5288 -0.2419
11950TIP3    H157341   5.623   6.232   5.330 -1.0142 -1.1610 -0.8819
11950TIP3    H257342   5.697   6.160   5.219  0.4715 -0.7572 -0.1700
11951TIP3   OH257343   1.026   4.241  14.884  0.5226 -0.8323  0.6503
11951TIP3    H157344   1.101   4.185  14.904  1.4520 -0.1659 -0.8013
11951TIP3    H257345   0.955   4.181  14.864  0.9691 -1.4835  1.0327
11952TIP3   OH257346   4.795   0.444  11.775 -0.0057 -0.4758  0.3092
11952TIP3    H157347   4.788   0.528  11.822 -1.2611 -0.9195  0.9508
11952TIP3    H257348   4.781   0.378  11.843 -0.2476 -1.1693 -0.4072
11953TIP3   OH257349   4.308   3.751  11.153 -0.4972 -0.4143  0.3422
11953TIP3    H157350   4.326   3.812  11.081  0.0257  0.5574  1.2921
11953TIP3    H257351   4.233   3.699  11.122 -0.9547  0.7166 -0.4626
11954TIP3   OH257352   3.822   6.343  15.229  0.2470  0.5413  0.1488
11954TIP3    H157353   3.752   6.278  15.231  0.7920 -0.0671 -0.2356
11954TIP3    H257354   3.902   6.292  15.244  0.5198  1.3600  1.5679
11955TIP3   OH257355   5.442   0.034  15.063 -0.1728  0.5338  0.7276
11955TIP3    H157356   5.384  -0.011  15.002  0.3982  0.7933 -0.0089
11955TIP3    H257357   5.405   0.016  15.149 -1.0483  0.2686  0.2933
11956TIP3   OH257358   5.844   2.301  11.269 -0.1643  0.1122 -0.6340
11956TIP3    H157359   5.865   2.394  11.280 -1.0042  0.0232  2.0218
11956TIP3    H257360   5.752   2.301  11.240 -0.2423  0.0890 -0.3835
11957TIP3   OH257361   2.915   6.637   1.094  0.5967  0.7557  0.2043
11957TIP3    H157362   2.955   6.559   1.133  0.7510  1.5035  1.5670
11957TIP3    H257363   2.826   6.609   1.071  1.2261 -0.3333 -0.9942
11958TIP3   OH257364   4.516   1.669  13.520 -0.8331  0.3668  0.3076
11958TIP3    H157365   4.446   1.621  13.563  0.6453 -0.5189  1.7751
11958TIP3    H257366   4.596   1.621  13.542  0.2133  1.1172 -1.6712
11959TIP3   OH257367   2.579   3.547   3.178  0.3363 -0.2721 -0.5373
11959TIP3    H157368   2.607   3.638   3.173  1.7114 -0.7984 -2.6014
11959TIP3    H257369   2.488   3.549   3.147  0.3236  0.3952 -0.4775
11960TIP3   OH257370   6.485   2.136   0.335 -0.1781  0.1048  0.1461
11960TIP3    H157371   6.495   2.231   0.344  0.1612 -0.0084  1.0136
11960TIP3    H257372   6.525   2.116   0.250 -0.9085  0.8280 -0.3759
11961TIP3   OH257373   2.573   6.709   1.756  0.3457 -0.2364  0.1385
11961TIP3    H157374   2.534   6.790   1.723  1.1611  0.2639  0.3866
11961TIP3    H257375   2.577   6.652   1.679 -0.5994 -0.1867  0.0499
11962TIP3   OH257376   4.871   1.637  12.212 -0.0224  0.1328 -0.2331
11962TIP3    H157377   4.886   1.710  12.152 -4.9269  2.9336  1.6220
11962TIP3    H257378   4.814   1.577  12.164  0.0279 -0.0771 -0.0321
11963TIP3   OH257379   5.797   2.217  15.225  0.3629 -0.2993 -0.3083
11963TIP3    H157380   5.707   2.247  15.208  0.7088  0.7946 -0.1989
11963TIP3    H257381   5.833   2.282  15.285  1.5830 -0.1524 -1.1963
11964TIP3   OH257382   0.786   2.286   2.662  0.1300  0.3884 -0.4622
11964TIP3    H157383   0.863   2.235   2.638  0.0338 -0.5794  1.2133
11964TIP3    H257384   0.732   2.285   2.583  0.2186 -1.9917 -0.5347
11965TIP3   OH257385   3.866   3.960   5.093  0.0683  0.3603  0.1121
11965TIP3    H157386   3.937   3.902   5.122 -1.4750 -0.3269  2.7068
11965TIP3    H257387   3.871   4.035   5.151 -2.0871 -0.2920  1.2163
11966TIP3   OH257388   0.393   4.500   3.411 -0.3580  0.1674 -0.3996
11966TIP3    H157389   0.370   4.554   3.486 -1.4156  0.4701 -0.9369
11966TIP3    H257390   0.415   4.563   3.342  0.0046 -0.1075 -0.5385
11967TIP3   OH257391   6.377   1.019  17.270  0.5830  0.5196 -0.3653
11967TIP3    H157392   6.422   1.018  17.185 -2.5320  1.4299 -2.1317
11967TIP3    H257393   6.328   1.102  17.270  1.6815  1.2318  2.9937
11968TIP3   OH257394   4.573   6.768  10.775 -0.4876 -0.0099  0.2411
11968TIP3    H157395   4.570   6.677  10.747  0.0640  0.0482 -0.0057
11968TIP3    H257396   4.487   6.784  10.814 -0.6050 -0.6163  0.2329
11969TIP3   OH257397   0.774   0.273  16.970 -0.4783 -0.4207 -0.1631
11969TIP3    H157398   0.815   0.359  16.984 -0.0106 -0.8624  1.3957
11969TIP3    H257399   0.680   0.291  16.971 -0.3835  0.6823 -4.2881
11970TIP3   OH257400   4.325   4.334  12.421  0.4469  0.0313  0.4860
11970TIP3    H157401   4.250   4.369  12.373 -0.2706  0.1539  1.6740
11970TIP3    H257402   4.368   4.275  12.359 -2.4987 -2.5971  0.8639
11971TIP3   OH257403   0.687   0.778   1.200  0.1720 -0.4581 -0.4949
11971TIP3    H157404   0.680   0.834   1.123  0.1950 -0.8286 -0.7702
11971TIP3    H257405   0.665   0.690   1.168 -0.2620 -0.5380  0.0151
11972TIP3   OH257406   1.251   3.285  12.703  0.4806 -0.9311  0.2892
11972TIP3    H157407   1.322   3.350  12.700  1.6661 -2.2008  0.4268
11972TIP3    H257408   1.236   3.270  12.796 -2.4473  1.9386  0.3882
11973TIP3   OH257409   3.121   1.546  14.932 -0.6393 -0.7035  0.5068
11973TIP3    H157410   3.114   1.559  15.026  1.8114 -0.3121  0.6730
11973TIP3    H257411   3.170   1.464  14.922 -0.8380 -0.7188 -0.4063
11974TIP3   OH257412   2.292   5.186   4.424 -0.6626 -0.0035 -0.1326
11974TIP3    H157413   2.339   5.151   4.500 -0.4734 -0.3757 -0.4222
11974TIP3    H257414   2.318   5.278   4.420 -1.7005  0.3591  1.0437
11975TIP3   OH257415   1.544   0.977  14.464  0.2679  0.7216  0.3489
11975TIP3    H157416   1.552   1.067  14.431 -0.2214  1.1007  1.2632
11975TIP3    H257417   1.538   0.923  14.385 -2.8594  1.7978 -0.2072
11976TIP3   OH257418   6.395   0.899  16.737  0.3250  0.1711  0.1488
11976TIP3    H157419   6.334   0.968  16.765  0.5569 -0.6953  2.8495
11976TIP3    H257420   6.338   0.829  16.706  0.0332  0.5174 -0.1154
11977TIP3   OH257421   3.858   5.811   3.642  0.0694 -0.3141  0.3339
11977TIP3    H157422   3.771   5.773   3.656 -0.1472 -0.9751 -2.4911
11977TIP3    H257423   3.919   5.738   3.652 -0.0271 -0.6338 -1.2828
11978TIP3   OH257424   3.503   6.514  15.651  0.0214 -0.1177  0.1280
11978TIP3    H157425   3.420   6.482  15.615 -0.0310 -0.3426  0.4432
11978TIP3    H257426   3.570   6.469  15.600  0.0267  3.3699 -3.1590
11979TIP3   OH257427   0.708   5.077   1.383  0.1832 -0.1626  0.0385
11979TIP3    H157428   0.731   5.070   1.290 -0.6662 -0.1778 -0.1711
11979TIP3    H257429   0.681   4.989   1.407 -0.6407  0.0861  0.0242
11980TIP3   OH257430   2.409   2.121  14.681  0.7204  0.1750 -0.0527
11980TIP3    H157431   2.495   2.090  14.653  0.5288  0.7585 -1.3275
11980TIP3    H257432   2.377   2.053  14.740  1.5700 -0.6041 -0.4713
11981TIP3   OH257433   5.703   4.449  14.779  0.2719  0.6828  0.0745
11981TIP3    H157434   5.624   4.398  14.796  0.3361  0.4415 -0.3462
11981TIP3    H257435   5.708   4.455  14.684  1.1268  0.0979  0.0720
11982TIP3   OH257436   3.071   3.158  14.816 -0.3965 -0.6132  0.1170
11982TIP3    H157437   3.032   3.244  14.831 -1.2096 -1.0410  0.5149
11982TIP3    H257438   3.078   3.119  14.904  0.2671 -0.8273 -0.0249
11983TIP3   OH257439   2.785   6.311  14.345  0.0258 -0.4729 -0.3668
11983TIP3    H157440   2.799   6.217  14.333 -1.2696 -0.9508  1.6003
11983TIP3    H257441   2.835   6.333  14.423 -0.0530  0.3879 -0.5575
11984TIP3   OH257442   2.716   5.111  12.963  0.0643  0.6217 -0.2066
11984TIP3    H157443   2.676   5.194  12.937  0.3070  0.5679 -0.7681
11984TIP3    H257444   2.662   5.079  13.035  0.5209  1.7196  0.6240
11985TIP3   OH257445   1.315   5.521   5.122  0.5809 -0.3446  0.3745
11985TIP3    H157446   1.410   5.536   5.118  0.7760 -0.8550  2.5301
11985TIP3    H257447   1.299   5.497   5.213 -1.7546  0.5350  0.2112
11986TIP3   OH257448   5.775   3.778   2.133 -0.0478 -0.0922  0.3085
11986TIP3    H157449   5.816   3.852   2.178 -0.1003 -0.0836  0.3431
11986TIP3    H257450   5.738   3.724   2.203  1.1254 -0.8430  0.3615
11987TIP3   OH257451   4.531   2.543  13.060 -0.5809  0.2866  0.1078
11987TIP3    H157452   4.593   2.605  13.099  0.2442  0.7247 -1.8608
11987TIP3    H257453   4.579   2.504  12.987 -2.3552  0.0420 -0.9516
11988TIP3   OH257454   0.695   4.327   4.058 -0.1891  0.2697  0.6052
11988TIP3    H157455   0.671   4.414   4.027 -0.3909 -0.4302 -1.2900
11988TIP3    H257456   0.618   4.297   4.106 -0.3071  0.9413  0.8440
11989TIP3   OH257457   5.416   1.044  17.081 -0.3355 -0.5350  0.2917
11989TIP3    H157458   5.321   1.041  17.087 -0.4724  0.8338 -0.7986
11989TIP3    H257459   5.441   1.117  17.138 -0.0080 -0.4724  0.0715
11990TIP3   OH257460   0.884   5.617  11.013 -0.5174 -0.7888  1.0235
11990TIP3    H157461   0.980   5.618  11.017 -0.5164  0.3870  0.8438
11990TIP3    H257462   0.858   5.706  11.036 -1.4248 -0.2023 -2.0805
11991TIP3   OH257463   5.939   3.855   1.869 -0.9869 -0.1436  0.1761
11991TIP3    H157464   5.949   3.865   1.964  0.0929 -0.8087  0.1425
11991TIP3    H257465   6.006   3.791   1.845 -1.4414 -0.1813 -0.9970
11992TIP3   OH257466   5.956   2.138   5.709  0.2319  0.1899 -0.5565
11992TIP3    H157467   5.925   2.085   5.783  0.2778  0.6382 -0.2090
11992TIP3    H257468   5.878   2.185   5.678  0.3652  0.5939 -0.2902
11993TIP3   OH257469   2.661   4.985   1.174  0.6116  0.0848  0.5067
11993TIP3    H157470   2.720   4.916   1.144  1.3173  0.3199  1.3113
11993TIP3    H257471   2.708   5.025   1.248 -0.2299  0.7664  0.6728
11994TIP3   OH257472   6.605   2.726   1.543 -0.1440 -0.4749  0.3539
11994TIP3    H157473   6.522   2.680   1.534 -0.6490 -0.0154  2.4475
11994TIP3    H257474   6.591   2.810   1.501 -0.8065 -0.3355  0.8463
11995TIP3   OH257475   4.859   4.144   3.968 -0.0732 -0.1401 -0.2294
11995TIP3    H157476   4.805   4.213   3.929  1.6131  1.4916  0.2614
11995TIP3    H257477   4.930   4.191   4.012  0.0480 -2.1078  1.7545
11996TIP3   OH257478   6.453   3.183  12.797 -0.8354  0.3890  0.4794
11996TIP3    H157479   6.485   3.251  12.856  1.0150  0.1438 -0.2196
11996TIP3    H257480   6.491   3.102  12.831 -0.7067  0.0929 -0.3692
11997TIP3   OH257481   0.980   1.955  13.305 -0.5753  0.3091  0.3919
11997TIP3    H157482   0.900   1.920  13.344 -0.9570 -2.0057 -2.3437
11997TIP3    H257483   1.030   1.878  13.280  1.4363  1.7473 -0.1336
11998TIP3   OH257484   5.062   4.146  11.357  0.2351 -0.2996  0.6620
11998TIP3    H157485   5.152   4.115  11.363  0.5240 -0.1403 -2.1488
11998TIP3    H257486   5.011   4.067  11.341  0.6501  0.2369 -3.8092
11999TIP3   OH257487   2.851   2.902  14.223 -0.7588 -0.4902 -0.4264
11999TIP3    H157488   2.850   2.960  14.299  1.8608  2.3968 -2.5072
11999TIP3    H257489   2.765   2.860  14.224 -0.5216 -1.1840  4.5552
12000TIP3   OH257490   4.145   2.529  14.709 -0.1857 -0.3426  0.2973
12000TIP3    H157491   4.148   2.437  14.682  2.0134 -0.2322  0.0734
12000TIP3    H257492   4.237   2.554  14.718 -0.6686  2.6195 -2.3063
12001TIP3   OH257493   5.294   4.490   4.089 -0.5491  0.5768  0.1033
12001TIP3    H157494   5.303   4.565   4.148 -0.1117  0.5019  0.1320
12001TIP3    H257495   5.325   4.415   4.139 -0.4351  0.4685 -0.1244
12002TIP3   OH257496   0.981   3.650   3.415  0.2176  0.0621 -0.9624
12002TIP3    H157497   0.923   3.642   3.339 -0.9926  0.7715 -0.1430
12002TIP3    H257498   0.958   3.574   3.470 -0.7173  0.9277 -0.1334
12003TIP3   OH257499   4.045   0.867   0.929  0.5230  0.1962 -0.0349
12003TIP3    H157500   3.989   0.936   0.965 -0.2219 -0.2731 -0.2831
12003TIP3    H257501   4.131   0.909   0.917 -0.4286  1.6438 -2.0188
12004TIP3   OH257502   0.546   1.509   1.874  0.3283  0.0157  0.1767
12004TIP3    H157503   0.551   1.586   1.817  0.8619  0.6833  1.1071
12004TIP3    H257504   0.463   1.520   1.922  0.5963  0.2234  0.5980
12005TIP3   OH257505   3.827   2.380   2.213 -0.5139  0.4667 -0.2919
12005TIP3    H157506   3.748   2.434   2.218 -1.9043 -1.4302 -1.1377
12005TIP3    H257507   3.817   2.330   2.132  0.7164 -1.1223  0.5004
12006TIP3   OH257508   5.860   0.555   2.481 -0.1140  0.3558  0.1988
12006TIP3    H157509   5.948   0.561   2.443 -0.6203 -2.5865 -1.6292
12006TIP3    H257510   5.870   0.588   2.570  3.2335 -1.4588  0.5846
12007TIP3   OH257511   0.066   3.373   4.548 -0.1401  0.1126 -0.0402
12007TIP3    H157512   0.145   3.397   4.597 -1.0847  1.7425  0.7235
12007TIP3    H257513   0.002   3.351   4.615 -0.4817 -0.7299 -0.6455
12008TIP3   OH257514   0.444   3.607  15.379 -0.0554  0.3966 -0.0182
12008TIP3    H157515   0.350   3.622  15.388 -0.2010 -1.0735  1.0833
12008TIP3    H257516   0.484   3.684  15.420 -0.7878  0.1834  1.1433
12009TIP3   OH257517   1.619   2.508  12.504  0.3664  0.1444 -0.3053
12009TIP3    H157518   1.566   2.461  12.568 -0.4564  0.5161 -0.7027
12009TIP3    H257519   1.643   2.590  12.548 -0.1671  0.3834 -0.4563
12010TIP3   OH257520   1.937   1.498   3.539 -0.2374 -0.2179  0.0012
12010TIP3    H157521   1.932   1.501   3.635  2.7198  0.9254  0.1527
12010TIP3    H257522   1.947   1.589   3.512 -0.9677 -0.5361 -1.4279
12011TIP3   OH257523   2.136   0.429   3.499 -0.1042  0.5564  0.1160
12011TIP3    H157524   2.190   0.351   3.511 -0.7075  0.3044  1.2019
12011TIP3    H257525   2.149   0.481   3.578 -0.5191  1.0661 -0.1404
12012TIP3   OH257526   5.470   1.113  11.148 -0.1714  0.1006  0.2589
12012TIP3    H157527   5.547   1.135  11.095  0.6944  0.3014  1.5723
12012TIP3    H257528   5.408   1.077  11.086  1.3166 -0.8899 -0.6922
12013TIP3   OH257529   5.425   3.460  15.719 -0.8783  0.5703 -0.3494
12013TIP3    H157530   5.390   3.509  15.793 -0.9524  1.7800 -1.1650
12013TIP3    H257531   5.491   3.519  15.681 -2.1770  0.7482 -2.3801
12014TIP3   OH257532   3.611   5.921   2.699 -0.5556  0.3785 -0.2198
12014TIP3    H157533   3.663   5.993   2.736 -0.3355 -0.1202  0.4422
12014TIP3    H257534   3.522   5.956   2.694 -0.4869  0.6315  0.2850
12015TIP3   OH257535   0.535   1.890   4.045 -0.6465 -0.2830  0.0935
12015TIP3    H157536   0.593   1.962   4.068 -0.6749 -0.3665  0.4350
12015TIP3    H257537   0.565   1.816   4.099 -2.8455  0.4492  2.4134
12016TIP3   OH257538   4.038   2.618   3.980  0.5634  0.2619  0.5175
12016TIP3    H157539   3.965   2.561   4.006  0.8881  0.2101  1.3252
12016TIP3    H257540   4.115   2.578   4.019  1.4302 -1.1243 -2.4713
12017TIP3   OH257541   0.313   3.881  16.056 -0.0144 -0.2010  0.2348
12017TIP3    H157542   0.398   3.917  16.033  0.4736 -1.5387 -0.1034
12017TIP3    H257543   0.330   3.789  16.076 -1.5130 -0.7058 -0.6837
12018TIP3   OH257544   1.977   2.103   6.001  0.1299 -0.3533 -0.0199
12018TIP3    H157545   2.011   2.036   6.060  1.0323 -0.5262 -0.7291
12018TIP3    H257546   2.001   2.073   5.913  1.2199  1.2470 -0.2983
12019TIP3   OH257547   2.467   0.080   5.741  0.1381 -0.3311  0.3781
12019TIP3    H157548   2.418   0.155   5.707  1.8213  0.5655 -0.1705
12019TIP3    H257549   2.480   0.099   5.834  4.3294  2.3156 -0.5955
12020TIP3   OH257550   5.684   1.210   1.711  0.4184  0.3324  0.2356
12020TIP3    H157551   5.740   1.185   1.638  0.7289  0.3863  0.4494
12020TIP3    H257552   5.604   1.159   1.699 -0.0717  1.3698 -0.8845
12021TIP3   OH257553   6.009   1.171   2.040  0.1414  0.2614 -0.9610
12021TIP3    H157554   5.962   1.152   2.122 -0.4529 -0.1063 -1.3833
12021TIP3    H257555   6.032   1.085   2.005 -0.2953  0.3893 -1.5747
12022TIP3   OH257556   1.891   3.882   0.584 -0.1658  0.2423 -0.3124
12022TIP3    H157557   1.947   3.901   0.508 -1.6650  1.5221 -1.1265
12022TIP3    H257558   1.812   3.843   0.546 -0.4965 -0.0695  0.6896
12023TIP3   OH257559   0.561   3.841  15.483  0.5651 -0.4989  0.0064
12023TIP3    H157560   0.548   3.934  15.462  0.2131 -0.2833  1.1834
12023TIP3    H257561   0.633   3.840  15.545  0.8836 -1.0634 -0.3696
12024TIP3   OH257562   0.751   1.828  11.808  0.0160  0.0255  0.0285
12024TIP3    H157563   0.689   1.756  11.817  1.6950 -1.4074  0.4877
12024TIP3    H257564   0.765   1.858  11.898  0.1438  0.2024 -0.0516
12025TIP3   OH257565   3.809   5.220   4.047 -0.1983 -0.5678 -0.2922
12025TIP3    H157566   3.892   5.174   4.063 -1.0380 -1.9109  0.1996
12025TIP3    H257567   3.757   5.158   3.997 -2.0229 -0.8203  1.8956
12026TIP3   OH257568   4.673   5.005  10.744  0.5774  0.1529 -0.2040
12026TIP3    H157569   4.661   4.915  10.773  0.7884  1.0543  2.8855
12026TIP3    H257570   4.766   5.022  10.755  0.8100  0.3091 -2.2190
12027TIP3   OH257571   5.724   1.411  11.072  0.7641 -0.0948 -0.1396
12027TIP3    H157572   5.737   1.339  11.011 -0.1726  0.2954 -0.8218
12027TIP3    H257573   5.738   1.490  11.019  0.2322  0.2386  0.2159
12028TIP3   OH257574   1.926   2.736  11.354  0.2471  0.5114  0.5110
12028TIP3    H157575   2.000   2.715  11.412  0.1738  0.1432  0.4749
12028TIP3    H257576   1.850   2.699  11.399  0.1690  0.3638  0.2571
12029TIP3   OH257577   5.076   5.341   4.398 -0.4188  0.4856  0.2432
12029TIP3    H157578   5.069   5.406   4.467 -1.9047  1.7935 -1.1022
12029TIP3    H257579   4.987   5.307   4.387 -0.5772  1.5430 -2.1834
12030TIP3   OH257580   2.284   4.630  14.951  0.4481  0.0941 -0.2198
12030TIP3    H157581   2.202   4.618  14.904 -0.2761  2.2519  0.4146
12030TIP3    H257582   2.284   4.563  15.019 -0.7713  0.0709 -0.2438
12031TIP3   OH257583   0.062   1.815  13.295 -0.0503  0.3749 -0.3551
12031TIP3    H157584   0.071   1.907  13.321  1.3246 -0.0979  0.8857
12031TIP3    H257585   0.021   1.773  13.370  0.1733 -0.2174 -0.5619
12032TIP3   OH257586   4.285   1.449   1.980 -0.2971 -0.7102 -0.0294
12032TIP3    H157587   4.317   1.487   2.062  0.8653 -1.1594 -0.2568
12032TIP3    H257588   4.315   1.358   1.981  1.8108 -0.1011 -1.9797
12033TIP3   OH257589   5.584   0.148  13.264  0.8887 -0.9470 -0.5136
12033TIP3    H157590   5.650   0.113  13.205 -0.0832 -1.8909 -1.0547
12033TIP3    H257591   5.506   0.159  13.210  0.5730  0.1220  0.1267
12034TIP3   OH257592   1.003   5.951  16.578  0.2876  0.1119  0.1797
12034TIP3    H157593   1.022   5.859  16.559 -0.6395 -0.0465 -0.0171
12034TIP3    H257594   1.087   5.995  16.570  0.7417 -0.7238  0.2896
12035TIP3   OH257595   6.492   3.412  13.365  0.1589 -0.0076 -0.5774
12035TIP3    H157596   6.503   3.473  13.293  2.2037 -0.3044 -0.5609
12035TIP3    H257597   6.426   3.452  13.422 -0.7893  0.6609 -2.1370
12036TIP3   OH257598   2.340   2.011   1.202 -0.4286  0.3738 -0.2902
12036TIP3    H157599   2.292   2.088   1.172  3.0151  2.3222 -1.0873
12036TIP3    H257600   2.394   2.043   1.275  3.0431 -0.5512 -2.3128
12037TIP3   OH257601   5.862   5.095   5.936  0.0496  0.3453 -0.1991
12037TIP3    H157602   5.942   5.043   5.939 -0.3514 -0.2944 -0.6703
12037TIP3    H257603   5.848   5.122   6.027 -0.6725 -1.7663  0.3214
12038TIP3   OH257604   1.702   0.384   6.211  0.0012  0.3821 -0.0477
12038TIP3    H157605   1.634   0.446   6.184 -0.3652  0.5883  1.3258
12038TIP3    H257606   1.705   0.391   6.306  1.0554 -0.5675  0.0005
12039TIP3   OH257607   0.479   2.079   4.630  0.2624  0.5976  0.0514
12039TIP3    H157608   0.392   2.111   4.653  0.6032  1.0339  0.7520
12039TIP3    H257609   0.521   2.152   4.586 -0.4800 -0.3203 -2.2807
12040TIP3   OH257610   0.993   1.262   2.734  0.3656  0.2865  0.2994
12040TIP3    H157611   1.031   1.292   2.651 -1.7642  1.1855 -0.3929
12040TIP3    H257612   0.930   1.195   2.709 -1.0660  1.3072  1.0591
12041TIP3   OH257613   1.256   4.545   3.731  0.3043 -0.0095 -0.1274
12041TIP3    H157614   1.227   4.551   3.640 -1.4916 -1.0074  0.3641
12041TIP3    H257615   1.343   4.504   3.725  0.3178  0.1680 -1.3945
12042TIP3   OH257616   2.565   1.850  16.586  0.3846  0.1304 -0.9266
12042TIP3    H157617   2.638   1.801  16.550 -0.3534 -1.2213 -0.6164
12042TIP3    H257618   2.491   1.830  16.528 -0.4067 -0.7423  0.3492
12043TIP3   OH257619   5.792   4.013   4.070 -0.7917  0.3176 -0.4154
12043TIP3    H157620   5.744   4.095   4.079 -0.2396  0.7962 -1.7288
12043TIP3    H257621   5.756   3.957   4.138 -0.7485  1.8533  0.9173
12044TIP3   OH257622   4.151   2.222  12.649  0.3346 -0.3097 -0.7395
12044TIP3    H157623   4.138   2.134  12.683 -0.4958 -0.4574 -1.4142
12044TIP3    H257624   4.215   2.262  12.708  0.2088 -1.1363 -0.0409
12045TIP3   OH257625   4.040   1.244  13.617  0.5789  0.3866 -0.6733
12045TIP3    H157626   4.004   1.251  13.705 -2.1995 -1.9077 -1.5411
12045TIP3    H257627   4.132   1.268  13.626  0.3473  0.1195  2.8615
12046TIP3   OH257628   5.625   1.464  17.001 -0.0984 -0.1594  0.2653
12046TIP3    H157629   5.654   1.553  16.982  0.4210 -0.4980 -0.5548
12046TIP3    H257630   5.534   1.461  16.971  0.9980 -0.9717 -3.1409
12047TIP3   OH257631   1.623   5.076  12.288 -0.3867 -0.1117  0.2696
12047TIP3    H157632   1.647   5.145  12.227 -1.4609 -1.3386 -1.5699
12047TIP3    H257633   1.528   5.085  12.299 -0.0918  0.6870  2.5192
12048TIP3   OH257634   5.045   6.599  16.261  0.1961 -0.1606 -0.3491
12048TIP3    H157635   5.021   6.685  16.296 -0.9635 -0.6753  0.1630
12048TIP3    H257636   5.130   6.613  16.219  0.2485  1.1218  0.1514
12049TIP3   OH257637   4.690   6.818  16.357  0.3321  0.1431 -0.2611
12049TIP3    H157638   4.633   6.743  16.378 -0.1851  0.7531  0.5558
12049TIP3    H257639   4.676   6.833  16.264 -1.6065  0.8990  0.1267
12050TIP3   OH257640   4.277   5.595   0.956 -0.1663  0.4507 -0.0918
12050TIP3    H157641   4.203   5.536   0.938  0.0777 -0.0207  0.4423
12050TIP3    H257642   4.354   5.539   0.948  0.0261  0.5476  1.0806
12051TIP3   OH257643   3.379   6.369   0.921 -0.0821  0.7421 -0.4813
12051TIP3    H157644   3.376   6.456   0.881  0.6611  0.8139 -0.3819
12051TIP3    H257645   3.353   6.384   1.012 -3.0543  0.3887 -1.2237
12052TIP3   OH257646   4.955   4.779  13.178  0.5528  0.0005 -0.2254
12052TIP3    H157647   4.892   4.843  13.143  0.7934  0.1604 -0.3692
12052TIP3    H257648   5.017   4.832  13.228  1.4286  0.0286 -1.3022
12053TIP3   OH257649   1.902   0.057  12.052 -0.2615  0.1091 -0.2500
12053TIP3    H157650   1.950  -0.025  12.055 -1.2150 -0.4078  1.1564
12053TIP3    H257651   1.912   0.095  12.139 -1.9277  0.2547 -0.0980
12054TIP3   OH257652   3.490   1.891   0.774  0.0687 -0.1468  0.7784
12054TIP3    H157653   3.422   1.837   0.734  0.2059 -0.5606  1.1012
12054TIP3    H257654   3.482   1.874   0.868  0.9725 -0.6071  0.7743
12055TIP3   OH257655   6.199   6.533   3.161 -0.3066  0.1128  0.5114
12055TIP3    H157656   6.274   6.476   3.145 -0.1959 -0.2815  2.2457
12055TIP3    H257657   6.206   6.556   3.254 -0.8760  2.1929  0.0654
12056TIP3   OH257658   5.273   0.427  12.872  0.8001  0.5813  0.1309
12056TIP3    H157659   5.308   0.510  12.840  0.1278  1.1329  0.7675
12056TIP3    H257660   5.223   0.392  12.799  0.8518  0.8841 -0.0508
12057TIP3   OH257661   2.478   4.208  16.757  0.3931 -0.9189  0.4717
12057TIP3    H157662   2.483   4.182  16.665  1.0923  0.3029  0.1567
12057TIP3    H257663   2.568   4.232  16.780 -0.0068 -0.0387  1.1188
12058TIP3   OH257664   4.275   1.012   0.961 -0.1585 -0.6316  0.2087
12058TIP3    H157665   4.256   1.092   0.912 -1.1783 -0.0560  1.5029
12058TIP3    H257666   4.350   1.035   1.016 -0.1198 -0.7221  0.1942
12059TIP3   OH257667   4.226   3.696  12.144  0.1124  0.2528 -0.1801
12059TIP3    H157668   4.237   3.622  12.204  0.8936  0.2032 -0.3838
12059TIP3    H257669   4.218   3.655  12.058 -1.2348  0.3110 -0.0986
12060TIP3   OH257670   5.026   4.800   6.000  0.1022 -0.1569 -0.9594
12060TIP3    H157671   5.031   4.755   6.085 -0.6062  1.0889 -0.2452
12060TIP3    H257672   5.103   4.770   5.952  0.3972 -1.0296  0.0516
12061TIP3   OH257673   4.885   0.358   1.301  0.3363  0.1843  0.2098
12061TIP3    H157674   4.840   0.288   1.349  0.7124  0.3323  0.7674
12061TIP3    H257675   4.882   0.328   1.210 -1.6614  0.5964  0.1031
12062TIP3   OH257676   4.515   3.274  13.424 -0.5925 -0.6896  0.4628
12062TIP3    H157677   4.554   3.190  13.450  0.5255  0.3699  2.3372
12062TIP3    H257678   4.501   3.266  13.330  0.6667 -2.5133  0.4023
12063TIP3   OH257679   5.317   6.055   4.246 -0.3653 -0.6636 -0.5048
12063TIP3    H157680   5.297   6.149   4.252 -0.4334 -0.8248  2.3254
12063TIP3    H257681   5.294   6.032   4.156  0.2538  2.1583 -1.4499
12064TIP3   OH257682   0.549   6.336   6.447  0.4370  0.2755  0.0912
12064TIP3    H157683   0.636   6.373   6.462  0.6148 -0.0880 -0.0412
12064TIP3    H257684   0.516   6.383   6.370 -0.2850  1.8078  1.2871
12065TIP3   OH257685   1.627   4.213   2.358  0.1482  0.0089  0.2539
12065TIP3    H157686   1.618   4.304   2.387 -0.8587 -0.6446  2.0861
12065TIP3    H257687   1.720   4.204   2.336  0.4816  1.1821  1.1484
12066TIP3   OH257688   1.225   1.773  13.671 -0.1376 -0.1425 -0.2557
12066TIP3    H157689   1.286   1.775  13.745 -3.1016 -0.4990  2.3178
12066TIP3    H257690   1.155   1.834  13.697 -1.6929 -1.0088 -2.3510
12067TIP3   OH257691   4.248   2.447   0.351  0.6468  0.4782 -0.3012
12067TIP3    H157692   4.213   2.359   0.337 -3.2284  1.9933 -0.5820
12067TIP3    H257693   4.235   2.463   0.444  2.2036  0.4524 -0.0620
12068TIP3   OH257694   1.198   0.648  13.060 -0.5594 -0.1565 -0.1585
12068TIP3    H157695   1.209   0.564  13.105 -1.0324 -0.6189 -0.8936
12068TIP3    H257696   1.279   0.695  13.078 -0.5025 -0.5569  0.6997
12069TIP3   OH257697   2.961   3.444  14.206 -0.4207 -0.0782 -0.1388
12069TIP3    H157698   2.905   3.431  14.129 -1.4408 -0.9768  0.7428
12069TIP3    H257699   3.042   3.398  14.184  0.1706  1.5966 -1.6020
12070TIP3   OH257700   0.138   1.059   2.700 -0.0990 -0.1617  0.0345
12070TIP3    H157701   0.169   1.144   2.669  1.0007 -0.6234 -0.1612
12070TIP3    H257702   0.217   1.014   2.730 -1.0145 -0.0696  2.6987
12071TIP3   OH257703   3.452   4.113   0.950 -0.1963  0.7738 -0.6903
12071TIP3    H157704   3.516   4.146   1.013  2.0987 -1.2274 -1.9085
12071TIP3    H257705   3.469   4.162   0.869  0.4287 -0.4159 -1.2867
12072TIP3   OH257706   3.379   2.975  12.060  0.3063 -0.4423  0.2364
12072TIP3    H157707   3.339   2.966  11.973 -1.4583 -0.9333  1.0963
12072TIP3    H257708   3.450   2.911  12.060 -1.1019 -2.0348 -0.0331
12073TIP3   OH257709   4.710   2.787  12.912 -0.6464  0.3095 -0.3899
12073TIP3    H157710   4.662   2.767  12.992 -0.4737 -1.1468 -0.6509
12073TIP3    H257711   4.650   2.762  12.841 -0.9641  1.9707 -0.7307
12074TIP3   OH257712   1.725   5.721   2.438 -0.5180  0.4905  0.1099
12074TIP3    H157713   1.742   5.713   2.532  0.2650 -1.3370 -0.1783
12074TIP3    H257714   1.779   5.653   2.397 -1.5977  0.6161 -1.5894
12075TIP3   OH257715   5.382   1.294   2.792 -0.4374  0.2343 -0.0025
12075TIP3    H157716   5.393   1.263   2.882  0.2652 -0.3131 -0.2689
12075TIP3    H257717   5.321   1.367   2.799 -0.6211  0.0046  0.8803
12076TIP3   OH257718   2.703   1.062  13.745  0.7166  0.5458 -0.3549
12076TIP3    H157719   2.785   1.051  13.794  0.2209 -1.4064  0.0735
12076TIP3    H257720   2.635   1.038  13.807 -0.1053  0.8911 -1.1195
12077TIP3   OH257721   0.450   1.548   4.897 -0.1362 -0.2658 -0.0566
12077TIP3    H157722   0.477   1.624   4.950 -1.2888  0.7815 -0.9633
12077TIP3    H257723   0.423   1.585   4.813 -3.8740 -1.3060  0.5920
12078TIP3   OH257724   3.731   4.963  11.991  0.3413  0.6353  0.0984
12078TIP3    H157725   3.641   4.993  11.978 -0.0947 -0.9057 -0.6579
12078TIP3    H257726   3.726   4.868  11.977  1.9149  0.4083  0.9709
12079TIP3   OH257727   1.244   5.184  13.407  0.0291  0.0302 -0.1586
12079TIP3    H157728   1.194   5.198  13.326  0.5317 -0.5688 -0.5811
12079TIP3    H257729   1.320   5.132  13.379 -0.3812 -1.1538  0.8968
12080TIP3   OH257730   4.711   6.289  14.790  0.2964  0.2518 -0.2585
12080TIP3    H157731   4.651   6.302  14.863  0.2788 -1.9848  0.1650
12080TIP3    H257732   4.707   6.195  14.772  2.0262  0.4115 -1.6477
12081TIP3   OH257733   6.539   0.129   0.164 -1.0780 -0.1356 -0.6848
12081TIP3    H157734   6.550   0.095   0.253  0.3887  0.9696 -0.4175
12081TIP3    H257735   6.486   0.208   0.175 -0.8218  0.0495 -0.7772
12082TIP3   OH257736   5.880   0.079  15.935  0.1598 -0.1172  0.0404
12082TIP3    H157737   5.911   0.050  16.021  1.6899  0.3916 -0.3143
12082TIP3    H257738   5.946   0.142  15.906 -1.6848  1.6359 -0.4083
12083TIP3   OH257739   3.689   1.994   0.110  0.5955  0.1146 -0.3816
12083TIP3    H157740   3.604   2.017   0.148  1.1799  0.1287  0.9327
12083TIP3    H257741   3.668   1.931   0.040 -0.4330 -0.4096  0.3930
12084TIP3   OH257742   2.757   5.696   6.516 -0.7989 -0.0985 -0.4375
12084TIP3    H157743   2.751   5.680   6.610 -0.5318  0.8528 -0.2537
12084TIP3    H257744   2.673   5.736   6.494 -0.1359  1.4103 -0.2499
12085TIP3   OH257745   4.843   0.074  14.458  0.4672  0.2737  0.2147
12085TIP3    H157746   4.791   0.152  14.473  0.3114  0.2738 -0.3299
12085TIP3    H257747   4.841   0.061  14.363  2.7741  1.2044 -0.0034
12086TIP3   OH257748   2.799   1.410   1.959 -0.4208  0.1658  0.4361
12086TIP3    H157749   2.787   1.315   1.950 -0.7406  0.3054 -0.7412
12086TIP3    H257750   2.797   1.426   2.053 -1.1680 -0.8992  0.6099
12087TIP3   OH257751   1.622   6.780   4.276  0.1611  0.3050 -0.8948
12087TIP3    H157752   1.572   6.749   4.201 -0.1578  0.1457 -0.6162
12087TIP3    H257753   1.556   6.812   4.337  0.1174 -3.5522  1.1832
12088TIP3   OH257754   0.389   5.557  14.696 -1.1172  0.2416 -0.5453
12088TIP3    H157755   0.403   5.536  14.789 -2.4299 -0.5047 -0.4982
12088TIP3    H257756   0.295   5.542  14.682 -0.6709 -1.0351 -2.3361
12089TIP3   OH257757   0.590   0.889  14.976  0.3881  0.0900  0.1592
12089TIP3    H157758   0.535   0.948  15.026 -0.2902 -0.3229 -0.0886
12089TIP3    H257759   0.662   0.944  14.944 -0.4154  0.8461 -0.3574
12090TIP3   OH257760   1.715   2.779  16.794  0.5414  0.4987 -0.3275
12090TIP3    H157761   1.661   2.831  16.735 -1.0548 -1.4466 -0.6230
12090TIP3    H257762   1.722   2.833  16.873 -1.7869  0.8245 -0.3002
12091TIP3   OH257763   4.856   0.884   2.095 -0.2188 -0.2402 -0.5792
12091TIP3    H157764   4.843   0.857   2.005 -0.9894 -0.2669 -0.4642
12091TIP3    H257765   4.767   0.894   2.131  0.0689  0.3192  0.0053
12092TIP3   OH257766   0.714   2.679  15.863 -0.1132  0.5758  0.2383
12092TIP3    H157767   0.739   2.747  15.927  1.2720  1.2251 -0.9682
12092TIP3    H257768   0.668   2.613  15.915  2.1989  0.4297  2.1580
12093TIP3   OH257769   5.011   5.497   4.673  0.0340 -0.3781  0.0705
12093TIP3    H157770   5.081   5.562   4.669 -0.3203 -0.0631 -1.1090
12093TIP3    H257771   4.943   5.531   4.615 -0.0277 -1.9659 -0.8052
12094TIP3   OH257772   2.988   5.636   5.157  0.4547 -0.4218 -0.0645
12094TIP3    H157773   3.074   5.618   5.120  0.2040 -0.3714 -0.6818
12094TIP3    H257774   2.927   5.591   5.098  0.1614 -1.9202  1.3434
12095TIP3   OH257775   3.550   2.187   3.022  0.0017 -0.4904  0.0571
12095TIP3    H157776   3.639   2.191   2.985  0.0512 -0.0375  0.2213
12095TIP3    H257777   3.510   2.271   2.998 -0.3664 -0.6733  0.0276
12096TIP3   OH257778   3.468   4.783   2.111 -0.6739  0.6937 -0.2430
12096TIP3    H157779   3.549   4.785   2.059 -1.0171  0.3876 -0.7907
12096TIP3    H257780   3.428   4.868   2.095 -0.8740  0.5259 -0.6255
12097TIP3   OH257781   3.235   2.215   2.273 -0.4035  0.2010  0.1566
12097TIP3    H157782   3.172   2.210   2.201  0.1070  1.6363 -0.4203
12097TIP3    H257783   3.193   2.272   2.338 -1.0131 -1.3714  1.1753
12098TIP3   OH257784   5.574   1.180  13.908  0.3953  0.2069  0.2041
12098TIP3    H157785   5.612   1.213  13.989  1.0620 -0.5327  0.1954
12098TIP3    H257786   5.480   1.175  13.926  0.3660  1.4741  0.4224
12099TIP3   OH257787   2.166   2.301   6.567  0.1040 -0.0209 -0.2221
12099TIP3    H157788   2.207   2.247   6.499  0.9271  2.0676 -1.4228
12099TIP3    H257789   2.238   2.329   6.623 -0.2826  0.0972  0.2203
12100TIP3   OH257790   5.462   1.500  12.011  0.6539  0.5594  0.4390
12100TIP3    H157791   5.422   1.528  12.094  0.5276 -1.9582  1.2589
12100TIP3    H257792   5.388   1.495  11.950  0.2489 -0.5821  1.0038
12101TIP3   OH257793   0.503   0.889   0.882 -0.1660  0.3545  0.1211
12101TIP3    H157794   0.450   0.813   0.856 -1.1480  0.3593  1.9632
12101TIP3    H257795   0.534   0.927   0.800 -0.3309 -1.5725 -0.8513
12102TIP3   OH257796   2.797   1.964  15.195 -0.7375 -0.4557 -0.3632
12102TIP3    H157797   2.806   2.050  15.154 -0.9779 -0.1220  0.2856
12102TIP3    H257798   2.776   1.905  15.123 -1.1662  0.1315 -0.7194
12103TIP3   OH257799   1.127   2.188  14.803 -0.6779 -0.1826  0.3011
12103TIP3    H157800   1.151   2.202  14.894 -1.0052  0.3163  0.3095
12103TIP3    H257801   1.084   2.102  14.803  0.4693 -0.7719  0.3978
12104TIP3   OH257802   4.361   2.473  16.078  0.3870  0.5608  0.1953
12104TIP3    H157803   4.413   2.402  16.039  1.1761  1.3131 -0.1279
12104TIP3    H257804   4.276   2.433  16.095  0.0606  0.1521 -2.1757
12105TIP3   OH257805   5.280   3.987  11.411  0.3868 -0.0335 -0.1421
12105TIP3    H157806   5.366   4.006  11.449  1.3504 -0.1253 -2.1679
12105TIP3    H257807   5.298   3.920  11.345 -1.0490  0.7934 -1.4082
12106TIP3   OH257808   3.021   2.079   4.647  0.3996 -0.1782  0.2626
12106TIP3    H157809   3.112   2.088   4.676  0.0676 -0.2108  1.3395
12106TIP3    H257810   3.021   2.109   4.556  1.2373  1.0243  0.6523
12107TIP3   OH257811   4.126   5.263   5.016  0.2239 -0.3188  0.2761
12107TIP3    H157812   4.209   5.289   5.058  1.1937  0.1437 -1.8604
12107TIP3    H257813   4.103   5.180   5.058  1.6770 -0.3740  1.0172
12108TIP3   OH257814   5.766   6.483   5.667  0.4301  0.4537  0.6070
12108TIP3    H157815   5.733   6.496   5.756  0.8304  0.7675  0.7155
12108TIP3    H257816   5.737   6.395   5.642  1.3099 -0.0978  1.4882
12109TIP3   OH257817   4.386   2.196   3.513  0.2277 -0.1073  0.0045
12109TIP3    H157818   4.417   2.280   3.544 -0.3180 -0.8740  2.7608
12109TIP3    H257819   4.293   2.210   3.495  0.7205  0.5490 -2.1611
12110TIP3   OH257820   1.790   3.866   1.693  0.5471  0.2636 -0.4798
12110TIP3    H157821   1.716   3.833   1.743  0.1904  1.7165 -0.0067
12110TIP3    H257822   1.780   3.827   1.606 -1.0585  0.8000 -0.5623
12111TIP3   OH257823   0.355   1.932   0.872 -0.2599 -0.7857  0.1954
12111TIP3    H157824   0.313   1.890   0.797  0.2924  0.1006 -0.6288
12111TIP3    H257825   0.283   1.950   0.933 -0.9693 -0.0490 -0.8369
12112TIP3   OH257826   3.194   4.278   1.363 -0.2716 -0.6767  0.0633
12112TIP3    H157827   3.107   4.308   1.391 -0.6740 -1.3994 -0.3935
12112TIP3    H257828   3.178   4.236   1.278  0.6029 -0.3727 -0.2505
12113TIP3   OH257829   1.031   3.838   3.109 -0.4269 -0.0501  0.1329
12113TIP3    H157830   1.088   3.900   3.155  1.0885  1.5907 -3.7192
12113TIP3    H257831   0.950   3.888   3.092 -0.6016 -0.3112  0.2012
12114TIP3   OH257832   4.461   6.648  12.887 -0.0422 -0.7430 -0.5614
12114TIP3    H157833   4.529   6.581  12.876  2.4801  1.3170  1.6695
12114TIP3    H257834   4.494   6.723  12.838 -0.5783  0.3251  0.6836
12115TIP3   OH257835   3.464   1.244  15.765 -0.0980  0.1967 -0.0542
12115TIP3    H157836   3.374   1.224  15.739 -0.0447  0.9810 -0.8660
12115TIP3    H257837   3.456   1.271  15.857 -0.3495 -2.0739  0.6007
12116TIP3   OH257838   6.428   0.520   1.867 -0.0361 -0.2870 -0.4204
12116TIP3    H157839   6.520   0.504   1.845  0.4964  2.1004 -0.0175
12116TIP3    H257840   6.425   0.510   1.963 -0.1197 -0.0215 -0.3952
12117TIP3   OH257841   5.571   1.442   3.895  0.5602 -0.4006 -0.4817
12117TIP3    H157842   5.595   1.524   3.851  0.2216 -0.6046 -1.0604
12117TIP3    H257843   5.637   1.430   3.962  0.6773  0.2933 -0.4707
12118TIP3   OH257844   1.424   1.570  13.202 -0.2361 -0.6960 -0.6357
12118TIP3    H157845   1.364   1.642  13.181  0.6270  0.6675  1.4212
12118TIP3    H257846   1.377   1.517  13.266  0.3787 -0.1515  0.2715
12119TIP3   OH257847   3.473   5.248  13.879 -0.4879  0.1482 -0.4537
12119TIP3    H157848   3.470   5.180  13.947 -0.6259 -0.5936 -1.1948
12119TIP3    H257849   3.384   5.282  13.875  0.0732  2.0534  1.5683
12120TIP3   OH257850   0.667   4.919   3.322 -0.0158 -0.3846  0.3839
12120TIP3    H157851   0.664   4.835   3.276  1.9914 -0.6370  0.6341
12120TIP3    H257852   0.630   4.982   3.260  0.8116 -1.0456 -0.8119
12121TIP3   OH257853   4.038   3.948   4.625  0.2102  0.3167 -0.0579
12121TIP3    H157854   4.022   4.042   4.631  0.4062  0.4047 -0.8579
12121TIP3    H257855   4.094   3.928   4.701 -0.1395  0.7710  0.3256
12122TIP3   OH257856   0.523   2.064  12.607  0.1069  0.0708 -0.2175
12122TIP3    H157857   0.484   2.124  12.543 -1.3138 -1.5480 -0.9127
12122TIP3    H257858   0.592   2.115  12.649 -1.6585  2.4829 -0.1602
12123TIP3   OH257859   1.228   0.813  15.330  0.5673 -0.6811 -0.8887
12123TIP3    H157860   1.297   0.806  15.264  1.0689 -0.0223 -0.4369
12123TIP3    H257861   1.214   0.724  15.360  1.7807 -0.7130 -0.4070
12124TIP3   OH257862   0.052   5.942   2.569  0.3712 -0.6792  0.3515
12124TIP3    H157863   0.048   6.031   2.536 -0.4457 -1.7293 -2.5287
12124TIP3    H257864   0.145   5.919   2.567  0.4680 -0.2640  0.0964
12125TIP3   OH257865   1.655   3.170  12.957 -0.2063  0.2751  0.7995
12125TIP3    H157866   1.710   3.196  12.883  1.6082 -1.4613  1.4872
12125TIP3    H257867   1.669   3.076  12.965 -0.6383  0.3749  3.1370
12126TIP3   OH257868   3.773   6.122  12.706  0.0796 -0.6567  0.1698
12126TIP3    H157869   3.860   6.097  12.676  0.7224  1.0838  0.5085
12126TIP3    H257870   3.780   6.215  12.727 -0.9419 -1.2040  3.3983
12127TIP3   OH257871   6.031   1.924   1.781 -0.4309  0.0508 -0.1405
12127TIP3    H157872   5.965   1.859   1.757  0.4051 -1.0489  0.4616
12127TIP3    H257873   6.114   1.885   1.753  0.0492  1.0206 -0.0861
12128TIP3   OH257874   6.522   4.244  15.495 -0.1552 -0.2692 -0.0534
12128TIP3    H157875   6.449   4.222  15.438  1.3743 -2.1091 -1.3977
12128TIP3    H257876   6.595   4.260  15.435  0.9337 -0.0217  1.3115
12129TIP3   OH257877   1.192   5.015   1.041 -0.0655  0.0254 -0.2962
12129TIP3    H157878   1.219   5.005   0.950 -2.1977 -0.0859 -0.9324
12129TIP3    H257879   1.200   4.927   1.079 -0.1777 -0.1353 -0.6484
12130TIP3   OH257880   4.294   5.702  12.568 -0.0540 -0.1957  0.0262
12130TIP3    H157881   4.325   5.706  12.658  1.8652 -1.6606 -0.5484
12130TIP3    H257882   4.336   5.778  12.525 -1.6035  0.9715  0.5306
12131TIP3   OH257883   3.272   0.513  11.840  1.0531 -0.3129  0.0099
12131TIP3    H157884   3.195   0.569  11.852  1.3915  1.1290 -3.7273
12131TIP3    H257885   3.244   0.449  11.774  2.9781  0.0788 -1.2056
12132TIP3   OH257886   4.102   1.754  15.890  0.7076 -0.2392 -0.2943
12132TIP3    H157887   4.010   1.780  15.889  0.5031 -0.9360 -2.1154
12132TIP3    H257888   4.116   1.720  15.978 -1.1215 -1.3354 -0.3992
12133TIP3   OH257889   5.267   4.776   2.821 -0.1877 -0.3378 -0.1961
12133TIP3    H157890   5.202   4.721   2.779  1.1881 -1.2626 -1.1783
12133TIP3    H257891   5.347   4.760   2.771  1.2156 -0.5526  2.0481
12134TIP3   OH257892   2.956   2.784  15.119 -0.1806  0.5776 -0.4086
12134TIP3    H157893   2.998   2.710  15.164 -0.6338  1.6015  1.8039
12134TIP3    H257894   2.865   2.782  15.150 -1.0547  0.1339 -2.8873
12135TIP3   OH257895   0.467   5.985  13.828  0.0341 -0.5550 -0.8573
12135TIP3    H157896   0.471   6.031  13.911 -0.4291  0.8110 -1.5852
12135TIP3    H257897   0.533   5.915  13.836 -0.6182 -0.9768  0.9581
12136TIP3   OH257898   5.769   5.668   4.694  0.4215 -0.9776 -0.2864
12136TIP3    H157899   5.791   5.729   4.623  1.0361  0.0619  0.7754
12136TIP3    H257900   5.674   5.677   4.704  0.2918 -1.3282 -1.1514
12137TIP3   OH257901   3.401   4.197   4.744 -0.2102  0.1970  0.3161
12137TIP3    H157902   3.420   4.276   4.795 -1.5426  0.1441  0.8975
12137TIP3    H257903   3.412   4.224   4.653 -0.1634  0.9112  0.5286
12138TIP3   OH257904   3.019   4.086  15.732  0.6308  0.1097  0.0853
12138TIP3    H157905   3.003   4.172  15.694 -0.9216  0.2563  1.0427
12138TIP3    H257906   2.959   4.027  15.685  1.8108 -0.4845 -0.6919
12139TIP3   OH257907   6.528   2.291  13.146 -0.6035  0.6596  0.1679
12139TIP3    H157908   6.436   2.294  13.119  0.0358  0.6855 -2.0794
12139TIP3    H257909   6.553   2.383  13.156 -0.9159  0.6435  1.1669
12140TIP3   OH257910   3.624   1.062   3.223  0.4610  0.0407 -0.1810
12140TIP3    H157911   3.649   1.133   3.164  1.5617  1.2379  1.6837
12140TIP3    H257912   3.549   1.097   3.271 -0.3646 -0.8878 -0.7753
12141TIP3   OH257913   6.492   4.166   2.569  0.5585  0.3973 -0.2352
12141TIP3    H157914   6.561   4.163   2.503 -0.8534  0.4278 -1.7325
12141TIP3    H257915   6.477   4.075   2.592  0.0060  0.2845 -1.0527
12142TIP3   OH257916   2.676   5.374  13.430  0.5515 -0.0357  0.6770
12142TIP3    H157917   2.625   5.396  13.508 -1.0230 -0.6464 -0.1629
12142TIP3    H257918   2.700   5.282  13.443  0.6019 -0.0329  0.6029
12143TIP3   OH257919   2.220   5.154  13.503 -0.7217 -0.2212  0.3879
12143TIP3    H157920   2.285   5.191  13.562 -1.2488  1.4939 -0.0729
12143TIP3    H257921   2.137   5.194  13.530 -1.6291 -2.4584  1.0453
12144TIP3   OH257922   3.141   5.432  11.226  0.3889 -0.9206  0.2355
12144TIP3    H157923   3.137   5.341  11.256 -2.2963 -0.7119  0.6538
12144TIP3    H257924   3.179   5.479  11.300 -1.4375 -1.2100  1.4034
12145TIP3   OH257925   5.882   3.550  10.691 -0.3042 -0.1149  0.1889
12145TIP3    H157926   5.875   3.456  10.673  1.8136 -0.7580  2.4125
12145TIP3    H257927   5.966   3.575  10.653  0.6467  0.1299  2.3558
12146TIP3   OH257928   0.003   4.141  17.274 -0.0814 -0.4127 -0.2997
12146TIP3    H157929  -0.008   4.059  17.226 -0.9655  0.9262 -2.4407
12146TIP3    H257930  -0.087   4.171  17.290  0.2524  0.5302 -0.1875
12147TIP3   OH257931   6.635   2.669   0.328  0.1477 -0.3213  0.1821
12147TIP3    H157932   6.621   2.734   0.397 -0.3444 -0.8989  0.6285
12147TIP3    H257933   6.590   2.706   0.251  0.3609  0.1338  0.2738
12148TIP3   OH257934   5.007   4.908  13.699  0.3734  0.3003 -0.5109
12148TIP3    H157935   5.075   4.878  13.759 -0.2307  0.8974  0.4672
12148TIP3    H257936   5.004   5.003  13.710 -1.2197  0.1998  0.0875
12149TIP3   OH257937   2.497   4.820  16.388  0.1555  0.3417  0.3603
12149TIP3    H157938   2.415   4.870  16.386 -0.6641 -0.8759  2.3337
12149TIP3    H257939   2.473   4.735  16.424  2.0534 -0.5244 -0.3377
12150TIP3   OH257940   1.365   5.523  17.139  0.5669 -0.3743  0.2415
12150TIP3    H157941   1.442   5.579  17.149  0.3906  0.3386 -1.9632
12150TIP3    H257942   1.401   5.437  17.117  0.7570  0.1721 -1.7062
12151TIP3   OH257943   1.722   5.270  13.477  0.1460  0.7475  0.6159
12151TIP3    H157944   1.778   5.343  13.452  0.6058  0.5417  1.0357
12151TIP3    H257945   1.636   5.293  13.444  1.1222 -0.3985 -2.8856
12152TIP3   OH257946   3.709   4.055   4.603 -0.5881  0.2290  0.2452
12152TIP3    H157947   3.750   3.973   4.629 -0.8046  0.0904  0.1459
12152TIP3    H257948   3.700   4.104   4.685 -1.3133 -0.2292  0.4466
12153TIP3   OH257949   2.084   1.919   4.447 -0.1820 -0.1079  0.2808
12153TIP3    H157950   2.134   1.848   4.407 -1.3768 -1.4014  1.0301
12153TIP3    H257951   2.148   1.968   4.498  0.7214 -0.4225 -0.5326
12154TIP3   OH257952   5.228   4.482  11.579 -0.6652 -0.0719 -0.5922
12154TIP3    H157953   5.264   4.558  11.624 -0.6990 -1.3994  1.7691
12154TIP3    H257954   5.300   4.449  11.525  0.3415 -0.2560  0.8540
12155TIP3   OH257955   1.519   0.854  16.246 -0.1739  1.0605  0.0391
12155TIP3    H157956   1.513   0.937  16.199 -2.1437  0.5419 -0.6742
12155TIP3    H257957   1.458   0.864  16.319 -0.4771  0.2257 -0.0941
12156TIP3   OH257958   6.263   1.288  15.665  0.4402  0.3086  0.2971
12156TIP3    H157959   6.340   1.232  15.667 -0.8316 -1.6943 -2.8997
12156TIP3    H257960   6.199   1.244  15.720  1.3015  1.6047  2.3745
12157TIP3   OH257961   6.726   6.102   1.634  0.4994 -0.2744 -0.1428
12157TIP3    H157962   6.666   6.029   1.650 -1.2347  1.3951  1.0872
12157TIP3    H257963   6.701   6.133   1.547 -0.7505  0.6840  0.5359
12158TIP3   OH257964   2.306   2.964   3.450  0.0144 -0.6983  0.2757
12158TIP3    H157965   2.265   2.878   3.461 -1.9963  0.0208 -1.3802
12158TIP3    H257966   2.298   2.983   3.357  3.6977 -0.2652 -0.0387
12159TIP3   OH257967   1.722   5.867   3.454  0.3521  0.1667 -0.3981
12159TIP3    H157968   1.681   5.786   3.424 -0.7114  1.1520 -1.6570
12159TIP3    H257969   1.680   5.936   3.402  1.6224  1.4735  0.2769
12160TIP3   OH257970   4.304   5.727  15.494 -0.5605  0.1106 -0.0145
12160TIP3    H157971   4.223   5.773  15.516 -0.8148  0.2131 -1.1117
12160TIP3    H257972   4.334   5.769  15.413 -0.4254 -1.1802 -0.6560
12161TIP3   OH257973   6.043   0.940  12.684 -0.3392  0.4506  0.3596
12161TIP3    H157974   5.999   0.877  12.627  0.0805  0.3441  0.1513
12161TIP3    H257975   6.009   0.921  12.771 -0.3508  0.0556  0.2703
12162TIP3   OH257976   2.401   2.831   0.481  0.4168  0.2030 -0.0628
12162TIP3    H157977   2.323   2.883   0.499  0.2426 -0.4217  1.0296
12162TIP3    H257978   2.453   2.885   0.421  0.2850  1.6679  1.1129
12163TIP3   OH257979   0.216   3.723   2.189 -0.5301  0.3160 -0.1382
12163TIP3    H157980   0.233   3.735   2.096 -1.5913  0.1819 -0.3523
12163TIP3    H257981   0.233   3.630   2.205 -0.9880  0.1978 -0.3377
12164TIP3   OH257982   1.909   3.024  11.009 -0.1716  0.1274  0.4482
12164TIP3    H157983   1.894   3.060  11.096 -0.4975  0.3408  0.3077
12164TIP3    H257984   1.974   3.082  10.970 -0.3971  0.3258  0.3680
12165TIP3   OH257985   5.490   2.727  16.451  0.1345 -0.3848 -0.0887
12165TIP3    H157986   5.446   2.778  16.520  0.9960 -0.6744  0.6852
12165TIP3    H257987   5.565   2.782  16.425 -0.5517  0.0187 -1.2610
12166TIP3   OH257988   6.132   1.517  15.172 -0.6497 -0.2802 -0.2634
12166TIP3    H157989   6.046   1.528  15.213 -0.1522 -1.2770  1.0535
12166TIP3    H257990   6.136   1.424  15.148  0.2356 -0.3418  0.0920
12167TIP3   OH257991   0.971   4.015   2.715 -0.6999  0.1376  0.1625
12167TIP3    H157992   1.007   3.926   2.717  0.7497  0.6677 -0.8414
12167TIP3    H257993   1.038   4.069   2.757 -1.2572  0.8521  0.1429
12168TIP3   OH257994   6.333   2.091  17.251 -0.4786 -0.1784 -0.3169
12168TIP3    H157995   6.406   2.085  17.189 -0.7043  1.3213 -0.7432
12168TIP3    H257996   6.274   2.155  17.212 -0.1079  1.5877  1.9433
12169TIP3   OH257997   5.327   5.461  14.089  0.4667  0.6052  0.4626
12169TIP3    H157998   5.327   5.384  14.147 -0.1298 -0.5350 -1.0214
12169TIP3    H257999   5.376   5.433  14.012  0.7718  1.9270  0.1738
12170TIP3   OH258000   1.342   6.010  11.552  0.1543 -0.1643 -0.1156
12170TIP3    H158001   1.398   5.953  11.499  1.4499  1.0930 -0.1266
12170TIP3    H258002   1.275   6.041  11.492  1.0475  0.4738 -0.8037
12171TIP3   OH258003   2.903   6.173   1.288 -0.3332  0.7693 -0.7519
12171TIP3    H158004   2.881   6.147   1.378  1.7935 -0.1983 -0.4561
12171TIP3    H258005   2.826   6.151   1.237 -0.7653 -0.7621  0.4928
12172TIP3   OH258006   1.905   0.534   5.430 -0.5619 -0.0047  0.2601
12172TIP3    H158007   1.930   0.461   5.373  1.7697  2.0224 -1.3956
12172TIP3    H258008   1.970   0.534   5.500 -1.6855 -0.6458  1.3345
12173TIP3   OH258009   2.542   2.575  14.347  0.7502  0.0286 -0.0607
12173TIP3    H158010   2.543   2.528  14.431 -0.2939 -0.7487 -0.4683
12173TIP3    H258011   2.606   2.529  14.293  1.7179  0.7808  0.4357
12174TIP3   OH258012   6.497   0.627  15.488  0.4719  0.5153  0.2859
12174TIP3    H158013   6.535   0.570  15.555  0.7429  1.3081  0.8152
12174TIP3    H258014   6.447   0.568  15.431  2.3916 -0.5364 -0.3530
12175TIP3   OH258015   6.368   0.607   3.931  0.0003  0.1894 -0.5952
12175TIP3    H158016   6.296   0.663   3.960 -0.3740 -0.5632 -0.0324
12175TIP3    H258017   6.438   0.667   3.906  0.7638  0.9142  2.9698
12176TIP3   OH258018   2.009   0.668  12.520 -0.0534 -0.6420 -0.0784
12176TIP3    H158019   1.932   0.696  12.568  0.1469 -2.8369  1.5807
12176TIP3    H258020   2.012   0.725  12.443 -3.5463 -0.8286 -0.3942
12177TIP3   OH258021   3.930   6.081  17.243  0.4811  0.4236  0.3174
12177TIP3    H158022   3.963   6.041  17.162 -0.2437  1.3944 -0.4647
12177TIP3    H258023   3.864   6.019  17.274 -0.9552  1.2016 -1.1292
12178TIP3   OH258024   3.032   0.981  11.887 -0.0606  0.4135  0.0897
12178TIP3    H158025   2.965   1.014  11.946  0.1628 -0.4720  0.8483
12178TIP3    H258026   2.985   0.959  11.807 -0.6227  0.1323  0.4938
12179TIP3   OH258027   4.122   4.771  15.691  0.1068  0.5602  0.3641
12179TIP3    H158028   4.191   4.735  15.747  1.0396  1.4941 -0.1607
12179TIP3    H258029   4.158   4.763  15.602 -0.8307  0.2632  0.0088
12180TIP3   OH258030   3.690   4.406  11.454 -0.3457 -0.6817 -0.2277
12180TIP3    H158031   3.695   4.501  11.466  1.5082 -1.1029  3.0033
12180TIP3    H258032   3.773   4.374  11.487 -0.7012 -3.4303 -1.8535
12181TIP3   OH258033   0.814   5.350   5.093 -0.2932 -0.9852  0.4645
12181TIP3    H158034   0.793   5.321   5.182  0.4350 -0.5169  0.7905
12181TIP3    H258035   0.731   5.381   5.057 -0.4738 -0.6648  1.1695
12182TIP3   OH258036   2.525   6.375  16.032  0.3125 -0.0734  0.1565
12182TIP3    H158037   2.530   6.414  15.944  0.5314 -1.4492 -0.4470
12182TIP3    H258038   2.503   6.449  16.089 -1.2680  0.5840 -1.2428
12183TIP3   OH258039   1.057   3.211   4.969 -0.4100  0.1507  0.3806
12183TIP3    H158040   1.086   3.256   4.890  0.2561  1.0431  1.1214
12183TIP3    H258041   1.136   3.167   5.002 -0.5871  0.1200  0.7727
12184TIP3   OH258042   3.219   5.160  16.762 -0.3089  0.4135 -0.4920
12184TIP3    H158043   3.222   5.183  16.669  0.9239  1.8262 -0.1367
12184TIP3    H258044   3.288   5.213  16.801 -0.6126 -0.4038  1.1860
12185TIP3   OH258045   4.982   4.893  12.791  0.3378 -0.3827 -0.2200
12185TIP3    H158046   4.961   4.885  12.698  1.0858  0.1356 -0.4417
12185TIP3    H258047   5.058   4.836  12.804  0.2198 -0.4755  0.0816
12186TIP3   OH258048   6.631   2.043  14.334 -0.8039  0.2043  0.1638
12186TIP3    H158049   6.705   2.040  14.394 -0.5135 -0.4354 -0.2351
12186TIP3    H258050   6.669   2.037  14.247 -1.3009  0.1498 -0.0536
12187TIP3   OH258051   4.140   2.717   2.237 -0.6872  0.0712  0.3821
12187TIP3    H158052   4.167   2.771   2.163  0.8730 -2.2587 -0.7715
12187TIP3    H258053   4.149   2.775   2.313  1.5020  1.2650 -0.7532
12188TIP3   OH258054   4.100   5.691   1.659  0.2350  0.2488  0.0143
12188TIP3    H158055   4.176   5.739   1.692  0.5698 -0.5694  0.4249
12188TIP3    H258056   4.134   5.637   1.588 -0.1314  0.5361 -0.3865
12189TIP3   OH258057   1.712   0.087   3.200 -0.2487  0.2585 -0.4957
12189TIP3    H158058   1.762   0.017   3.157  0.1501  1.4506 -2.0435
12189TIP3    H258059   1.740   0.166   3.155 -2.5060  1.1251 -0.4074
12190TIP3   OH258060   5.381   5.957   0.966 -0.0905 -0.3059  0.1378
12190TIP3    H158061   5.372   5.880   0.911  0.1319 -0.8624  0.8652
12190TIP3    H258062   5.409   5.922   1.051 -0.6802  0.5096  0.6728
12191TIP3   OH258063   5.615   5.810  11.804  0.0406  0.5109 -0.2912
12191TIP3    H158064   5.620   5.897  11.844  1.9760  0.0208  0.5652
12191TIP3    H258065   5.648   5.823  11.715  0.7613  0.5738 -0.0179
12192TIP3   OH258066   4.855   5.071   5.843  0.8125 -0.1107  0.4283
12192TIP3    H158067   4.846   5.126   5.765 -0.0429 -0.1544  0.4964
12192TIP3    H258068   4.867   4.983   5.808  1.8733  0.0659  0.3240
12193TIP3   OH258069   5.498   2.209   6.239  0.3185  0.0382 -0.2370
12193TIP3    H158070   5.479   2.278   6.302 -1.4183  0.2969 -1.0336
12193TIP3    H258071   5.505   2.129   6.292  1.0156  0.5911  0.5205
12194TIP3   OH258072   3.899   5.223  13.414 -0.4329 -0.5959 -0.4491
12194TIP3    H158073   3.918   5.136  13.449 -0.3055 -0.3972 -0.0258
12194TIP3    H258074   3.867   5.273  13.490  3.3254  0.9437  0.1899
12195TIP3   OH258075   4.801   3.603   6.460  0.2410  0.1061 -0.6367
12195TIP3    H158076   4.789   3.620   6.553 -0.3750 -2.0670 -0.2860
12195TIP3    H258077   4.721   3.557   6.434  0.5587  0.3965 -2.1590
12196TIP3   OH258078   1.708   0.139  11.407 -0.3589 -0.1931  0.2372
12196TIP3    H158079   1.776   0.199  11.377  0.7580 -1.5586 -0.0042
12196TIP3    H258080   1.629   0.194  11.414  0.3822  1.0680 -0.9953
12197TIP3   OH258081   3.167   3.247   5.721  0.0452  0.0862  0.1978
12197TIP3    H158082   3.117   3.279   5.796  0.1038  0.0630  0.2468
12197TIP3    H258083   3.202   3.326   5.680 -0.5634  0.1468 -0.2140
12198TIP3   OH258084   6.342   3.022   0.547 -0.2527 -0.3780  0.7133
12198TIP3    H158085   6.294   3.097   0.513  1.6806  0.0076 -1.3018
12198TIP3    H258086   6.319   2.950   0.488  2.9232  0.2356 -1.4037
12199TIP3   OH258087   2.231   1.255   4.653 -0.4126 -0.9453 -0.6028
12199TIP3    H158088   2.291   1.271   4.726  0.2874 -1.7868 -0.9892
12199TIP3    H258089   2.169   1.190   4.685  0.0305 -1.4815 -0.8293
12200TIP3   OH258090   4.563   4.217  10.706 -0.2958 -0.2756 -0.4502
12200TIP3    H158091   4.643   4.256  10.670  0.2372  0.1574  1.1651
12200TIP3    H258092   4.504   4.210  10.631  0.9817  0.1119 -1.5122
12201TIP3   OH258093   0.222   5.861  16.045 -0.2109 -0.5576  0.2026
12201TIP3    H158094   0.209   5.947  16.087 -0.6055 -0.7686  0.5227
12201TIP3    H258095   0.307   5.867  16.003 -1.4849  1.0529 -2.3031
12202TIP3   OH258096   0.989   2.318  13.481  0.7872 -0.0008 -0.2868
12202TIP3    H158097   1.051   2.391  13.490 -0.1350  0.6095  1.2819
12202TIP3    H258098   0.903   2.359  13.479  0.3909 -0.8578 -2.3627
12203TIP3   OH258099   2.865   0.006  16.532 -0.1585  0.1710  0.7804
12203TIP3    H158100   2.866  -0.078  16.487 -1.2496  0.2955  0.4985
12203TIP3    H258101   2.927   0.061  16.484  0.3224 -0.3709  0.7808
12204TIP3   OH258102   0.370   5.681  11.534 -0.2563 -0.3961  0.2032
12204TIP3    H158103   0.359   5.768  11.571 -1.1427  0.0434 -1.0501
12204TIP3    H258104   0.464   5.670  11.524 -0.1992  1.2180 -1.4272
12205TIP3   OH258105   5.361   2.326   5.734  0.3931  0.1699  0.8645
12205TIP3    H158106   5.360   2.259   5.802  0.7428  0.4188  1.1187
12205TIP3    H258107   5.342   2.407   5.780 -0.5763  0.1726  0.4698
12206TIP3   OH258108   1.291   4.944   0.731 -0.2314 -0.7049  0.4665
12206TIP3    H158109   1.211   4.997   0.726  0.2707  0.4795  3.5850
12206TIP3    H258110   1.261   4.859   0.762 -0.5736 -1.0431 -0.7788
12207TIP3   OH258111   3.674   2.914   3.086 -0.6850  0.2754 -0.2839
12207TIP3    H158112   3.623   2.844   3.128  1.3873 -0.6965  0.6965
12207TIP3    H258113   3.763   2.900   3.116 -0.2090  3.3755 -0.1109
12208TIP3   OH258114   1.419   1.152  16.208 -0.0604  0.1386  0.5314
12208TIP3    H158115   1.325   1.135  16.206 -0.2978  1.4615  0.0816
12208TIP3    H258116   1.455   1.102  16.134 -0.3490 -0.6766  0.9381
12209TIP3   OH258117   2.069   5.024  12.149  0.1978  0.0247 -0.0149
12209TIP3    H158118   2.007   5.029  12.077  0.6134  3.4416 -0.2116
12209TIP3    H258119   2.058   4.936  12.184 -2.6553 -0.4289 -1.8956
12210TIP3   OH258120   4.968   4.116  16.891  1.0735  0.3495 -0.0963
12210TIP3    H158121   5.017   4.107  16.972  1.7649 -0.0256 -0.5567
12210TIP3    H258122   4.895   4.054  16.900 -0.4224  2.2686  1.3754
12211TIP3   OH258123   1.092   2.531   1.764  0.2712 -0.4518  0.5299
12211TIP3    H158124   1.037   2.596   1.808  1.7661  0.9233  0.4302
12211TIP3    H258125   1.083   2.452   1.817 -0.6542  0.1883  1.3425
12212TIP3   OH258126   2.650   6.630   5.143 -0.2160 -0.3459  0.8685
12212TIP3    H158127   2.681   6.673   5.063 -1.2525 -0.5164  0.3739
12212TIP3    H258128   2.590   6.562   5.113 -0.1874 -0.7799  1.7628
12213TIP3   OH258129   4.683   5.826  12.114 -0.3584  0.2151 -0.1722
12213TIP3    H158130   4.728   5.743  12.096 -0.0710  0.4875 -0.7208
12213TIP3    H258131   4.743   5.874  12.170 -1.0512 -0.4411  1.1498
12214TIP3   OH258132   2.797   2.197   5.743 -0.5591  0.1438  0.1641
12214TIP3    H158133   2.802   2.104   5.718  0.2573 -0.2461  1.7242
12214TIP3    H258134   2.704   2.217   5.742 -0.7554 -0.7458 -0.0256
12215TIP3   OH258135   1.560   4.284  15.858  0.4079 -0.0488 -0.5214
12215TIP3    H158136   1.512   4.333  15.792  0.7662 -0.8482 -1.3904
12215TIP3    H258137   1.507   4.291  15.937 -0.0364  0.8992 -0.9028
12216TIP3   OH258138   3.350   6.478   2.574 -1.0449 -0.1864 -0.7600
12216TIP3    H158139   3.370   6.567   2.603 -3.1488  0.4868 -1.3308
12216TIP3    H258140   3.302   6.439   2.647 -1.6298 -0.2781 -1.1877
12217TIP3   OH258141   1.985   5.571  11.745 -0.4941 -0.4306  0.1051
12217TIP3    H158142   2.000   5.665  11.735 -0.7851 -0.3443  0.4550
12217TIP3    H258143   2.007   5.534  11.660  0.6431 -0.1757  0.2921
12218TIP3   OH258144   6.312   0.939   2.768 -0.6947  0.2762 -0.1331
12218TIP3    H158145   6.234   0.980   2.731 -1.3143 -0.9419 -0.1965
12218TIP3    H258146   6.297   0.942   2.863 -0.1423  1.3643 -0.0769
12219TIP3   OH258147   3.856   1.165  14.705  0.1681  0.4577  0.0684
12219TIP3    H158148   3.866   1.074  14.732  0.4167  0.2683 -0.6584
12219TIP3    H258149   3.828   1.210  14.785  0.2709 -0.2088  0.4891
12220TIP3   OH258150   0.309   0.624  13.783  0.2660 -0.0059 -0.9025
12220TIP3    H158151   0.379   0.686  13.764 -0.3783  1.1143  0.2531
12220TIP3    H258152   0.243   0.641  13.716 -0.2715  1.1585 -0.0916
12221TIP3   OH258153   4.384   0.343   2.902  0.5024  0.3043 -0.5309
12221TIP3    H158154   4.401   0.268   2.959 -0.4785 -0.8737 -1.7538
12221TIP3    H258155   4.470   0.366   2.866  0.9548  0.3645  0.5641
12222TIP3   OH258156   2.682   4.056  13.723  0.2229 -0.5668  0.2745
12222TIP3    H158157   2.587   4.053  13.728  0.1274  2.0132  0.5919
12222TIP3    H258158   2.703   4.149  13.717  2.6260 -1.2171 -2.0912
12223TIP3   OH258159   0.433   5.540  13.239  0.1424  0.3397 -0.2101
12223TIP3    H158160   0.412   5.462  13.291  0.3419  0.3639 -0.0921
12223TIP3    H258161   0.348   5.581  13.222 -0.0716 -0.5927 -1.3628
12224TIP3   OH258162   4.129   2.891  12.634 -0.6334 -0.5950 -0.6669
12224TIP3    H158163   4.052   2.854  12.677 -1.5712  1.5225 -0.4542
12224TIP3    H258164   4.187   2.817  12.621 -1.6821 -1.8147  1.3748
12225TIP3   OH258165   4.571   6.150  12.866 -0.2035  0.8120  0.4446
12225TIP3    H158166   4.662   6.122  12.859 -0.6401 -0.8229  1.0642
12225TIP3    H258167   4.544   6.120  12.953 -2.2506 -1.4845 -0.9268
12226TIP3   OH258168   3.780   5.282   0.343 -0.3163  0.3057 -0.1972
12226TIP3    H158169   3.710   5.254   0.402 -0.0852  2.3769  1.1059
12226TIP3    H258170   3.791   5.209   0.282 -1.6580 -1.2147  1.3429
12227TIP3   OH258171   3.077   1.207  14.734  0.0624 -0.3025  0.9337
12227TIP3    H158172   3.117   1.169  14.812  0.8222  0.1649  0.7758
12227TIP3    H258173   3.150   1.247  14.686 -0.3532 -0.8092 -0.1441
12228TIP3   OH258174   5.314   2.650   0.487  0.7474 -0.0370  0.3440
12228TIP3    H158175   5.325   2.687   0.574  3.9563 -1.2824  0.5211
12228TIP3    H258176   5.310   2.726   0.429  0.4376  0.7495  1.3743
12229TIP3   OH258177   3.967   1.180   4.684  0.5043  0.0632 -0.0846
12229TIP3    H158178   4.049   1.228   4.693 -0.1351  0.7019  2.6973
12229TIP3    H258179   3.967   1.118   4.757 -1.5253  0.1445  0.0157
12230TIP3   OH258180   2.082   0.108  16.690  0.6175 -0.6055 -0.3786
12230TIP3    H158181   2.008   0.058  16.656 -1.0358  1.4850  0.0021
12230TIP3    H258182   2.129   0.138  16.612  1.3470 -2.2878 -0.6158
12231TIP3   OH258183   4.338   2.268   4.203 -0.5486 -0.2466 -0.3678
12231TIP3    H158184   4.385   2.226   4.275 -0.0424 -0.2630 -0.7046
12231TIP3    H258185   4.248   2.238   4.212  0.3377 -3.6267 -2.2640
12232TIP3   OH258186   5.343   3.057  16.562 -0.2270  0.1543  0.2221
12232TIP3    H158187   5.360   2.963  16.557 -1.4772  0.0098 -2.0683
12232TIP3    H258188   5.298   3.068  16.646 -0.4860 -1.3786  0.3080
12233TIP3   OH258189   5.411   0.143  17.074  0.0674 -0.1798  0.0230
12233TIP3    H158190   5.502   0.159  17.098  0.2198 -1.8625  0.6088
12233TIP3    H258191   5.383   0.225  17.033  1.4637  0.7841  0.9463
12234TIP3   OH258192   1.011   1.877  14.306 -0.1162  0.0127 -0.6644
12234TIP3    H158193   1.061   1.824  14.368 -1.9074  0.0461  0.8447
12234TIP3    H258194   1.030   1.967  14.331 -0.6996  0.0273 -0.2565
12235TIP3   OH258195   3.696   0.896   0.567 -0.5536  0.5784 -0.1235
12235TIP3    H158196   3.741   0.934   0.642  0.5957  0.2388 -0.6168
12235TIP3    H258197   3.737   0.810   0.556 -1.8199 -0.0416 -0.1605
12236TIP3   OH258198   2.898   2.760  16.255 -0.0232  0.5788 -0.0766
12236TIP3    H158199   2.821   2.707  16.274  1.1751 -1.2644 -0.2187
12236TIP3    H258200   2.884   2.841  16.304 -2.2124  0.4385 -0.4104
12237TIP3   OH258201   5.582   6.099  11.290 -0.1145 -0.0424 -0.0231
12237TIP3    H158202   5.619   6.094  11.379 -1.9444  0.0293  0.7646
12237TIP3    H258203   5.624   6.176  11.252 -0.3554  0.7505  1.2827
12238TIP3   OH258204   5.599   4.239   4.580  0.1784 -0.1881 -0.6207
12238TIP3    H158205   5.543   4.314   4.598  0.4984  0.2322 -1.3824
12238TIP3    H258206   5.551   4.187   4.516  0.0249 -0.5684 -0.2069
12239TIP3   OH258207   4.899   0.559   3.106 -0.5567 -0.3096 -0.4840
12239TIP3    H158208   4.834   0.612   3.154 -0.2909 -0.7236  0.3318
12239TIP3    H258209   4.963   0.623   3.074 -1.0666  0.0382 -0.8264
12240TIP3   OH258210   4.503   0.189  15.435  0.1168 -0.8093 -0.5261
12240TIP3    H158211   4.472   0.223  15.351 -1.1041  0.8912  0.5958
12240TIP3    H258212   4.462   0.103  15.442 -2.5280  0.4136 -0.1685
12241TIP3   OH258213   4.925   2.043   6.721 -0.2781  0.5599 -0.1781
12241TIP3    H158214   5.016   2.067   6.738 -0.5133  1.1250  0.3394
12241TIP3    H258215   4.897   2.105   6.654  0.5162 -1.3822 -2.3682
12242TIP3   OH258216   6.265   4.462   3.415  0.5759  0.0976 -0.3363
12242TIP3    H158217   6.302   4.418   3.339  0.5034 -0.5871  0.0176
12242TIP3    H258218   6.314   4.544   3.422  2.1611 -0.8797  0.2236
12243TIP3   OH258219   1.133   3.878   2.396  0.0708 -0.4485  0.7192
12243TIP3    H158220   1.205   3.933   2.427 -0.9099  0.3254  1.6503
12243TIP3    H258221   1.102   3.921   2.316  0.0755 -0.3038  0.7954
12244TIP3   OH258222   6.791   3.983  13.949  0.2986  0.0836  0.0268
12244TIP3    H158223   6.767   4.045  13.880 -1.2959 -0.1809  0.3162
12244TIP3    H258224   6.886   3.983  13.949  0.3217  0.3031 -1.9725
12245TIP3   OH258225   1.527   4.796   1.495 -0.4806 -0.9914 -0.8720
12245TIP3    H158226   1.518   4.725   1.558 -1.3474  0.1938  0.3626
12245TIP3    H258227   1.437   4.820   1.473 -0.1931 -0.4500 -1.4747
12246TIP3   OH258228   0.429   2.758   0.636 -0.4351  0.2836  0.2443
12246TIP3    H158229   0.375   2.802   0.701 -2.5914  0.2304 -1.4520
12246TIP3    H258230   0.373   2.688   0.602  0.4364  0.6601 -2.0479
12247TIP3   OH258231   2.394   5.437   2.437  0.6531 -0.2221  0.4313
12247TIP3    H158232   2.373   5.393   2.354 -0.1106 -0.1077  0.5622
12247TIP3    H258233   2.455   5.506   2.412 -1.3309  1.2962 -0.3945
12248TIP3   OH258234   2.445   0.998   3.510  0.0713  0.2655 -0.0152
12248TIP3    H158235   2.368   0.959   3.550 -0.7049  0.0515 -1.6613
12248TIP3    H258236   2.431   1.093   3.519 -0.7296  0.2444 -0.8944
12249TIP3   OH258237   5.431   3.359   0.521 -0.5393  0.2702 -0.1078
12249TIP3    H158238   5.343   3.323   0.531 -1.5076  2.0875 -1.6377
12249TIP3    H258239   5.446   3.407   0.602 -1.6482  1.2955 -0.4834
12250TIP3   OH258240   0.195   1.397  15.914 -0.2256 -0.1017  0.2193
12250TIP3    H158241   0.270   1.348  15.881  0.5341 -0.2173  2.0473
12250TIP3    H258242   0.136   1.330  15.949 -0.2898  0.1208  0.5432
12251TIP3   OH258243   0.170   5.484   2.043 -0.1737 -0.4371  0.1528
12251TIP3    H158244   0.085   5.495   2.085  1.0090 -1.0979  2.8385
12251TIP3    H258245   0.218   5.564   2.064  0.6259 -1.0031  0.4970
12252TIP3   OH258246   3.910   6.015  13.016 -0.0140  0.5797 -0.3626
12252TIP3    H158247   3.923   5.929  13.057 -2.0395  0.8692  0.9882
12252TIP3    H258248   3.868   5.995  12.932  1.9159  0.1190 -1.2358
12253TIP3   OH258249   2.412   1.914  13.639  0.0857  0.1123 -0.1757
12253TIP3    H158250   2.319   1.937  13.647 -0.4071 -2.0736  0.7587
12253TIP3    H258251   2.458   1.997  13.654 -1.7189  1.5734 -2.2779
12254TIP3   OH258252   1.759   4.391  14.043  0.0825 -0.0571  0.4881
12254TIP3    H158253   1.773   4.485  14.051 -0.5825  0.1176 -0.3950
12254TIP3    H258254   1.678   4.374  14.091  1.1168 -0.4550  2.1350
12255TIP3   OH258255   0.637   3.125   3.152  0.3073  0.4493 -0.1374
12255TIP3    H158256   0.725   3.161   3.162  0.7722 -0.9341  0.9351
12255TIP3    H258257   0.644   3.066   3.076  0.5412 -0.3484  0.4994
12256TIP3   OH258258   4.549   6.529  12.592  0.2460 -0.0009  0.2778
12256TIP3    H158259   4.604   6.512  12.670 -0.9633 -0.7404  0.9866
12256TIP3    H258260   4.483   6.460  12.594  0.8777 -0.7184 -2.0653
12257TIP3   OH258261   5.321   2.025   1.178 -1.1378  0.1584  0.0649
12257TIP3    H158262   5.307   1.937   1.214 -3.1910  0.6468  0.5632
12257TIP3    H258263   5.294   2.017   1.086  1.3869 -0.4027 -0.6441
12258TIP3   OH258264   1.054   3.307  13.715 -0.3770 -0.2371  0.0816
12258TIP3    H158265   1.130   3.251  13.701  0.5519  0.4167  2.3686
12258TIP3    H258266   1.043   3.354  13.633  1.0623 -1.0689 -0.5974
12259TIP3   OH258267   1.036   2.789  15.997 -0.1942  0.3719 -0.2431
12259TIP3    H158268   1.039   2.712  15.940 -1.5006 -0.3160  0.5888
12259TIP3    H258269   1.014   2.861  15.938 -2.6125 -0.5105 -0.4688
12260TIP3   OH258270   0.779   6.066   6.092 -0.7737  0.2514  0.1498
12260TIP3    H158271   0.834   6.083   6.168  0.1235  1.0744 -0.6703
12260TIP3    H258272   0.782   6.147   6.041 -0.0108 -0.8420 -1.5989
12261TIP3   OH258273   2.005   1.408   6.682  0.2535 -0.2237 -0.1859
12261TIP3    H158274   2.044   1.334   6.637 -0.0519 -0.1823 -0.5225
12261TIP3    H258275   2.027   1.395   6.774 -0.7400 -1.3099 -0.0981
12262TIP3   OH258276   5.651   1.844  13.879 -0.2679 -0.3694  0.7094
12262TIP3    H158277   5.599   1.921  13.903 -1.2472 -0.2958 -1.5429
12262TIP3    H258278   5.591   1.771  13.888  0.0590 -0.6283  0.7977
12263TIP3   OH258279   4.599   5.152   5.415 -0.1182 -0.2848  0.5746
12263TIP3    H158280   4.586   5.219   5.348 -1.9631  2.0629  3.1591
12263TIP3    H258281   4.511   5.117   5.432  0.7068 -2.8471 -0.1533
12264TIP3   OH258282   5.075   5.983   2.982 -0.5306  0.4533  0.3504
12264TIP3    H158283   5.151   5.972   2.923 -1.1820 -0.9325 -0.2691
12264TIP3    H258284   5.103   6.048   3.046  1.6045 -0.8665  0.7983
12265TIP3   OH258285   6.739   3.131   3.648  0.1016  0.1306  0.7227
12265TIP3    H158286   6.814   3.183   3.618 -1.7871  1.3888 -2.0676
12265TIP3    H258287   6.749   3.046   3.605  0.7030 -0.1916  1.5070
12266TIP3   OH258288   2.049   0.451  10.906  0.6345  0.3651 -0.2809
12266TIP3    H158289   2.053   0.547  10.912  0.3356  0.3332  0.4914
12266TIP3    H258290   1.955   0.431  10.913  0.5398  0.1047 -1.9767
12267TIP3   OH258291   4.846   1.874  12.535 -0.0765  0.1269  0.2258
12267TIP3    H158292   4.764   1.891  12.488  0.4624 -1.8460 -1.5214
12267TIP3    H258293   4.839   1.782  12.560  1.7207 -0.1277 -0.1711
12268TIP3   OH258294   0.116   2.646  12.999 -0.2295  0.1138  0.4833
12268TIP3    H158295   0.173   2.573  12.972 -0.7165  0.2694 -1.0345
12268TIP3    H258296   0.146   2.720  12.947 -1.2164  0.4204  0.3361
12269TIP3   OH258297   6.721   1.498  14.224 -0.1927 -0.1904  0.1344
12269TIP3    H158298   6.711   1.424  14.285 -0.3943  0.7523  1.2545
12269TIP3    H258299   6.633   1.535  14.217  0.2531  1.0884  1.0500
12270TIP3   OH258300   3.734   5.552  11.106  0.4782  0.7165  0.1776
12270TIP3    H158301   3.777   5.638  11.105 -0.4236  1.1877  0.7247
12270TIP3    H258302   3.664   5.560  11.041 -0.0844  0.6516  0.7673
12271TIP3   OH258303   4.928   5.386  11.932  0.6512 -0.0667 -0.7799
12271TIP3    H158304   4.908   5.307  11.982  0.0255 -0.2505 -1.3113
12271TIP3    H258305   4.855   5.394  11.871 -0.1316  1.8330  0.3729
12272TIP3   OH258306   6.463   4.847   1.175 -0.0929  0.0286 -0.6771
12272TIP3    H158307   6.394   4.908   1.201 -1.8203 -2.0615 -0.1271
12272TIP3    H258308   6.518   4.896   1.114 -1.1880  2.2212  0.0553
12273TIP3   OH258309   3.359   2.182  16.583  0.3243 -0.0522 -0.6923
12273TIP3    H158310   3.424   2.210  16.519  1.6504 -1.3869  0.0398
12273TIP3    H258311   3.355   2.254  16.646  2.3371 -0.6705  0.1701
12274TIP3   OH258312   3.123   0.242  15.279  0.6007  0.5244  0.0644
12274TIP3    H158313   3.137   0.325  15.235  0.5409  1.0050  0.9463
12274TIP3    H258314   3.165   0.177  15.222  0.0449  1.0594 -0.9705
12275TIP3   OH258315   6.535   3.565   4.617  0.6174  0.0481 -0.1594
12275TIP3    H158316   6.489   3.556   4.701 -1.2097  1.5832 -0.9599
12275TIP3    H258317   6.571   3.478   4.600  0.5010 -0.4404  1.9176
12276TIP3   OH258318   0.203   5.664   6.010  0.1401  0.3215  1.0494
12276TIP3    H158319   0.262   5.589   6.016 -0.6395 -0.2117  2.2494
12276TIP3    H258320   0.151   5.648   5.931  1.4411  0.6910  0.0939
12277TIP3   OH258321   4.479   0.471   1.616  0.7352  0.3388 -0.2768
12277TIP3    H158322   4.570   0.475   1.587  1.8033 -0.7477  2.7536
12277TIP3    H258323   4.460   0.560   1.646  0.1681  1.0358 -2.6314
12278TIP3   OH258324   4.544   3.724  16.689 -0.1556 -0.6185  0.0776
12278TIP3    H158325   4.543   3.817  16.711 -0.7413 -0.7544  0.6580
12278TIP3    H258326   4.637   3.700  16.687  0.0484  0.2276 -1.1827
12279TIP3   OH258327   2.732   1.749  11.576  0.1464 -0.3863 -0.0506
12279TIP3    H158328   2.798   1.802  11.531 -1.5270 -0.2655 -2.4591
12279TIP3    H258329   2.783   1.691  11.633  2.3269 -0.1078 -1.6437
12280TIP3   OH258330   5.105   4.224  16.421  0.1881  0.0463  0.0099
12280TIP3    H158331   5.168   4.175  16.368 -1.6491 -0.4894 -1.7428
12280TIP3    H258332   5.076   4.162  16.488  0.8686  0.0032  0.2609
12281TIP3   OH258333   0.030   2.380  11.950  0.0046  0.0313 -0.5781
12281TIP3    H158334   0.017   2.328  11.871  0.8984 -2.1943  0.7019
12281TIP3    H258335   0.122   2.409  11.945 -0.9435  2.9901 -2.1193
12282TIP3   OH258336   5.543   2.245  12.737 -0.0132 -0.2323  0.1331
12282TIP3    H158337   5.493   2.164  12.734 -0.0800 -0.2209  0.8704
12282TIP3    H258338   5.613   2.232  12.673  0.4157 -1.1688  0.7692
12283TIP3   OH258339   0.715   1.291   2.559 -0.4045  0.3706  0.2666
12283TIP3    H158340   0.700   1.288   2.464 -0.0923  1.2258  0.1850
12283TIP3    H258341   0.665   1.366   2.589 -0.7273 -0.0674  0.8289
12284TIP3   OH258342   3.040   1.264   0.870  0.2480  0.0559 -0.2652
12284TIP3    H158343   2.999   1.178   0.861  0.3841  0.0287 -0.6129
12284TIP3    H258344   2.971   1.320   0.905  0.1396 -0.1757 -0.1027
12285TIP3   OH258345   4.704   3.027  11.638  0.3196 -0.0339 -0.2794
12285TIP3    H158346   4.623   3.024  11.690  0.8126 -1.5793  0.4329
12285TIP3    H258347   4.673   3.039  11.548 -0.8728 -2.9439 -0.3149
12286TIP3   OH258348   0.194   0.170   1.233 -0.6357 -0.6255  0.8882
12286TIP3    H158349   0.284   0.167   1.200 -1.5094 -0.3868 -1.6289
12286TIP3    H258350   0.165   0.079   1.232 -0.6778 -0.6137  0.9982
12287TIP3   OH258351   3.646   5.421  14.252  0.4511  0.3248  0.2681
12287TIP3    H158352   3.628   5.494  14.192  1.6058  2.6674  2.6883
12287TIP3    H258353   3.608   5.448  14.335  0.0177 -2.3121  0.9820
12288TIP3   OH258354   2.788   2.585  15.639  0.0828 -0.2393 -0.2831
12288TIP3    H158355   2.787   2.491  15.658  1.3698 -0.3755 -0.7897
12288TIP3    H258356   2.878   2.612  15.658  0.0970  0.6084 -1.4911
12289TIP3   OH258357   5.630   5.049   4.406 -0.1699 -0.0876  0.1656
12289TIP3    H158358   5.555   5.083   4.455  0.3177  1.4066 -0.1134
12289TIP3    H258359   5.652   5.118   4.343  0.8446 -0.9099 -0.4043
12290TIP3   OH258360   0.845   0.152   3.720  0.1721 -0.3631  0.8538
12290TIP3    H158361   0.844   0.104   3.637  1.7501 -1.0220  1.2090
12290TIP3    H258362   0.867   0.242   3.695 -1.4848 -0.0720  0.3380
12291TIP3   OH258363   0.656   5.163   3.741 -0.2410  0.3771 -0.1908
12291TIP3    H158364   0.624   5.246   3.706 -0.9363 -0.0733 -0.6400
12291TIP3    H258365   0.707   5.125   3.669  1.5269  1.2105  0.6115
12292TIP3   OH258366   4.189   4.057  13.084  0.4625 -0.3783  0.3671
12292TIP3    H158367   4.281   4.077  13.065  0.2767 -0.2053 -0.3511
12292TIP3    H258368   4.189   3.963  13.104  0.7835 -0.3910  0.3108
12293TIP3   OH258369   1.166   4.856  13.820  0.1356  0.0182 -0.1218
12293TIP3    H158370   1.182   4.864  13.914  2.9108  0.8915 -0.6379
12293TIP3    H258371   1.182   4.943  13.785  0.6502 -0.6612 -1.6057
12294TIP3   OH258372   1.386   5.418   2.304 -0.1497 -0.1411  0.6870
12294TIP3    H158373   1.408   5.411   2.397 -1.0441  1.2160  1.0258
12294TIP3    H258374   1.448   5.482   2.270  0.0120 -0.4451  0.4207
12295TIP3   OH258375   6.496   0.814   0.345 -0.0768 -0.4640  0.2258
12295TIP3    H158376   6.547   0.881   0.299 -0.9196 -0.3558 -0.5752
12295TIP3    H258377   6.511   0.831   0.437 -0.2840  0.8486  0.0288
12296TIP3   OH258378   2.986   6.070  10.871  0.3834  0.3199  0.1330
12296TIP3    H158379   3.077   6.057  10.842  0.2007  1.1727 -0.8273
12296TIP3    H258380   2.935   6.013  10.814  0.2714  0.1217  0.4291
12297TIP3   OH258381   3.781   2.432   1.299 -0.2467  0.5172 -0.4001
12297TIP3    H158382   3.808   2.511   1.252  1.8605  0.8450  1.2792
12297TIP3    H258383   3.798   2.452   1.391 -1.2306 -1.3147  0.2102
12298TIP3   OH258384   2.210   5.464  12.667 -0.4382 -0.2611  0.0143
12298TIP3    H158385   2.192   5.380  12.624  0.6863 -0.9139  0.7864
12298TIP3    H258386   2.304   5.476  12.659 -0.6985  1.3339 -0.7810
12299TIP3   OH258387   5.654   3.134  16.253  0.1322  0.8971  0.8388
12299TIP3    H158388   5.625   3.138  16.161 -0.5749 -0.7157  0.9678
12299TIP3    H258389   5.603   3.202  16.297 -0.0750  1.1855  0.1592
12300TIP3   OH258390   4.692   3.941  13.647 -0.0166  0.3595  0.1070
12300TIP3    H158391   4.608   3.946  13.600  0.4460 -0.8845 -0.8987
12300TIP3    H258392   4.757   3.970  13.583  0.2805  1.7786  1.0406
12301TIP3   OH258393   6.290   1.932   1.759 -0.0105 -0.0546 -0.3282
12301TIP3    H158394   6.335   1.863   1.807  0.2801  0.6325  0.3924
12301TIP3    H258395   6.345   2.009   1.772 -0.2251  0.2622 -1.3050
12302TIP3   OH258396   6.636   6.753  14.023  0.3378 -0.1778  0.2844
12302TIP3    H158397   6.693   6.719  14.092 -0.1744 -0.6102  0.4968
12302TIP3    H258398   6.628   6.847  14.042  2.1333  0.1674 -0.5738
12303TIP3   OH258399   3.718   5.590   1.409 -0.3314 -0.3595 -0.1601
12303TIP3    H158400   3.779   5.517   1.399  0.1824 -0.0256  0.4874
12303TIP3    H258401   3.655   5.559   1.475  0.0654 -0.1047  0.3407
12304TIP3   OH258402   0.957   4.972  12.395  0.1746 -0.4674 -0.0943
12304TIP3    H158403   1.017   4.968  12.470  1.3296 -0.6165 -1.0001
12304TIP3    H258404   0.961   4.884  12.357 -2.9591 -1.4119  1.5666
12305TIP3   OH258405   5.402   3.674  14.471  0.2591  0.4828  0.2785
12305TIP3    H158406   5.379   3.626  14.391  0.1104  1.2717 -0.1537
12305TIP3    H258407   5.320   3.679  14.520  0.2167  0.5352  0.2015
12306TIP3   OH258408   1.669   3.169   3.557 -0.2022  0.2765  0.0900
12306TIP3    H158409   1.763   3.179   3.575 -0.4775  0.4836  1.4293
12306TIP3    H258410   1.639   3.258   3.538 -0.2117  0.2699  0.0741
12307TIP3   OH258411   1.875   1.935  12.281  0.1815  0.0371  0.0433
12307TIP3    H158412   1.878   1.906  12.372  0.0399 -1.1952 -0.3391
12307TIP3    H258413   1.783   1.954  12.265  0.1279 -0.2491  0.0065
12308TIP3   OH258414   4.222   3.216   6.322 -0.0330  0.4288  0.1021
12308TIP3    H158415   4.236   3.126   6.291  0.1637  0.6037 -0.3189
12308TIP3    H258416   4.185   3.205   6.409 -1.2203 -0.0861 -0.4460
12309TIP3   OH258417   6.654   2.076  15.090 -0.2333  0.1469  0.2290
12309TIP3    H158418   6.580   2.055  15.033 -0.5460  1.0961  0.2835
12309TIP3    H258419   6.637   2.028  15.171 -0.2965 -0.4082 -0.1133
12310TIP3   OH258420   2.853   6.324  10.299  0.4661 -0.2323 -0.5418
12310TIP3    H158421   2.943   6.314  10.330  0.4337 -0.3049 -0.4723
12310TIP3    H258422   2.862   6.339  10.205  0.5392 -0.4831 -0.5766
12311TIP3   OH258423   1.279   2.592  15.573  0.1465 -1.3068 -0.1100
12311TIP3    H158424   1.275   2.574  15.479  0.3020  0.2355 -0.4184
12311TIP3    H258425   1.329   2.672  15.581 -0.1425 -1.2377  1.2803
12312TIP3   OH258426   2.252   5.786   5.745 -0.3640 -0.3837 -0.2320
12312TIP3    H158427   2.224   5.820   5.660 -0.6189  0.0883  0.0392
12312TIP3    H258428   2.334   5.741   5.727  0.8872  1.8343 -0.3183
12313TIP3   OH258429   0.284   2.746   2.838  0.2769  0.2472 -1.3624
12313TIP3    H158430   0.305   2.825   2.888  0.2872  0.0962 -1.1325
12313TIP3    H258431   0.272   2.678   2.903  0.1280  0.0889 -1.5550
12314TIP3   OH258432   0.824   1.152   3.663  0.4308  0.6281  0.0075
12314TIP3    H158433   0.729   1.152   3.648  0.6778 -0.9950 -1.7771
12314TIP3    H258434   0.833   1.151   3.759 -1.3434  0.7850  0.1919
12315TIP3   OH258435   6.293   2.193  13.079 -0.1877 -0.1271  0.0231
12315TIP3    H158436   6.293   2.130  13.151 -1.5991  0.2387  0.3681
12315TIP3    H258437   6.260   2.144  13.004  1.5356 -0.5797 -0.4589
12316TIP3   OH258438   3.141   6.168  11.480  0.4494  0.1126 -0.1156
12316TIP3    H158439   3.162   6.079  11.451 -0.9857 -0.0488 -0.7154
12316TIP3    H258440   3.135   6.218  11.399 -1.5315  0.1195  0.0094
12317TIP3   OH258441   2.050   2.627  16.433 -0.2799 -0.1882 -0.0976
12317TIP3    H158442   2.069   2.541  16.471 -0.9406  0.7832  2.4941
12317TIP3    H258443   2.029   2.683  16.508 -0.2678  2.1438 -1.7835
12318TIP3   OH258444   4.477   2.247  12.107  0.0253 -0.3708  0.5329
12318TIP3    H158445   4.443   2.293  12.030 -0.8904  0.3385  1.3557
12318TIP3    H258446   4.550   2.195  12.073  0.1987  0.6198 -0.6550
12319TIP3   OH258447   0.854   2.070  11.679  0.2233 -0.2962 -0.4802
12319TIP3    H158448   0.816   2.004  11.737  0.0453  0.0935 -0.1541
12319TIP3    H258449   0.803   2.062  11.598 -1.5125  1.1698  0.4267
12320TIP3   OH258450   3.511   4.069  16.745 -0.7449 -0.1195 -0.1161
12320TIP3    H158451   3.431   4.115  16.717 -0.1408  1.8417  1.3121
12320TIP3    H258452   3.582   4.120  16.707 -0.0983 -0.7194  0.2800
12321TIP3   OH258453   3.799   2.905  15.691 -0.0717  0.4679 -0.2499
12321TIP3    H158454   3.785   2.833  15.630 -0.6298  0.4873 -0.1497
12321TIP3    H258455   3.894   2.917  15.694 -0.1191  1.5185 -2.3179
12322TIP3   OH258456   4.551   0.979   5.803 -0.2801  0.8651  0.9149
12322TIP3    H158457   4.572   0.889   5.778 -1.4838 -0.0408  2.9749
12322TIP3    H258458   4.587   0.988   5.892 -2.6658  1.4446  1.8581
12323TIP3   OH258459   5.306   4.510   5.169  0.5829  0.7450 -0.6519
12323TIP3    H158460   5.247   4.450   5.123  1.3239  0.3870 -1.1461
12323TIP3    H258461   5.301   4.591   5.119 -0.0747  0.9551 -0.2468
12324TIP3   OH258462   3.650   6.229  11.578  0.0027  0.2738 -0.3598
12324TIP3    H158463   3.558   6.243  11.556  0.3094  1.5624 -0.8725
12324TIP3    H258464   3.670   6.142  11.543 -1.2620 -0.4245  0.5836
12325TIP3   OH258465   3.512   0.736   3.661 -0.1412 -0.3595  0.3476
12325TIP3    H158466   3.589   0.685   3.689 -0.4322 -1.7218 -1.2496
12325TIP3    H258467   3.549   0.813   3.619  0.3348 -0.1980  1.0525
12326TIP3   OH258468   2.003   2.606   5.433  0.4423 -0.2204 -0.2128
12326TIP3    H158469   1.934   2.658   5.472 -0.2966 -0.4093 -1.2514
12326TIP3    H258470   1.990   2.518   5.468  0.7602 -0.0377  0.3607
12327TIP3   OH258471   2.631   4.645   0.358  0.5762 -0.0862 -0.3516
12327TIP3    H158472   2.604   4.623   0.269  1.2152 -1.4263 -0.2318
12327TIP3    H258473   2.681   4.726   0.348  1.6382 -0.8487 -1.3881
12328TIP3   OH258474   4.951   1.998   4.189 -0.4533  0.1237  0.1576
12328TIP3    H158475   4.871   2.015   4.139 -1.4320 -1.4330  1.1385
12328TIP3    H258476   4.976   1.908   4.164  1.2094  0.7259 -0.4320
12329TIP3   OH258477   6.676   1.192  16.327 -0.2258 -1.1695  0.7241
12329TIP3    H158478   6.747   1.142  16.286  1.1658  0.5905  0.9391
12329TIP3    H258479   6.658   1.145  16.408  1.5900 -0.9231  1.2971
12330TIP3   OH258480   5.421   5.771  12.377  0.4413  0.1377  0.5603
12330TIP3    H158481   5.387   5.688  12.410 -0.6423  0.6287  0.7045
12330TIP3    H258482   5.501   5.786  12.427  0.3195 -0.5136  0.9568
12331TIP3   OH258483   0.545   6.383   5.751 -0.3026  0.2062  0.0054
12331TIP3    H158484   0.627   6.428   5.770  0.1992 -1.4367  2.0778
12331TIP3    H258485   0.477   6.450   5.761  0.6165  1.0788  0.4825
12332TIP3   OH258486   3.988   3.821   2.514  0.3227  0.4427  0.4706
12332TIP3    H158487   3.971   3.774   2.595 -2.2795  1.2828  0.4501
12332TIP3    H258488   3.974   3.756   2.445 -1.5405  0.7576  0.5253
12333TIP3   OH258489   6.021   6.721  14.738 -0.3327  0.0975  0.2826
12333TIP3    H158490   6.088   6.789  14.747  1.2129 -1.4214  0.4560
12333TIP3    H258491   5.991   6.705  14.827 -1.4824  1.3002  0.1285
12334TIP3   OH258492   0.905   4.671   5.730  0.7172  0.0791  0.3247
12334TIP3    H158493   0.893   4.578   5.713 -0.1132  0.0209  1.2130
12334TIP3    H258494   0.998   4.687   5.713  0.9406 -0.9832  0.5259
12335TIP3   OH258495   6.104   1.473   5.612  0.1843 -0.2370  0.3974
12335TIP3    H158496   6.122   1.501   5.702 -0.8216  0.3712  0.4173
12335TIP3    H258497   6.031   1.528   5.584  1.3849  0.5439 -1.2718
12336TIP3   OH258498   5.784   4.328   4.403  0.0143  0.6664  0.7660
12336TIP3    H158499   5.715   4.307   4.466  0.1592  0.7825  0.9640
12336TIP3    H258500   5.755   4.288   4.321  1.7308 -3.0560  1.8197
12337TIP3   OH258501   0.027   2.267  16.228 -0.5996  0.0573 -0.0562
12337TIP3    H158502   0.027   2.337  16.162 -0.9173 -2.6802 -3.0714
12337TIP3    H258503  -0.065   2.260  16.255 -0.8298 -0.2261 -0.8912
12338TIP3   OH258504   2.113   3.736   2.903 -0.4843 -0.0518 -0.3513
12338TIP3    H158505   2.022   3.732   2.931 -0.1510  0.7787  0.9026
12338TIP3    H258506   2.144   3.821   2.935  1.2327 -1.0799  0.7588
12339TIP3   OH258507   2.729   5.508   5.481 -0.5961  0.5040 -0.1621
12339TIP3    H158508   2.746   5.602   5.480  1.3980  0.1757  0.6657
12339TIP3    H258509   2.691   5.491   5.567  0.8543  0.2806  0.4550
12340TIP3   OH258510   3.533   5.211  16.997 -0.1943  0.5613  0.5471
12340TIP3    H158511   3.521   5.294  16.952 -2.6596 -0.5657 -0.9836
12340TIP3    H258512   3.628   5.202  17.006  0.2469  2.0369 -2.1124
12341TIP3   OH258513   5.546   1.536   4.543 -0.5465  0.0330 -0.0302
12341TIP3    H158514   5.489   1.536   4.619 -0.7352 -0.5204 -0.1674
12341TIP3    H258515   5.624   1.487   4.571 -0.1553  0.7445  0.1417
12342TIP3   OH258516   4.093   4.457   6.763  0.0859 -0.2338 -0.2369
12342TIP3    H158517   4.176   4.426   6.800 -0.3374 -0.0030  0.9286
12342TIP3    H258518   4.046   4.377   6.740 -0.6121 -0.4689  1.8855
12343TIP3   OH258519   3.220   5.883   0.165 -0.3872  0.2757 -0.4901
12343TIP3    H158520   3.261   5.959   0.124  1.3823 -0.3643  0.0352
12343TIP3    H258521   3.151   5.857   0.105 -0.4943  1.8204 -1.0542
12344TIP3   OH258522   0.305   4.949  11.849 -0.2386 -0.1687 -0.0762
12344TIP3    H158523   0.246   4.983  11.916  0.3799 -0.5943  0.6976
12344TIP3    H258524   0.281   4.857  11.838  0.6084 -0.4856  0.6237
12345TIP3   OH258525   3.230   5.906  15.516  0.0936 -0.3190  0.1775
12345TIP3    H158526   3.244   5.821  15.557  0.0684 -0.7491 -0.6811
12345TIP3    H258527   3.136   5.922  15.527  0.1513 -0.2668  0.5951
12346TIP3   OH258528   4.365   5.843  11.422 -0.2942 -0.2552 -0.1842
12346TIP3    H158529   4.450   5.840  11.377 -0.3499 -0.0231 -0.3047
12346TIP3    H258530   4.352   5.754  11.453 -0.6565 -0.6248 -1.3852
12347TIP3   OH258531   1.104   1.450  14.096 -0.2528  0.1945 -0.1095
12347TIP3    H158532   1.103   1.413  14.184 -0.1013  0.4216 -0.0122
12347TIP3    H258533   1.166   1.395  14.048  0.0927  0.4201  0.0778
12348TIP3   OH258534   6.368   3.387  15.243 -0.5135 -0.2633 -0.3146
12348TIP3    H158535   6.450   3.339  15.253 -0.1409  0.0270 -1.8905
12348TIP3    H258536   6.304   3.335  15.291  0.0261 -1.9432 -1.3932
12349TIP3   OH258537   1.423   2.602   5.061 -0.2517 -0.2370  0.0846
12349TIP3    H158538   1.431   2.677   5.002  0.6499  1.6222  2.4939
12349TIP3    H258539   1.329   2.597   5.080 -0.2781  0.5154  0.1725
12350TIP3   OH258540   3.269   2.999   1.333  0.1834  0.3432 -0.4113
12350TIP3    H158541   3.206   2.960   1.394  1.3866 -1.9580 -0.5972
12350TIP3    H258542   3.343   2.938   1.332  1.3277  1.7061 -2.1535
12351TIP3   OH258543   0.897   5.537  13.114  0.2384  0.0235 -1.0023
12351TIP3    H158544   0.848   5.471  13.163  0.0594  0.7120 -0.2335
12351TIP3    H258545   0.856   5.620  13.140  1.1481  0.5160 -1.1396
12352TIP3   OH258546   0.835   3.083   5.043 -0.4521 -0.0792 -0.5995
12352TIP3    H158547   0.777   3.113   5.113 -1.4654 -2.9856 -0.1275
12352TIP3    H258548   0.914   3.136   5.053 -1.8281  1.7821  0.6946
12353TIP3   OH258549   6.721   1.471  15.540  0.7255 -0.2428  0.3116
12353TIP3    H158550   6.808   1.438  15.518  0.0077 -2.2389  0.4104
12353TIP3    H258551   6.736   1.525  15.618  1.7785 -1.0489  0.6840
12354TIP3   OH258552   4.122   0.101   6.005 -0.4278  0.5457  0.1716
12354TIP3    H158553   4.055   0.041   6.036  0.3864  0.4714  1.8703
12354TIP3    H258554   4.164   0.055   5.932 -4.3343  1.9569 -3.1344
12355TIP3   OH258555   0.913   3.702   2.339 -0.4162  0.6595 -0.5097
12355TIP3    H158556   0.903   3.681   2.246  1.6772  0.3527 -0.7089
12355TIP3    H258557   0.989   3.761   2.341  0.3950 -0.4093  1.1293
12356TIP3   OH258558   1.194   2.065   3.492  0.0474 -0.2697 -0.1197
12356TIP3    H158559   1.137   2.141   3.477  0.0728 -0.4452 -1.1490
12356TIP3    H258560   1.136   1.998   3.528 -0.1551 -0.0514 -0.0390
12357TIP3   OH258561   1.456   0.385   3.743 -0.5733  0.1577  0.2987
12357TIP3    H158562   1.414   0.318   3.797  1.2541 -1.4968 -0.3064
12357TIP3    H258563   1.485   0.338   3.665  0.6248  1.6744 -0.1873
12358TIP3   OH258564   3.258   4.117   2.730  0.4860 -0.2333  0.2681
12358TIP3    H158565   3.258   4.099   2.824 -0.4647 -1.1786  0.1078
12358TIP3    H258566   3.177   4.076   2.698  0.4720  0.6391 -0.8530
12359TIP3   OH258567   0.985   3.488   5.773 -0.6053  0.0626 -0.6530
12359TIP3    H158568   1.016   3.490   5.864 -2.0450  0.2298 -0.1575
12359TIP3    H258569   0.951   3.576   5.757 -1.9031 -0.4492 -0.7951
12360TIP3   OH258570   4.282   2.695  12.999  0.3586  0.1488 -0.1351
12360TIP3    H158571   4.352   2.660  13.054 -0.5823  0.6200  1.4057
12360TIP3    H258572   4.226   2.620  12.980  0.5858  0.0175 -0.2716
12361TIP3   OH258573   6.714   2.104  13.412  0.1323 -0.4759 -0.2901
12361TIP3    H158574   6.750   2.114  13.324  2.3863  0.4268  0.7217
12361TIP3    H258575   6.622   2.079  13.397  0.1028  1.0023 -2.8881
12362TIP3   OH258576   1.083   5.345  17.286  0.0206  0.4063 -0.0039
12362TIP3    H158577   1.089   5.351  17.190  1.1480  0.0533  0.0412
12362TIP3    H258578   1.148   5.407  17.318  0.0304  0.1162  0.5371
12363TIP3   OH258579   4.175   4.342  11.504  0.5117  0.2619 -0.0538
12363TIP3    H158580   4.159   4.330  11.410 -0.9466  0.1396  0.1980
12363TIP3    H258581   4.267   4.317  11.516  0.7429  0.4046 -1.4668
12364TIP3   OH258582   2.811   1.957   0.443  0.4557 -0.2303 -0.1105
12364TIP3    H158583   2.847   1.945   0.531  0.9478  1.1319 -0.1089
12364TIP3    H258584   2.799   1.869   0.409  1.4126 -0.7461  0.8705
12365TIP3   OH258585   6.160   1.609   2.697 -0.6499  0.2057  0.3643
12365TIP3    H158586   6.175   1.514   2.695 -0.4618  0.2145  1.1800
12365TIP3    H258587   6.066   1.617   2.714 -0.9743  0.1662 -1.3149
12366TIP3   OH258588   0.710   6.799  16.370 -0.2596 -0.5537 -0.1579
12366TIP3    H158589   0.777   6.769  16.432 -1.3076  0.0044  1.2599
12366TIP3    H258590   0.682   6.719  16.326  0.2223 -1.0163  0.3497
12367TIP3   OH258591   5.236   2.442   0.123  0.0927  0.1013 -0.2999
12367TIP3    H158592   5.247   2.450   0.217  1.4178  0.7748 -0.5102
12367TIP3    H258593   5.220   2.348   0.108  1.1285 -0.1913  0.4513
12368TIP3   OH258594   4.440   4.732   3.911  0.2507 -0.0321 -0.2848
12368TIP3    H158595   4.506   4.744   3.980 -0.8337 -0.2350  0.8211
12368TIP3    H258596   4.491   4.718   3.831  1.5417  0.4028  0.4355
12369TIP3   OH258597   0.304   2.712  12.564 -0.3458  0.1912  0.1678
12369TIP3    H158598   0.366   2.785  12.567 -0.0010 -0.1634  2.9436
12369TIP3    H258599   0.321   2.670  12.479  1.1527  1.8506 -0.3915
12370TIP3   OH258600   5.295   4.435   3.511  0.3385 -0.1999 -0.2745
12370TIP3    H158601   5.376   4.385   3.523  0.1942 -0.5801 -0.8796
12370TIP3    H258602   5.308   4.483   3.429  1.3797  2.5114  1.3959
12371TIP3   OH258603   1.753   0.243  14.933 -0.4572 -0.6298 -0.2778
12371TIP3    H158604   1.796   0.162  14.907  0.4730 -1.5169  3.6548
12371TIP3    H258605   1.659   0.223  14.930 -0.4340 -0.4071 -3.5681
12372TIP3   OH258606   1.889   2.202   1.205 -0.5908 -0.5889 -0.4999
12372TIP3    H158607   1.856   2.184   1.117  0.5927 -3.2211 -0.4517
12372TIP3    H258608   1.812   2.229   1.255 -1.2764  0.8987 -2.2923
12373TIP3   OH258609   2.964   4.971  12.301 -0.6508  0.5064  0.1565
12373TIP3    H158610   2.991   5.062  12.290 -0.9406  0.6848  0.9256
12373TIP3    H258611   2.887   4.975  12.358 -1.5998 -0.0853 -1.0324
12374TIP3   OH258612   0.348   2.767  16.153  0.7248 -0.1949  0.4194
12374TIP3    H158613   0.264   2.778  16.109  1.2410 -2.5463 -1.2718
12374TIP3    H258614   0.374   2.855  16.178 -2.3453  0.5368  1.2071
12375TIP3   OH258615   1.013   3.266   3.758  0.1583 -0.0149 -0.4994
12375TIP3    H158616   1.063   3.197   3.714 -0.5386 -0.3688 -0.7407
12375TIP3    H258617   1.079   3.331   3.783  1.1006 -1.6923  1.5144
12376TIP3   OH258618   5.039   4.122  14.327 -0.2654 -0.0988  0.4952
12376TIP3    H158619   4.949   4.122  14.294 -0.8436 -1.4107  2.0115
12376TIP3    H258620   5.093   4.140  14.250 -1.7086 -1.0792 -0.7728
12377TIP3   OH258621   2.504   2.296   5.354  0.2782  0.6656 -0.2665
12377TIP3    H158622   2.470   2.386   5.357 -1.3850  0.0198  2.0867
12377TIP3    H258623   2.425   2.242   5.347  1.3297 -0.5984 -2.8692
12378TIP3   OH258624   1.949   2.970  12.782  0.0272  0.2784  0.3713
12378TIP3    H158625   1.947   2.978  12.687 -3.0244 -0.3948  0.3288
12378TIP3    H258626   1.962   2.877  12.799  0.3776  0.3702  0.6147
12379TIP3   OH258627   6.745   4.824  16.924  0.7042 -0.1006 -0.3985
12379TIP3    H158628   6.773   4.733  16.914  1.9872  0.4007 -1.5904
12379TIP3    H258629   6.819   4.868  16.966  0.0640  0.3903  0.2386
12380TIP3   OH258630   6.731   2.277  14.775  0.3049  0.3994 -0.0471
12380TIP3    H158631   6.821   2.245  14.762 -0.0410 -0.4238 -0.4345
12380TIP3    H258632   6.676   2.202  14.754 -0.5381  1.3977 -1.5485
12381TIP3   OH258633   6.775   3.524  14.926  0.1563  0.2980 -0.1176
12381TIP3    H158634   6.824   3.466  14.867  1.6003  1.8132 -0.4403
12381TIP3    H258635   6.692   3.540  14.881  0.0771 -0.8568 -0.3991
12382TIP3   OH258636   0.500   4.262  16.116 -0.1866  0.3107 -0.3175
12382TIP3    H158637   0.415   4.241  16.077 -1.3965  1.7758  1.4367
12382TIP3    H258638   0.510   4.356  16.100  0.3972  0.4394  0.8068
12383TIP3   OH258639   5.632   5.598  16.819  0.2746  0.0368 -0.4216
12383TIP3    H158640   5.674   5.681  16.840  3.0056 -0.9646 -1.7934
12383TIP3    H258641   5.594   5.568  16.903 -1.2299  2.8735 -0.0319
12384TIP3   OH258642   4.205   1.547   2.260  0.2735  0.5264  0.5382
12384TIP3    H158643   4.177   1.455   2.259 -0.9186  0.8809  0.4994
12384TIP3    H258644   4.134   1.594   2.217  0.7030  1.5185  0.8985
12385TIP3   OH258645   4.817   2.098   3.895  0.6615  0.2542 -0.4435
12385TIP3    H158646   4.791   2.178   3.848  1.1659  1.3434  1.0894
12385TIP3    H258647   4.736   2.069   3.938  0.4518 -0.1358 -1.0907
12386TIP3   OH258648   1.934   0.989  16.204  0.2889  0.4482  0.4254
12386TIP3    H158649   1.882   0.910  16.213  1.5841 -0.6862 -1.5714
12386TIP3    H258650   1.889   1.040  16.137  0.1079  0.8592  0.8567
12387TIP3   OH258651   0.604   5.380  12.239  0.6455  0.3290  0.5841
12387TIP3    H158652   0.537   5.434  12.280  0.1244 -0.2719  0.5258
12387TIP3    H258653   0.665   5.360  12.310 -0.4983 -1.0894  1.1913
12388TIP3   OH258654   5.068   2.558  17.080  0.3822 -0.3251 -0.4004
12388TIP3    H158655   5.013   2.584  17.154 -0.0319  2.4218 -1.5910
12388TIP3    H258656   5.157   2.565  17.114  0.1108 -1.5028  0.5634
12389TIP3   OH258657   4.805   4.229  14.679  0.0105  0.0178  0.4051
12389TIP3    H158658   4.725   4.259  14.637  0.2241 -0.4488 -0.3492
12389TIP3    H258659   4.875   4.259  14.622  0.3417 -0.0780  0.7570
12390TIP3   OH258660   3.535   5.961  11.115 -0.0241  0.4149 -0.4153
12390TIP3    H158661   3.617   5.969  11.164 -0.2515  0.6770 -0.0705
12390TIP3    H258662   3.560   5.980  11.024  0.4669 -0.4367 -0.4663
12391TIP3   OH258663   2.287   2.577   4.813 -0.0351  0.0803  0.1628
12391TIP3    H158664   2.226   2.504   4.824  0.1444 -0.0258  0.4722
12391TIP3    H258665   2.326   2.563   4.727 -0.4797  0.1746 -0.0566
12392TIP3   OH258666   0.888   1.513   6.156 -0.2445 -0.3922  0.3643
12392TIP3    H158667   0.976   1.519   6.119 -0.0606 -0.2589  0.8177
12392TIP3    H258668   0.888   1.578   6.226 -0.3246 -1.2102  1.1330
12393TIP3   OH258669   2.991   2.093  13.262  0.0267 -0.4971 -0.0083
12393TIP3    H158670   2.994   2.028  13.332  1.5841 -1.0484 -0.5831
12393TIP3    H258671   3.075   2.086  13.218 -0.0214  1.4717 -0.4816
12394TIP3   OH258672   2.297   2.043  16.068 -0.2009  0.1600  0.3106
12394TIP3    H158673   2.218   1.997  16.098 -0.6618  1.6381  1.4148
12394TIP3    H258674   2.321   2.099  16.141  2.1587 -0.5919  0.1499
12395TIP3   OH258675   1.671   0.544   1.473 -0.5838  0.5398 -1.0165
12395TIP3    H158676   1.598   0.604   1.459 -0.5066  0.6473 -0.9577
12395TIP3    H258677   1.656   0.473   1.411 -2.4177 -0.9888  1.0793
12396TIP3   OH258678   3.322   0.873  14.277  0.6441  0.1514 -0.1415
12396TIP3    H158679   3.328   0.904  14.368  1.7180  0.1740 -0.2163
12396TIP3    H258680   3.239   0.825  14.274  0.1430  0.9518  0.6023
12397TIP3   OH258681   6.255   3.700  14.802 -0.9070  0.5812 -0.3255
12397TIP3    H158682   6.231   3.750  14.880  1.5210  1.0695  0.1576
12397TIP3    H258683   6.256   3.609  14.831 -0.8141  0.6849  0.0045
12398TIP3   OH258684   1.725   2.708  17.269 -0.2866 -0.0682  0.2576
12398TIP3    H158685   1.664   2.755  17.326  0.0381 -0.1949  0.7092
12398TIP3    H258686   1.795   2.770  17.252 -0.5922  0.1136 -0.3523
12399TIP3   OH258687   4.766   0.537  15.139  0.2807 -0.5047  0.1862
12399TIP3    H158688   4.708   0.463  15.119 -0.2734  0.4206 -1.7318
12399TIP3    H258689   4.842   0.523  15.083  0.3873  0.1320  0.1713
12400TIP3   OH258690   0.754   6.082   6.561 -0.3153  0.4599 -0.3304
12400TIP3    H158691   0.749   5.995   6.521  0.2292 -0.3239  1.2484
12400TIP3    H258692   0.665   6.098   6.595 -0.8401  1.2302 -2.0398
12401TIP3   OH258693   2.647   2.783  13.339  0.2396 -0.0703  0.0431
12401TIP3    H158694   2.593   2.806  13.263  0.0992 -1.0599 -0.1586
12401TIP3    H258695   2.728   2.747  13.301  0.1237 -0.6716  0.3611
12402TIP3   OH258696   2.254   0.298   3.156  0.2375  0.3373  0.3217
12402TIP3    H158697   2.320   0.229   3.165 -0.3271 -0.2547 -0.0324
12402TIP3    H258698   2.170   0.250   3.151  0.0321  0.9040 -2.5412
12403TIP3   OH258699   6.795   4.977  13.233  0.1891 -0.6706  0.4060
12403TIP3    H158700   6.847   4.975  13.314 -0.0717 -1.6299  0.5568
12403TIP3    H258701   6.705   4.963  13.262 -0.0202 -0.1193  0.0313
12404TIP3   OH258702   5.555   4.534   4.277 -0.0502  0.8023 -0.1255
12404TIP3    H158703   5.585   4.619   4.309 -1.2980  1.3598 -0.4263
12404TIP3    H258704   5.519   4.491   4.354 -0.0911  0.8343 -0.1276
12405TIP3   OH258705   1.997   2.407  12.965  0.0282 -0.1888 -0.8937
12405TIP3    H158706   2.009   2.353  12.887 -0.5991 -0.1737 -1.0035
12405TIP3    H258707   1.928   2.362  13.015  0.1182  0.0377 -0.5657
12406TIP3   OH258708   3.487   2.325  15.647 -0.1394  0.4436  0.3081
12406TIP3    H158709   3.503   2.388  15.577  0.4548  0.3933  0.4015
12406TIP3    H258710   3.548   2.253  15.629 -0.0020  0.4225  0.8655
12407TIP3   OH258711   3.246   6.706   6.226  0.7451 -0.3450 -0.2481
12407TIP3    H158712   3.255   6.797   6.256  2.2862 -0.0793 -1.4715
12407TIP3    H258713   3.283   6.706   6.138 -1.2492 -1.7010 -1.1205
12408TIP3   OH258714   5.372   3.861  15.975 -0.7501  0.0642 -0.1897
12408TIP3    H158715   5.438   3.919  15.936 -1.6876  0.4273 -1.2424
12408TIP3    H258716   5.298   3.918  15.994 -0.9378 -0.4314  0.5925
12409TIP3   OH258717   1.777   2.421  14.692 -0.1340  0.4388  0.0268
12409TIP3    H158718   1.872   2.434  14.693 -0.1211  0.3473  0.0244
12409TIP3    H258719   1.746   2.475  14.619  0.0411 -0.3507 -0.6432
12410TIP3   OH258720   3.763   1.122   2.806 -0.3137  0.5315  0.1935
12410TIP3    H158721   3.728   1.058   2.868 -0.5559  1.7284  1.3324
12410TIP3    H258722   3.835   1.164   2.854 -0.8380  1.8385 -0.1295
12411TIP3   OH258723   5.310   5.795   6.158  0.0681  0.2934 -0.7839
12411TIP3    H158724   5.265   5.792   6.074 -1.3059  3.2244 -0.2123
12411TIP3    H258725   5.244   5.767   6.222  0.0021  1.5642 -0.2911
12412TIP3   OH258726   6.478   0.436   2.981 -0.4278  0.2551  0.1213
12412TIP3    H158727   6.546   0.500   2.961 -1.2406  0.9428 -0.4552
12412TIP3    H258728   6.506   0.397   3.064  1.3388 -0.3838 -0.7454
12413TIP3   OH258729   6.763   4.715  13.347  0.4232  0.7428  0.3869
12413TIP3    H158730   6.811   4.735  13.267  1.4540 -1.3752  0.4481
12413TIP3    H258731   6.829   4.725  13.417  0.7464 -1.8897  0.5035
12414TIP3   OH258732   3.266   0.444  15.167 -0.4953  0.1170 -0.1595
12414TIP3    H158733   3.352   0.404  15.156 -0.9141 -1.0608  0.6822
12414TIP3    H258734   3.256   0.501  15.092  0.8530 -0.0576 -0.4826
12415TIP3   OH258735   5.878   5.865  13.271  0.1007 -0.3169  0.5515
12415TIP3    H158736   5.869   5.829  13.183 -0.6773 -1.6291  1.1520
12415TIP3    H258737   5.917   5.793  13.322  2.0583  0.9667  0.9126
12416TIP3   OH258738   3.327   2.881  12.307  0.0766 -0.1967  0.0792
12416TIP3    H158739   3.330   2.892  12.212 -1.8749  2.3087  0.2468
12416TIP3    H258740   3.239   2.848  12.324  0.8179 -1.7422  0.9227
12417TIP3   OH258741   5.078   6.465  11.567 -0.3714  0.0288 -0.2832
12417TIP3    H158742   5.139   6.415  11.621 -0.2271  0.5498  0.0488
12417TIP3    H258743   5.115   6.553  11.565 -0.4508  0.0441 -1.1324
12418TIP3   OH258744   1.568   1.231   5.707  0.4860 -0.4413  0.6227
12418TIP3    H158745   1.579   1.254   5.799 -1.9884  0.8033  0.6509
12418TIP3    H258746   1.498   1.166   5.706  0.6632 -0.6289 -0.3503
12419TIP3   OH258747   2.595   4.195  13.303  0.2000 -0.0531  0.4686
12419TIP3    H158748   2.621   4.125  13.364  3.0903  0.5484 -0.0165
12419TIP3    H258749   2.591   4.152  13.218 -2.4477 -0.5730  0.8044
12420TIP3   OH258750   1.754   6.339  10.462 -0.6140 -0.6170  0.0891
12420TIP3    H158751   1.827   6.285  10.494 -0.0712 -0.5632 -1.0452
12420TIP3    H258752   1.767   6.343  10.367  0.5181  3.1883  0.3205
12421TIP3   OH258753   0.996   1.445  11.913 -0.6325 -0.1554  0.2851
12421TIP3    H158754   0.936   1.445  11.988 -1.9230 -0.4724 -0.7235
12421TIP3    H258755   1.079   1.416  11.949 -0.3858  2.6873  2.2441
12422TIP3   OH258756   5.789   5.219  12.090 -0.5692 -0.1383  0.3978
12422TIP3    H158757   5.839   5.265  12.023 -1.0172  1.1921  0.9595
12422TIP3    H258758   5.855   5.172  12.142 -0.0930  0.0532 -0.0304
12423TIP3   OH258759   1.487   5.208   2.554 -0.4409  0.4621  0.1615
12423TIP3    H158760   1.504   5.156   2.632  1.0113  0.6757 -0.0043
12423TIP3    H258761   1.533   5.290   2.568  0.4846  0.2074 -1.2338
12424TIP3   OH258762   1.952   3.158  16.872  0.0309  0.0046  0.2215
12424TIP3    H158763   1.858   3.144  16.866 -0.2500  2.4531 -1.9042
12424TIP3    H258764   1.990   3.100  16.806  0.2872 -2.8618  2.7783
12425TIP3   OH258765   4.261   0.780   2.293 -0.2871  0.1879 -0.1484
12425TIP3    H158766   4.338   0.729   2.317 -1.0524  0.0068  2.0025
12425TIP3    H258767   4.259   0.777   2.197  0.5155 -2.5696 -0.1085
12426TIP3   OH258768   0.329   4.258   1.913 -0.0421 -0.2821 -0.2186
12426TIP3    H158769   0.417   4.283   1.941 -0.5680  0.8934  0.3895
12426TIP3    H258770   0.289   4.219   1.991 -0.8250  1.2099  0.1338
12427TIP3   OH258771   4.586   6.055  11.427  0.4046 -0.0937  0.2671
12427TIP3    H158772   4.615   5.969  11.458  0.4739  0.3045  1.3248
12427TIP3    H258773   4.548   6.097  11.505 -1.6736 -0.0378 -0.7244
12428TIP3   OH258774   3.115   5.709   2.643 -0.1219  0.1953  0.3413
12428TIP3    H158775   3.210   5.704   2.628 -0.1320  0.3317  0.2244
12428TIP3    H258776   3.098   5.644   2.711  0.1066  0.3937  0.5911
12429TIP3   OH258777   4.517   5.041   0.243 -0.2168 -0.4130  0.1896
12429TIP3    H158778   4.430   5.026   0.280 -0.6668 -1.8104 -1.3603
12429TIP3    H258779   4.574   4.981   0.291  0.0059  0.8309  1.5252
12430TIP3   OH258780   5.271   3.981   4.314  0.5924  0.2715 -0.0843
12430TIP3    H158781   5.266   3.887   4.295 -1.2949  0.2050  0.6244
12430TIP3    H258782   5.187   4.001   4.356 -0.0531  2.7851 -2.4546
12431TIP3   OH258783   1.400   1.194   0.940  0.3446  0.0238  0.1574
12431TIP3    H158784   1.334   1.134   0.978  1.3137 -0.6735  0.7707
12431TIP3    H258785   1.350   1.249   0.880 -1.1655  0.8401  2.0844
12432TIP3   OH258786   1.207   0.590  14.104 -0.2225 -0.1455 -0.0408
12432TIP3    H158787   1.185   0.665  14.048  0.5932 -0.7795 -1.2449
12432TIP3    H258788   1.144   0.594  14.176  0.2440  2.0725  0.2599
12433TIP3   OH258789   5.213   0.475  14.979 -0.0662 -0.2592 -0.3354
12433TIP3    H158790   5.259   0.399  14.942 -0.7059 -1.2852  0.9435
12433TIP3    H258791   5.140   0.490  14.918  0.4956 -0.1935 -1.0000
12434TIP3   OH258792   1.083   2.635   4.260  0.0347  0.0742 -0.4546
12434TIP3    H158793   1.034   2.680   4.192  0.5091 -0.0258 -0.8652
12434TIP3    H258794   1.162   2.602   4.216 -1.3507 -3.1082 -0.7295
12435TIP3   OH258795   2.534   5.193  16.599  0.3532 -0.2943  0.0040
12435TIP3    H158796   2.615   5.171  16.553 -0.0262 -0.6331 -0.5015
12435TIP3    H258797   2.563   5.248  16.672  1.0463 -0.4704 -0.1298
12436TIP3   OH258798   4.439   0.297  12.554  0.8677  0.2570  0.1778
12436TIP3    H158799   4.522   0.252  12.542  0.8517  0.3739 -0.4109
12436TIP3    H258800   4.463   0.382  12.591  0.9507  0.0246  0.6632
12437TIP3   OH258801   6.264   3.392  12.535 -0.0380  0.8568  0.0044
12437TIP3    H158802   6.311   3.310  12.544  2.0390  2.3099  2.8824
12437TIP3    H258803   6.302   3.433  12.457 -1.0622 -0.8388 -1.4227
12438TIP3   OH258804   5.978   0.231  12.420  0.6909 -0.6347  0.1914
12438TIP3    H158805   6.028   0.201  12.345  1.7521  0.5953  0.3737
12438TIP3    H258806   6.040   0.286  12.469 -0.7271  0.6039  0.6308
12439TIP3   OH258807   6.626   3.481  16.560 -0.0382  0.0804  0.2984
12439TIP3    H158808   6.692   3.551  16.557 -0.1783  0.2475  0.9598
12439TIP3    H258809   6.604   3.473  16.653 -1.6698  0.7086 -0.0127
12440TIP3   OH258810   6.251   3.575  17.238 -0.1404 -0.2688 -0.1389
12440TIP3    H158811   6.279   3.643  17.299 -1.5085 -2.0464  2.6513
12440TIP3    H258812   6.171   3.610  17.198 -0.4267  0.0864  0.7279
12441TIP3   OH258813   3.935   3.493   4.595 -0.4002  0.0549 -0.4247
12441TIP3    H158814   3.907   3.582   4.575  1.4471  0.2507 -2.2886
12441TIP3    H258815   3.925   3.445   4.512  3.4561 -0.1632 -0.8738
12442TIP3   OH258816   3.690   2.287   2.487  0.2495 -0.1539 -0.2997
12442TIP3    H158817   3.631   2.243   2.425 -1.0763 -0.2892  1.0312
12442TIP3    H258818   3.736   2.215   2.531  1.7377 -0.0414 -1.6050
12443TIP3   OH258819   4.432   5.816  10.777  0.3940  0.3897 -0.2706
12443TIP3    H158820   4.456   5.762  10.852 -1.2747 -2.1871 -1.5259
12443TIP3    H258821   4.515   5.851  10.744  1.6513 -2.4160 -0.1750
12444TIP3   OH258822   5.174   6.412  14.284  0.0036  0.1513  0.0192
12444TIP3    H158823   5.233   6.381  14.215  1.5907  2.4044  0.2896
12444TIP3    H258824   5.232   6.431  14.358 -1.4347 -0.2499  1.2608
12445TIP3   OH258825   1.802   5.424  11.884  0.0404  0.4135 -0.2150
12445TIP3    H158826   1.867   5.485  11.847 -0.7523  2.0243  0.9861
12445TIP3    H258827   1.844   5.390  11.963  0.2785 -0.2099 -0.6089
12446TIP3   OH258828   0.930   0.541  13.722 -0.1372 -0.3516  0.6927
12446TIP3    H158829   0.913   0.554  13.815  1.5873 -1.9403  1.2508
12446TIP3    H258830   0.877   0.608  13.679 -0.9451  0.4164  2.8031
12447TIP3   OH258831   4.966   4.781   1.453 -0.2624 -0.2495  0.4491
12447TIP3    H158832   5.000   4.692   1.463  2.0939  0.6042  0.3977
12447TIP3    H258833   4.923   4.799   1.536 -1.4952 -1.7290  0.1549
12448TIP3   OH258834   4.895   2.074   0.385 -0.0033 -0.2932 -0.1392
12448TIP3    H158835   4.961   2.027   0.435  0.4346  1.4245  0.9382
12448TIP3    H258836   4.924   2.068   0.294  1.2321 -0.1856  0.2495
12449TIP3   OH258837   4.215   0.805   2.027 -0.0653 -0.2290  0.2869
12449TIP3    H158838   4.140   0.863   2.009  1.1856  1.6316  0.9176
12449TIP3    H258839   4.286   0.841   1.974  0.4897 -1.7513 -0.0016
12450TIP3   OH258840   6.417   0.850   6.343  0.0453  0.3412 -0.6195
12450TIP3    H158841   6.451   0.883   6.260  1.3911  1.2635  0.2848
12450TIP3    H258842   6.352   0.915   6.370  1.1637  1.1756  0.1052
12451TIP3   OH258843   4.585   0.179   0.694 -0.4610 -0.7929  0.5191
12451TIP3    H158844   4.495   0.149   0.705 -1.5999  2.2564 -0.0087
12451TIP3    H258845   4.597   0.181   0.599 -1.0103  1.9639  0.4669
12452TIP3   OH258846   5.950   6.129  12.930  0.0659 -0.0019 -0.3411
12452TIP3    H158847   5.890   6.123  13.005  0.0441 -0.6235 -0.4076
12452TIP3    H258848   5.964   6.223  12.918 -0.9561  0.1511 -0.3715
12453TIP3   OH258849   3.364   1.779   3.102 -0.1920  0.0884  0.1253
12453TIP3    H158850   3.296   1.836   3.139 -0.1189  0.9014 -0.9702
12453TIP3    H258851   3.446   1.827   3.118 -0.0084 -0.2639  0.2489
12454TIP3   OH258852   6.783   4.554   2.028  0.2923 -0.0759  0.2136
12454TIP3    H158853   6.693   4.544   2.060 -0.1989 -0.6616 -1.3464
12454TIP3    H258854   6.797   4.478   1.972  1.0441  1.1116 -1.2368
12455TIP3   OH258855   2.684   1.590   5.581  0.0586 -0.7033 -0.2531
12455TIP3    H158856   2.662   1.517   5.523  0.4348 -1.4985  0.5871
12455TIP3    H258857   2.770   1.567   5.616 -0.6297 -0.7759  1.4519
12456TIP3   OH258858   2.515   2.100  15.127 -0.3374  0.6015 -0.4783
12456TIP3    H158859   2.604   2.134  15.125 -0.0965 -0.0377 -0.8042
12456TIP3    H258860   2.468   2.159  15.186  0.9162 -0.5765  1.7284
12457TIP3   OH258861   1.138   4.519   4.552  0.2040 -0.0504 -0.0702
12457TIP3    H158862   1.096   4.487   4.632  1.8327 -1.5686  0.2052
12457TIP3    H258863   1.075   4.580   4.514 -1.1821 -0.4057  1.6236
12458TIP3   OH258864   2.245   1.689   2.136 -0.0184  0.2494  0.0255
12458TIP3    H158865   2.206   1.757   2.191  0.0064  0.8338 -0.6621
12458TIP3    H258866   2.213   1.607   2.172  0.1730  0.6163  1.0392
12459TIP3   OH258867   1.682   2.915  13.018 -0.2837 -0.6177  0.5068
12459TIP3    H158868   1.617   2.859  13.060 -0.1318 -0.4037  1.0280
12459TIP3    H258869   1.683   2.886  12.927 -2.6816  0.8311 -0.0285
12460TIP3   OH258870   4.359   2.598   5.922  0.3707 -0.1151  0.2844
12460TIP3    H158871   4.364   2.532   5.853 -0.2751  0.2803 -0.1493
12460TIP3    H258872   4.430   2.660   5.902  1.8049 -1.3506  1.4232
12461TIP3   OH258873   1.188   1.497   0.605 -0.2245 -0.1615 -0.6144
12461TIP3    H158874   1.268   1.530   0.565 -1.6201  2.1900 -1.5451
12461TIP3    H258875   1.137   1.575   0.625 -1.2375 -1.5018  2.2679
12462TIP3   OH258876   2.921   2.839   0.048  1.1766 -0.3531  0.5705
12462TIP3    H158877   2.843   2.796   0.083  1.2246 -1.7913 -1.0376
12462TIP3    H258878   2.895   2.931   0.037 -0.1405 -0.7243  0.5123
12463TIP3   OH258879   6.566   6.495  15.337  0.2640 -0.2196 -0.4443
12463TIP3    H158880   6.510   6.476  15.262 -3.3032 -1.3647  2.3932
12463TIP3    H258881   6.573   6.590  15.338 -1.7397 -0.0483 -0.7831
12464TIP3   OH258882   5.373   1.316  14.165 -0.7106  0.7111  0.2723
12464TIP3    H158883   5.332   1.246  14.114 -1.1313  0.3040  1.1537
12464TIP3    H258884   5.352   1.396  14.118 -0.6297  0.2909 -0.4878
12465TIP3   OH258885   5.254   3.997   2.760  0.2022 -0.6061 -0.7413
12465TIP3    H158886   5.162   3.971   2.748 -0.2407  0.9729 -0.8873
12465TIP3    H258887   5.249   4.088   2.787  1.6965 -0.9137  0.5679
12466TIP3   OH258888   6.628   1.480  14.672 -0.0706  0.5188 -0.4615
12466TIP3    H158889   6.581   1.475  14.589  0.2144 -2.5164 -0.4706
12466TIP3    H258890   6.573   1.433  14.735  1.6850 -0.8540  0.1058
12467TIP3   OH258891   4.169   1.192  17.094  1.0686  0.4653 -0.2157
12467TIP3    H158892   4.140   1.239  17.016  1.2712  0.6867 -0.1582
12467TIP3    H258893   4.238   1.133  17.063  2.2821  1.7251  0.0779
12468TIP3   OH258894   1.278   0.560   0.662 -0.1314  0.1074  0.3625
12468TIP3    H158895   1.281   0.508   0.582 -0.1322  0.6824 -0.0135
12468TIP3    H258896   1.282   0.651   0.632 -0.1452  0.3264  1.0130
12469TIP3   OH258897   0.998   1.191   3.014 -0.0120  0.4089  0.1286
12469TIP3    H158898   0.916   1.233   3.036 -0.4395 -1.2030  1.7384
12469TIP3    H258899   1.010   1.208   2.921 -0.7166  3.0735  0.4880
12470TIP3   OH258900   4.692   1.254   1.322  0.2299  0.5014 -0.4347
12470TIP3    H158901   4.611   1.302   1.305 -0.9365 -0.4916  2.0887
12470TIP3    H258902   4.699   1.250   1.418  2.2722 -1.0649 -0.5971
12471TIP3   OH258903   2.167   4.238   4.603  0.4125 -0.0406  0.4132
12471TIP3    H158904   2.122   4.158   4.633 -0.0623  1.0242  2.6133
12471TIP3    H258905   2.259   4.222   4.623  0.5976 -0.8602 -1.0345
12472TIP3   OH258906   5.027   4.350  14.499  0.0987 -0.2789 -0.4909
12472TIP3    H158907   5.044   4.283  14.433  0.1494 -0.9562  0.1969
12472TIP3    H258908   5.101   4.343  14.559  0.1326  0.4382 -0.4443
12473TIP3   OH258909   6.408   5.619   0.606 -0.4572  0.5115 -0.2102
12473TIP3    H158910   6.377   5.642   0.518 -0.1307 -0.5115 -0.6008
12473TIP3    H258911   6.504   5.623   0.598 -0.4115 -0.2647 -0.0956
12474TIP3   OH258912   2.314   1.231  11.798  0.3531 -0.3919 -0.5106
12474TIP3    H158913   2.397   1.262  11.762 -1.3404  2.4568 -2.1170
12474TIP3    H258914   2.274   1.182  11.726 -1.2608  1.9408 -1.2524
12475TIP3   OH258915   3.522   4.529  11.020 -0.1623 -0.2495  0.1159
12475TIP3    H158916   3.450   4.499  11.075  0.0605 -1.5668 -0.2996
12475TIP3    H258917   3.505   4.492  10.934  0.4534  0.2932 -0.2474
12476TIP3   OH258918   5.994   4.182   0.185 -0.0171  0.3103  0.6341
12476TIP3    H158919   6.030   4.256   0.234 -0.0916  0.2595  0.7650
12476TIP3    H258920   5.952   4.127   0.251 -0.5006  0.4658  0.4573
12477TIP3   OH258921   5.802   3.539  11.941  0.3828  0.0486 -0.1841
12477TIP3    H158922   5.861   3.588  12.000  0.5971  0.0485 -0.3973
12477TIP3    H258923   5.818   3.447  11.963 -0.3971  0.0915  0.5819
12478TIP3   OH258924   5.676   0.637   4.663 -0.2148 -0.3194 -0.6315
12478TIP3    H158925   5.762   0.599   4.680 -0.7725 -1.0464  0.6036
12478TIP3    H258926   5.666   0.705   4.729 -0.8382 -0.6348 -0.3983
12479TIP3   OH258927   3.864   5.779   2.629 -0.5563 -0.5194 -0.0704
12479TIP3    H158928   3.904   5.846   2.574  0.0296  1.1854  2.3166
12479TIP3    H258929   3.771   5.802   2.633 -0.2977  0.3898  1.0184
12480TIP3   OH258930   5.203   6.404  12.650 -0.4709  0.2635  0.2782
12480TIP3    H158931   5.216   6.356  12.732 -1.3584 -0.4071  0.0360
12480TIP3    H258932   5.134   6.467  12.670 -0.2754  0.5034  0.2036
12481TIP3   OH258933   1.134   4.524   3.486 -0.1493  0.1520  0.9013
12481TIP3    H158934   1.118   4.602   3.433  0.8409 -0.0508  0.2906
12481TIP3    H258935   1.054   4.472   3.476 -0.1208  0.2854 -0.0993
12482TIP3   OH258936   4.726   1.029   4.061 -0.0047 -0.5820  0.1846
12482TIP3    H158937   4.700   1.019   3.970  0.3931 -0.6869  0.0786
12482TIP3    H258938   4.646   1.051   4.108 -0.3363 -1.2468 -0.0748
12483TIP3   OH258939   1.206   5.280  13.171 -0.4033 -0.2958  0.5382
12483TIP3    H158940   1.209   5.374  13.154  3.1082 -0.8808 -2.8661
12483TIP3    H258941   1.128   5.250  13.124 -1.1125  0.8001  1.0009
12484TIP3   OH258942   0.454   5.108  12.462 -0.0960 -0.2901  0.2254
12484TIP3    H158943   0.532   5.107  12.407 -0.5562 -0.1223 -0.4428
12484TIP3    H258944   0.453   5.195  12.501  1.8458 -1.3710  2.8825
12485TIP3   OH258945   3.362   2.372  11.744  0.2376  0.7764 -0.0618
12485TIP3    H158946   3.300   2.336  11.807  1.4169  1.8427  1.7776
12485TIP3    H258947   3.308   2.397  11.669 -1.3730  0.4860  0.9635
12486TIP3   OH258948   3.326   3.757   2.248  0.1943 -0.0165 -0.7128
12486TIP3    H158949   3.304   3.672   2.210  1.1384  0.6867 -2.8735
12486TIP3    H258950   3.340   3.738   2.341 -1.2716 -1.9095 -0.8376
12487TIP3   OH258951   3.911   6.730  14.407 -0.0038 -0.4495 -0.2279
12487TIP3    H158952   3.852   6.805  14.398  1.7421  1.0247  0.1170
12487TIP3    H258953   3.857   6.654  14.388 -2.6454  0.6200  2.5593
12488TIP3   OH258954   3.283   0.167  15.717 -0.3659 -0.4514  0.5559
12488TIP3    H158955   3.196   0.140  15.688 -0.6268 -0.3947  1.2864
12488TIP3    H258956   3.340   0.095  15.689 -0.9595 -1.4552  1.8661
12489TIP3   OH258957   5.453   5.329   4.068  0.7454  0.1404  0.3014
12489TIP3    H158958   5.362   5.347   4.092  0.4570  0.4737 -0.9584
12489TIP3    H258959   5.449   5.247   4.019  1.2416 -0.2931  0.9946
12490TIP3   OH258960   4.912   5.429  10.661 -0.3208  0.5036  0.1151
12490TIP3    H158961   4.943   5.480  10.585  0.0900 -0.7493 -0.5708
12490TIP3    H258962   4.980   5.363  10.674 -0.5480  0.5212  1.3958
12491TIP3   OH258963   2.900   5.628  13.326 -0.5532  0.7410 -0.3936
12491TIP3    H158964   2.973   5.659  13.273 -0.1254 -1.2342 -1.0028
12491TIP3    H258965   2.833   5.603  13.262  0.3581 -2.6419 -0.1297
12492TIP3   OH258966   2.052   0.533  15.141  0.2874  0.5887  0.6457
12492TIP3    H158967   2.106   0.516  15.217  0.0328  1.0309  0.9291
12492TIP3    H258968   1.976   0.581  15.175  0.2417  0.9143  0.1000
12493TIP3   OH258969   6.702   1.744  16.017  0.8817 -0.3977  0.3574
12493TIP3    H158970   6.624   1.729  15.963  1.5791  0.9694 -1.0613
12493TIP3    H258971   6.670   1.734  16.107 -0.3460 -2.4945 -0.2516
12494TIP3   OH258972   4.564   4.835  14.585 -0.0705 -0.2374  0.0429
12494TIP3    H158973   4.499   4.857  14.652  0.9594 -2.6235  1.9133
12494TIP3    H258974   4.512   4.812  14.508 -1.3554  0.4309  0.6915
12495TIP3   OH258975   1.754   2.371   2.733  0.0188  0.4565 -0.3198
12495TIP3    H158976   1.681   2.330   2.780  1.2426  0.2506  1.4489
12495TIP3    H258977   1.724   2.376   2.642 -0.8059 -2.9617 -0.3175
12496TIP3   OH258978   4.327   1.382  15.623  0.3205 -0.6891 -0.1086
12496TIP3    H158979   4.412   1.416  15.595  0.7915 -1.5798  0.2285
12496TIP3    H258980   4.307   1.431  15.702  1.7829 -2.3177  1.3234
12497TIP3   OH258981   5.136   6.311   2.844 -0.2470  0.5973 -0.4315
12497TIP3    H158982   5.144   6.290   2.937  0.4570  0.4498 -0.5270
12497TIP3    H258983   5.069   6.379   2.841  0.3829  1.2582  0.2815
12498TIP3   OH258984   6.730   6.698  16.386 -0.6391 -0.0194  0.1449
12498TIP3    H158985   6.803   6.664  16.438 -0.2500 -1.4372 -1.2879
12498TIP3    H258986   6.661   6.715  16.450 -1.3974 -4.8920  0.8740
12499TIP3   OH258987   3.859   5.819   5.485 -0.5282  0.0180  0.3988
12499TIP3    H158988   3.935   5.800   5.430 -0.3956  1.5051  0.0462
12499TIP3    H258989   3.786   5.775   5.441  0.0189 -0.8929  0.4031
12500TIP3   OH258990   5.036   4.750   4.067 -0.1212 -0.2273 -0.2778
12500TIP3    H158991   5.122   4.774   4.102 -0.9800  1.0258  0.9941
12500TIP3    H258992   4.999   4.691   4.133  0.2953 -1.8806 -1.4754
12501TIP3   OH258993   3.698   0.556  13.971  0.5017 -0.1806 -0.1782
12501TIP3    H158994   3.739   0.570  14.057 -0.9442 -1.0495  0.6648
12501TIP3    H258995   3.609   0.590  13.981  0.7325  0.9635 -1.7636
12502TIP3   OH258996   0.756   2.456  13.519 -0.2095  0.6939 -0.0690
12502TIP3    H158997   0.767   2.526  13.583 -0.0744 -0.2557  0.9552
12502TIP3    H258998   0.682   2.404  13.552 -1.7513  1.5959 -1.9640
12503TIP3   OH258999   3.210   3.453  11.120 -0.5208 -0.2389 -0.8466
12503TIP3    H159000   3.267   3.404  11.178  2.5496  0.5898 -2.9797
12503TIP3    H259001   3.191   3.534  11.167 -2.1587 -1.6542  0.9659
12504TIP3   OH259002   3.708   0.060  13.132  0.5504  0.2307 -0.0147
12504TIP3    H159003   3.677   0.049  13.221  1.2761 -1.3047  0.0575
12504TIP3    H259004   3.788   0.112  13.140  0.1774  0.7823  0.1492
12505TIP3   OH259005   4.648   3.359   6.126 -0.2603  0.1449 -0.6450
12505TIP3    H159006   4.735   3.378   6.091 -0.7945  1.0712 -1.4914
12505TIP3    H259007   4.632   3.428   6.189 -0.0299 -0.5287  0.1666
12506TIP3   OH259008   0.455   4.180  15.041 -0.1097 -0.2704 -0.0881
12506TIP3    H159009   0.435   4.235  15.117  0.8845 -2.0075  1.4827
12506TIP3    H259010   0.374   4.179  14.990 -0.7693  0.9940  0.9114
12507TIP3   OH259011   5.947   1.939   2.547  0.2351  0.3322  0.0947
12507TIP3    H159012   5.918   1.960   2.636 -2.6424 -3.3729  0.1940
12507TIP3    H259013   5.873   1.964   2.491  1.0921  0.4832 -0.9913
12508TIP3   OH259014   3.672   3.536   4.352 -0.2782  0.6037 -0.1882
12508TIP3    H159015   3.658   3.508   4.442  1.2564  0.0805 -0.0878
12508TIP3    H259016   3.636   3.625   4.348  0.3450  0.9351  1.1728
12509TIP3   OH259017   2.109   4.474   5.255 -0.1272  0.0225  0.1443
12509TIP3    H159018   2.028   4.472   5.305  1.3846 -1.5245  2.6564
12509TIP3    H259019   2.163   4.540   5.299  0.2408  0.5911 -1.1215
12510TIP3   OH259020   0.067   1.793  16.303  0.6252  0.2286 -0.2886
12510TIP3    H159021   0.024   1.875  16.326 -0.3969  0.0460 -1.5022
12510TIP3    H259022  -0.003   1.728  16.303  0.9681 -0.1546 -1.8861
12511TIP3   OH259023   6.462   3.438  11.468  0.2527  0.3422 -0.3389
12511TIP3    H159024   6.529   3.370  11.475 -0.0857  0.1068  0.6234
12511TIP3    H259025   6.405   3.408  11.397  0.7975  0.2289 -0.7351
12512TIP3   OH259026   6.392   1.827  16.979 -0.3839  0.2909  0.3644
12512TIP3    H159027   6.474   1.877  16.978 -0.0075 -0.1457  3.6509
12512TIP3    H259028   6.323   1.894  16.980 -0.0325  0.6769 -0.9894
12513TIP3   OH259029   3.586   5.313   4.681  0.0942 -0.0530 -0.2142
12513TIP3    H159030   3.542   5.254   4.742 -1.0396  0.7912 -0.2107
12513TIP3    H259031   3.674   5.275   4.670  0.2380 -0.3297  1.7570
12514TIP3   OH259032   1.185   2.475  13.240  0.1649  0.3859 -0.1806
12514TIP3    H159033   1.182   2.380  13.253  1.3587  0.1974 -1.1708
12514TIP3    H259034   1.214   2.510  13.324 -2.1300  0.0406  0.7839
12515TIP3   OH259035   6.386   5.446   0.850  0.2397 -0.6618 -0.1648
12515TIP3    H159036   6.467   5.436   0.901 -0.1566  1.6966  0.9592
12515TIP3    H259037   6.410   5.505   0.779 -0.1988 -0.8736 -0.4870
12516TIP3   OH259038   6.790   1.094   0.561  0.3581  0.9281 -0.0102
12516TIP3    H159039   6.718   1.157   0.566  0.2303  0.8351 -0.6018
12516TIP3    H259040   6.858   1.131   0.617 -0.9561 -0.0639  2.2761
12517TIP3   OH259041   4.545   1.579   0.937 -0.3284  0.7478  0.3286
12517TIP3    H159042   4.612   1.515   0.958 -2.7200 -0.7014  4.0751
12517TIP3    H259043   4.540   1.578   0.841  0.9451 -3.3825  0.2012
12518TIP3   OH259044   6.448   3.484  16.121  0.2690 -0.5288 -0.2532
12518TIP3    H159045   6.424   3.492  16.213 -1.1039 -1.1105 -0.5482
12518TIP3    H259046   6.538   3.451  16.122  0.8327  1.0382  0.8740
12519TIP3   OH259047   4.011   4.019   3.727  0.4438  0.5204 -0.5144
12519TIP3    H159048   3.971   3.935   3.747  0.3389  0.7891  0.4058
12519TIP3    H259049   3.958   4.055   3.655 -0.8924  0.8092  0.5902
12520TIP3   OH259050   2.335   1.928  12.504 -0.1503 -0.1536  0.2013
12520TIP3    H159051   2.285   1.942  12.423  2.5783 -0.3846 -1.6161
12520TIP3    H259052   2.290   1.855  12.546 -2.0011  0.3624 -0.7774
12521TIP3   OH259053   1.948   6.606  14.597  0.2671 -0.3645  0.9705
12521TIP3    H159054   1.917   6.517  14.580  0.6509  0.0021 -2.0036
12521TIP3    H259055   2.029   6.595  14.646 -1.2228 -1.5252  3.2470
12522TIP3   OH259056   2.960   1.304   3.988 -0.0173 -0.1306  0.3712
12522TIP3    H159057   2.959   1.303   3.892 -0.7028 -1.1116  0.3821
12522TIP3    H259058   3.036   1.358   4.010  1.0571 -1.1429 -0.7329
12523TIP3   OH259059   6.527   0.490   4.125  0.1202  0.7248  0.0833
12523TIP3    H159060   6.471   0.491   4.047  1.3020 -0.9726 -0.8002
12523TIP3    H259061   6.485   0.427   4.183  1.8581 -1.5989 -1.1515
12524TIP3   OH259062   4.025   5.779  13.161 -0.1772  0.2624  0.5494
12524TIP3    H159063   3.933   5.780  13.187 -0.9460 -0.1074 -2.0366
12524TIP3    H259064   4.065   5.711  13.215 -2.3878 -2.6080 -1.3320
12525TIP3   OH259065   1.565   4.781   2.889  0.0747  0.0383  0.1611
12525TIP3    H159066   1.602   4.846   2.949 -1.1148 -0.1103  1.0676
12525TIP3    H259067   1.606   4.699   2.915  0.1352  0.1057  0.2815
12526TIP3   OH259068   2.298   1.955   5.992  0.0305  0.1146  0.0911
12526TIP3    H159069   2.269   1.863   5.989  0.9240 -0.1621 -0.1356
12526TIP3    H259070   2.298   1.976   6.085 -0.1484 -0.1221  0.1479
12527TIP3   OH259071   5.622   3.681  13.318  0.4532 -0.2663 -0.0261
12527TIP3    H159072   5.652   3.635  13.396  1.6731 -1.1353 -0.9999
12527TIP3    H259073   5.593   3.611  13.259  0.1886  0.3491 -0.6237
12528TIP3   OH259074   1.936   4.838  11.644  0.2313  0.5722  0.1603
12528TIP3    H159075   2.022   4.797  11.635 -0.1581 -0.3267  0.4514
12528TIP3    H259076   1.934   4.904  11.575  0.0554 -1.3681 -1.7566
12529TIP3   OH259077   3.373   3.313   1.457 -0.1879  0.1812 -0.9118
12529TIP3    H159078   3.390   3.237   1.402  0.3841  0.1957 -0.7512
12529TIP3    H259079   3.432   3.304   1.531  0.7107  1.3807 -1.4743
12530TIP3   OH259080   5.892   4.542  16.233 -0.1074 -0.8493  0.4994
12530TIP3    H159081   5.810   4.591  16.237  0.7810  0.8158 -0.9734
12530TIP3    H259082   5.950   4.589  16.293 -0.5098 -2.6111  2.2999
12531TIP3   OH259083   1.362   3.949   4.602  0.1831 -0.2787 -0.2876
12531TIP3    H159084   1.439   3.905   4.567 -0.1220 -0.3046 -0.9223
12531TIP3    H259085   1.371   4.040   4.575  1.0002  0.1562  1.3369
12532TIP3   OH259086   3.770   3.133   0.004  0.0816 -0.5902 -0.4462
12532TIP3    H159087   3.837   3.158  -0.060 -0.0704 -0.3932 -0.5331
12532TIP3    H259088   3.818   3.124   0.087 -0.0647  1.3328 -0.1223
12533TIP3   OH259089   3.019   1.490   3.471  0.4200 -0.5283 -0.1314
12533TIP3    H159090   3.073   1.537   3.407 -1.6116  0.5175 -1.1161
12533TIP3    H259091   2.930   1.518   3.452 -0.3986 -1.6106  2.0040
12534TIP3   OH259092   1.605   3.047   0.029  0.2769 -0.6360 -0.0152
12534TIP3    H159093   1.536   3.082   0.085  1.2023 -0.1231  0.8181
12534TIP3    H259094   1.669   3.010   0.090  1.0374 -0.5426 -0.7520
12535TIP3   OH259095   1.477   1.026   4.692  0.3848 -0.1362  0.1343
12535TIP3    H159096   1.508   1.109   4.656  2.4231 -1.2868 -0.8714
12535TIP3    H259097   1.420   1.051   4.764  1.2267  2.1303  0.0586
12536TIP3   OH259098   6.819   0.372  13.187  0.0021  0.4827  0.1168
12536TIP3    H159099   6.901   0.333  13.217 -0.1443  1.2387  1.5561
12536TIP3    H259100   6.844   0.427  13.113  0.5716 -0.3534 -0.3280
12537TIP3   OH259101   4.069   4.866  14.384 -0.3576 -1.0380  0.7875
12537TIP3    H159102   3.998   4.805  14.405  0.5971 -2.5457 -0.2599
12537TIP3    H259103   4.142   4.838  14.440 -0.2596 -0.1077  1.1453
12538TIP3   OH259104   0.581   0.270   3.600  0.3630  0.0877  0.5213
12538TIP3    H159105   0.538   0.325   3.535  0.9904  0.4800  0.4387
12538TIP3    H259106   0.670   0.257   3.566  0.0998 -1.3156  0.3237
12539TIP3   OH259107   6.447   5.007  16.122  0.1742 -0.5034 -0.0955
12539TIP3    H159108   6.485   4.920  16.107  0.8041 -0.4358  1.1063
12539TIP3    H259109   6.368   4.990  16.173 -0.7573 -0.5343 -1.5323
12540TIP3   OH259110   3.483   2.332   3.956  0.7572 -0.2977 -0.7209
12540TIP3    H159111   3.487   2.421   3.989 -0.7204 -0.1528 -0.9101
12540TIP3    H259112   3.393   2.304   3.973  1.3341 -1.9121 -0.2340
12541TIP3   OH259113   1.052   1.975   0.587  0.3905 -0.8638 -0.0086
12541TIP3    H159114   1.060   1.962   0.492  0.1673  0.2087 -0.1818
12541TIP3    H259115   0.973   2.029   0.597  1.9735  1.3802  0.5836
12542TIP3   OH259116   3.701   1.566  17.278  0.0382 -0.4539  0.3554
12542TIP3    H159117   3.642   1.534  17.347 -0.9409  0.7532  0.0834
12542TIP3    H259118   3.655   1.640  17.239 -0.1660 -2.1071 -2.7031
12543TIP3   OH259119   1.840   3.236  12.763 -0.2860  0.3483 -0.1781
12543TIP3    H159120   1.880   3.159  12.724  3.3484  2.2112 -0.3358
12543TIP3    H259121   1.831   3.298  12.691  2.6330  2.2843  0.9936
12544TIP3   OH259122   6.273   5.835  13.525  0.1389 -0.2602 -0.6220
12544TIP3    H159123   6.322   5.887  13.589 -1.4605 -0.2479  0.6225
12544TIP3    H259124   6.224   5.900  13.474 -0.0861 -0.4009 -0.5848
12545TIP3   OH259125   6.153   2.727   2.196 -0.4056 -0.6361  0.0216
12545TIP3    H159126   6.242   2.748   2.224 -0.5888 -0.0308  0.1475
12545TIP3    H259127   6.097   2.773   2.258 -0.8111  0.6056 -1.2481
12546TIP3   OH259128   6.816   6.602  12.555  0.5214 -0.0284  0.5072
12546TIP3    H159129   6.788   6.643  12.637  0.8100  1.7413 -0.2559
12546TIP3    H259130   6.907   6.578  12.570  0.1097 -1.1586  1.2445
12547TIP3   OH259131   3.411   4.875   1.759  0.2734 -0.6565  0.1840
12547TIP3    H159132   3.362   4.817   1.817 -0.7501  1.0180  1.0406
12547TIP3    H259133   3.348   4.896   1.689  0.1739  0.4986  0.6148
12548TIP3   OH259134   4.870   0.699  11.898  0.2694  0.1606 -0.4447
12548TIP3    H159135   4.953   0.746  11.907  0.8996 -1.3393  2.5007
12548TIP3    H259136   4.826   0.712  11.982 -1.8150 -0.3265 -1.4190
12549TIP3   OH259137   5.448   5.640   3.724 -0.4751  0.3117 -0.2914
12549TIP3    H159138   5.361   5.622   3.760 -0.4622  0.5123 -0.1567
12549TIP3    H259139   5.453   5.588   3.644 -0.6156  0.0867 -0.1524
12550TIP3   OH259140   5.752   2.865  15.995  0.5414 -0.2832  0.6689
12550TIP3    H159141   5.688   2.820  15.939 -0.2698  0.9500  0.5854
12550TIP3    H259142   5.707   2.944  16.024  2.5643  1.4355 -0.6818
12551TIP3   OH259143   3.049   0.036  14.848  0.1309  0.7316 -0.4524
12551TIP3    H159144   3.084  -0.002  14.929  2.5415  1.0863 -1.3021
12551TIP3    H259145   2.993   0.108  14.878 -0.4393 -0.2707  0.9577
12552TIP3   OH259146   5.078   5.580  14.031 -0.0467 -0.2609 -0.1308
12552TIP3    H159147   5.159   5.530  14.046  0.5835  0.2321 -1.7459
12552TIP3    H259148   5.052   5.610  14.118  1.5826 -0.3304  0.4037
12553TIP3   OH259149   1.531   0.795   0.826  0.1743 -0.0656 -0.2091
12553TIP3    H159150   1.554   0.857   0.895 -1.9538  0.2827  0.2076
12553TIP3    H259151   1.436   0.795   0.824  0.1785  0.1051 -3.2953
12554TIP3   OH259152   2.765   3.233   1.517  0.0520 -0.4523  0.8801
12554TIP3    H159153   2.719   3.248   1.434  1.9171 -1.8941 -0.4457
12554TIP3    H259154   2.807   3.317   1.537  0.4015 -0.3779 -0.1478
12555TIP3   OH259155   1.498   5.112   4.007 -0.0383 -0.5297  0.3688
12555TIP3    H159156   1.499   5.029   4.054 -0.2994 -1.0829 -0.5883
12555TIP3    H259157   1.434   5.166   4.055 -0.5005 -1.1755  0.4886
12556TIP3   OH259158   1.923   1.043  12.611  0.2295 -0.0338 -0.3871
12556TIP3    H159159   1.987   0.972  12.602  0.7334  0.4931 -0.9460
12556TIP3    H259160   1.975   1.123  12.607 -0.5184  0.4139 -1.2793
12557TIP3   OH259161   4.240   6.466   5.416 -0.1105 -0.4119  0.4996
12557TIP3    H159162   4.310   6.413   5.453 -0.7523 -2.3976 -1.0216
12557TIP3    H259163   4.229   6.433   5.327 -0.0709  2.7799 -0.7646
12558TIP3   OH259164   4.548   2.025  14.821 -0.1533 -0.2739 -0.7957
12558TIP3    H159165   4.610   1.968  14.867 -0.0441  0.8708  0.5417
12558TIP3    H259166   4.462   1.986  14.836 -0.0115 -0.4474 -0.4322
12559TIP3   OH259167   1.939   5.098   5.056  0.0235 -0.1784 -0.5422
12559TIP3    H159168   1.852   5.062   5.073 -0.1021 -0.0657 -0.9525
12559TIP3    H259169   1.946   5.102   4.961  0.1355  0.6349 -0.5062
12560TIP3   OH259170   0.115   3.060   0.982  0.2692  0.3045 -0.0910
12560TIP3    H159171   0.187   3.089   1.038  0.0165 -0.2942  0.5495
12560TIP3    H259172   0.038   3.104   1.017 -0.2229 -1.5438  1.2626
12561TIP3   OH259173   3.247   0.218   1.743 -0.1807 -0.3949  0.7208
12561TIP3    H159174   3.200   0.278   1.686  1.4304 -0.2997 -0.5545
12561TIP3    H259175   3.330   0.263   1.762  0.4698 -1.6199  0.8429
12562TIP3   OH259176   2.740   4.217   0.763 -0.3475  0.2788 -0.3866
12562TIP3    H159177   2.717   4.270   0.840 -0.7611 -0.4240 -0.0235
12562TIP3    H259178   2.705   4.130   0.782  1.7945 -0.5937 -0.2223
12563TIP3   OH259179   3.908   5.749  11.475 -0.4446 -0.2018  0.1419
12563TIP3    H159180   3.907   5.716  11.385 -0.0301 -0.5124  0.2458
12563TIP3    H259181   3.918   5.844  11.466 -0.1205 -0.2598 -0.1393
12564TIP3   OH259182   6.671   3.697  14.221 -0.4211  0.0800  0.0321
12564TIP3    H159183   6.637   3.688  14.132 -0.6141  2.9000 -0.2270
12564TIP3    H259184   6.615   3.764  14.261 -0.1453 -0.9374  2.1774
12565TIP3   OH259185   5.199   1.958  16.979  0.0155 -0.0997  0.1197
12565TIP3    H159186   5.217   1.937  17.070 -0.0430  0.8081  0.3400
12565TIP3    H259187   5.281   1.939  16.933 -0.1624 -1.2020  0.2431
12566TIP3   OH259188   4.642   1.838  12.341  0.0329  0.0590  0.3066
12566TIP3    H159189   4.669   1.854  12.251 -0.1023  2.2555  0.6082
12566TIP3    H259190   4.624   1.744  12.346 -2.3375  0.2883 -2.6008
12567TIP3   OH259191   4.963   5.610  10.442  0.0572  0.2455 -0.8510
12567TIP3    H159192   5.001   5.548  10.379 -1.0033 -1.3604  0.0537
12567TIP3    H259193   4.890   5.650  10.396 -0.1622 -0.2664 -0.9507
12568TIP3   OH259194   4.039   4.340   5.189 -0.2011  0.3941  0.2293
12568TIP3    H159195   3.957   4.297   5.165 -0.6968  1.0607  0.7329
12568TIP3    H259196   4.059   4.308   5.277  0.9218 -1.0091 -0.5101
12569TIP3   OH259197   0.795   3.198  16.878 -0.5152  0.2337 -0.2068
12569TIP3    H159198   0.870   3.242  16.839 -0.3705  0.2687  0.1102
12569TIP3    H259199   0.720   3.230  16.828 -0.0901 -1.6926 -2.1588
12570TIP3   OH259200   2.880   4.878  17.110 -0.4035  0.0986 -0.4174
12570TIP3    H159201   2.921   4.964  17.125 -0.5974  0.1653 -0.2643
12570TIP3    H259202   2.924   4.820  17.172 -0.5351  0.1685 -0.2582
12571TIP3   OH259203   1.164   2.547  15.125  1.0470 -0.7502  0.0909
12571TIP3    H159204   1.128   2.551  15.214 -0.9590  0.3704 -0.7532
12571TIP3    H259205   1.244   2.599  15.130  0.7136 -0.3112  1.1334
12572TIP3   OH259206   2.880   5.640  14.476  0.0086  1.1755 -0.0028
12572TIP3    H159207   2.803   5.697  14.484  1.1517  2.7104  0.3932
12572TIP3    H259208   2.850   5.554  14.504 -2.3434  1.0547 -2.7018
12573TIP3   OH259209   2.398   5.124  14.823 -0.5350  0.7053  0.2340
12573TIP3    H159210   2.438   5.169  14.749  1.2280  0.9916  1.3324
12573TIP3    H259211   2.469   5.115  14.887 -1.4170 -1.6367  0.9427
12574TIP3   OH259212   1.346   5.763   3.245 -0.5243 -0.0184  0.2423
12574TIP3    H159213   1.382   5.676   3.226 -1.3184 -0.4961  0.9308
12574TIP3    H259214   1.389   5.820   3.181 -1.2156 -1.1750 -1.3141
12575TIP3   OH259215   4.311   4.175   4.791 -0.3942 -1.0962 -0.5666
12575TIP3    H159216   4.245   4.117   4.830  2.0848 -3.7877 -0.2192
12575TIP3    H259217   4.285   4.180   4.699 -0.3625 -3.2246 -0.7233
12576TIP3   OH259218   6.261   4.359   1.361  0.2432  0.4158  0.2500
12576TIP3    H159219   6.245   4.446   1.397 -0.3344  0.5497 -0.3225
12576TIP3    H259220   6.314   4.374   1.283  2.0863  0.0736  1.4009
12577TIP3   OH259221   1.202   3.421   2.435  0.1086  0.7399 -0.3479
12577TIP3    H159222   1.159   3.462   2.510  1.6129  1.8045 -0.0584
12577TIP3    H259223   1.165   3.465   2.359  0.3754  1.3619 -0.1198
12578TIP3   OH259224   6.196   4.773   2.383 -0.1021 -0.2458 -0.6242
12578TIP3    H159225   6.134   4.703   2.366 -0.6266 -0.4950  2.0974
12578TIP3    H259226   6.176   4.840   2.318 -2.2385 -0.9598 -0.7321
12579TIP3   OH259227   0.018   2.791  13.238  0.2659  0.3237 -0.6433
12579TIP3    H159228   0.099   2.833  13.267  0.2584  1.4947 -2.2799
12579TIP3    H259229   0.043   2.742  13.159 -0.6255  0.7405 -1.1918
12580TIP3   OH259230   5.185   3.153  11.207  0.6173  0.4782  0.3290
12580TIP3    H159231   5.143   3.120  11.128 -0.6769  0.9014  0.8192
12580TIP3    H259232   5.141   3.107  11.279  0.9185  1.0023  0.8599
12581TIP3   OH259233   4.004   6.437  14.961 -0.2693  0.6680 -0.4962
12581TIP3    H159234   4.095   6.408  14.955  0.4663  3.0310 -1.5795
12581TIP3    H259235   3.961   6.372  15.017  2.4160  0.3190  1.2453
12582TIP3   OH259236   5.792   4.240  14.438 -0.8667 -0.6235  0.2720
12582TIP3    H159237   5.875   4.236  14.390 -1.2348 -0.2569 -0.4053
12582TIP3    H259238   5.780   4.152  14.473 -0.5585 -0.8776 -0.2594
12583TIP3   OH259239   5.898   1.304   5.565  0.0696  0.0865  0.0147
12583TIP3    H159240   5.977   1.324   5.614 -0.2409  0.6563  0.2848
12583TIP3    H259241   5.887   1.377   5.505 -0.4430  0.1891  0.2243
12584TIP3   OH259242   6.573   4.515   3.224 -0.4299 -0.2004  0.3929
12584TIP3    H159243   6.590   4.438   3.277  0.3800 -1.5591 -1.7507
12584TIP3    H259244   6.487   4.499   3.184 -0.8539  0.6193  0.9597
12585TIP3   OH259245   2.889   0.133  16.205  0.5569 -0.0136  0.1354
12585TIP3    H159246   2.894   0.038  16.219 -0.7165 -0.0708  0.2345
12585TIP3    H259247   2.798   0.155  16.221  0.6871  1.1224 -0.6262
12586TIP3   OH259248   1.348   2.676   5.872  0.0388 -0.3605 -0.0437
12586TIP3    H159249   1.301   2.723   5.942 -1.3066 -0.4138 -0.8899
12586TIP3    H259250   1.364   2.743   5.806 -1.1719 -0.8957 -0.8989
12587TIP3   OH259251   3.493   2.200  12.389 -0.2981  0.1128 -0.6162
12587TIP3    H159252   3.455   2.264  12.329 -0.4987 -0.7692 -1.4492
12587TIP3    H259253   3.543   2.141  12.332 -1.1539 -1.2226 -0.0186
12588TIP3   OH259254   4.874   4.128  15.408 -0.5351  0.1809 -0.5568
12588TIP3    H159255   4.902   4.128  15.500  1.1093 -0.3814 -1.0494
12588TIP3    H259256   4.910   4.047  15.372 -0.4247  0.8247 -1.9254
12589TIP3   OH259257   6.561   3.497  11.080  0.2651  0.1334 -0.0277
12589TIP3    H159258   6.657   3.499  11.076  0.3461 -2.1380 -0.1401
12589TIP3    H259259   6.533   3.514  10.990  0.4356  3.4758  0.4766
12590TIP3   OH259260   4.541   2.125  12.655 -0.0764  0.6574 -0.2590
12590TIP3    H159261   4.507   2.120  12.566 -0.5171  2.3005 -0.1969
12590TIP3    H259262   4.563   2.217  12.668 -0.9700  0.6441  1.6709
12591TIP3   OH259263   3.819   4.090   2.280 -0.2329  0.6051 -0.4425
12591TIP3    H159264   3.850   4.123   2.364  0.1931  0.7577 -0.6562
12591TIP3    H259265   3.741   4.040   2.301 -0.3986  1.0428 -0.0157
12592TIP3   OH259266   3.814   0.323   4.241 -0.2058 -0.4735 -0.5008
12592TIP3    H159267   3.870   0.396   4.267 -0.9039  0.0522 -0.4382
12592TIP3    H259268   3.790   0.342   4.150 -0.6968 -0.4248 -0.3629
12593TIP3   OH259269   4.496   5.566  16.898  0.4324 -0.0288  0.1519
12593TIP3    H159270   4.499   5.661  16.910 -1.2994  0.0979 -0.2633
12593TIP3    H259271   4.570   5.533  16.949  0.2015  1.4338  1.4791
12594TIP3   OH259272   0.525   0.095  14.301 -0.0511 -0.4172 -0.3476
12594TIP3    H159273   0.532   0.050  14.386 -0.1020  0.5914  0.1908
12594TIP3    H259274   0.556   0.184  14.318 -0.1953 -0.1689 -1.3601
12595TIP3   OH259275   0.584   5.890   5.983 -0.4136  0.3930 -0.0786
12595TIP3    H159276   0.651   5.942   6.027 -1.9651  1.7890  0.6246
12595TIP3    H259277   0.591   5.917   5.891  0.1262  0.3740 -0.0490
12596TIP3   OH259278   0.533   6.046   6.257  0.5326  0.1899  0.6238
12596TIP3    H159279   0.568   5.958   6.270 -0.9881 -0.7300 -1.3929
12596TIP3    H259280   0.611   6.101   6.245  1.3944 -1.2733 -0.5470
12597TIP3   OH259281   1.397   0.075   5.324  0.5577 -0.3132 -0.1250
12597TIP3    H159282   1.472   0.081   5.383  0.9119 -0.7203 -0.5334
12597TIP3    H259283   1.387  -0.018   5.306  1.5087 -0.0675 -2.0524
12598TIP3   OH259284   0.779   5.865   0.635  0.0246  0.2100  0.1304
12598TIP3    H159285   0.755   5.901   0.720  0.0775 -0.4583  0.4222
12598TIP3    H259286   0.701   5.817   0.606  1.4229 -3.1636  1.7081
12599TIP3   OH259287   0.646   5.662  11.465 -0.0392 -0.1397 -0.0386
12599TIP3    H159288   0.723   5.714  11.443  0.4747 -0.3409  1.2093
12599TIP3    H259289   0.661   5.577  11.423  1.2795 -0.7718  1.6387
12600TIP3   OH259290   6.286   2.257   4.285 -0.2339 -0.0918 -0.2442
12600TIP3    H159291   6.334   2.243   4.366 -2.4977 -0.2398  1.0990
12600TIP3    H259292   6.254   2.170   4.260 -1.1393  0.2421 -0.2716
12601TIP3   OH259293   4.298   6.548  17.215  0.2030 -0.3298  0.1293
12601TIP3    H159294   4.287   6.632  17.171 -0.3358 -0.9296 -0.8771
12601TIP3    H259295   4.389   6.523  17.196  0.3300 -0.0421  0.3367
12602TIP3   OH259296   4.054   3.334   5.263  0.1835 -0.2399 -0.0833
12602TIP3    H159297   4.083   3.321   5.353  1.8167 -0.1440 -0.5792
12602TIP3    H259298   4.132   3.317   5.210 -0.8418 -0.6071 -1.4967
12603TIP3   OH259299   1.803   0.834  15.841 -0.2199  0.2567  0.2907
12603TIP3    H159300   1.747   0.884  15.782 -0.7840 -2.2982 -1.4034
12603TIP3    H259301   1.892   0.862  15.821 -0.4269 -0.4573 -1.6534
12604TIP3   OH259302   4.723   3.786   1.405  0.1803  0.1352  0.2312
12604TIP3    H159303   4.705   3.845   1.478  1.5347  0.4172  0.3350
12604TIP3    H259304   4.809   3.812   1.373 -0.7224  0.5412 -1.9745
12605TIP3   OH259305   5.953   6.442   3.058 -0.1090 -0.2714 -0.3508
12605TIP3    H159306   6.038   6.444   3.101 -0.3431 -0.5945  0.1223
12605TIP3    H259307   5.930   6.350   3.053 -2.4320 -0.0125  3.4890
12606TIP3   OH259308   0.471   6.137  11.827  0.4080  0.2170  0.4302
12606TIP3    H159309   0.563   6.111  11.826 -0.0483 -1.4833  0.3577
12606TIP3    H259310   0.463   6.195  11.902  1.4583  0.0357  0.6954
12607TIP3   OH259311   6.545   3.048  14.512  0.1788 -0.3018 -0.7894
12607TIP3    H159312   6.615   3.089  14.461  0.7038  0.3164  0.4004
12607TIP3    H259313   6.478   3.026  14.448  1.1940 -0.3117 -1.8558
12608TIP3   OH259314   0.331   1.183   4.792  0.3423  0.4294  0.2109
12608TIP3    H159315   0.402   1.164   4.731 -0.0447  2.2931 -0.8562
12608TIP3    H259316   0.375   1.214   4.871  0.7845 -0.4617  0.3200
12609TIP3   OH259317   3.012   3.906   3.545  0.6465 -0.8401  0.5056
12609TIP3    H159318   3.011   3.872   3.635 -0.6301 -0.9947  0.4403
12609TIP3    H259319   3.065   3.843   3.496 -0.7193 -2.0970  0.6382
12610TIP3   OH259320   5.696   1.734  16.971 -0.1523 -0.2285 -0.2712
12610TIP3    H159321   5.650   1.780  17.042 -1.8681 -2.5788  0.1961
12610TIP3    H259322   5.648   1.760  16.892 -2.8273 -3.1913  0.2889
12611TIP3   OH259323   5.548   2.464  16.164 -0.1417  0.4890  0.1389
12611TIP3    H159324   5.543   2.556  16.188  1.6233  0.8605 -0.8162
12611TIP3    H259325   5.564   2.418  16.246  0.9472  1.2465  0.3606
12612TIP3   OH259326   2.027   4.521   3.124  0.3510  0.3302  0.1078
12612TIP3    H159327   2.073   4.538   3.206  2.1818  2.5534 -1.3038
12612TIP3    H259328   2.056   4.434   3.098  4.2648  1.8552 -0.9821
12613TIP3   OH259329   4.271   2.322  12.416  0.0128 -0.2258  0.7540
12613TIP3    H159330   4.348   2.350  12.465 -0.3216 -1.6354  2.1313
12613TIP3    H259331   4.212   2.286  12.483 -0.2818 -2.5780 -0.7131
12614TIP3   OH259332   4.939   2.722   2.691 -0.1204  0.4436  0.2098
12614TIP3    H159333   4.885   2.643   2.695  0.2862  0.2107  1.4900
12614TIP3    H259334   4.887   2.788   2.737 -0.5070  0.9461 -0.9519
12615TIP3   OH259335   2.288   6.265   2.811 -0.0027 -0.8054 -0.7293
12615TIP3    H159336   2.308   6.359   2.820  0.6391 -1.1816  2.5535
12615TIP3    H259337   2.205   6.263   2.764  0.4688  1.3589 -1.7585
12616TIP3   OH259338   1.057   5.657   2.661  0.8963  0.1068 -0.0409
12616TIP3    H159339   0.994   5.693   2.598  1.2485 -0.8074 -0.9237
12616TIP3    H259340   1.059   5.563   2.642 -2.7191 -1.1202  4.5449
12617TIP3   OH259341   5.468   6.418  11.242  0.5455  0.3453  0.1740
12617TIP3    H159342   5.491   6.412  11.335  0.5479  0.0110  0.1532
12617TIP3    H259343   5.548   6.448  11.199  0.9319 -0.7826  0.1035
12618TIP3   OH259344   5.350   5.383   2.336  0.0009 -0.3442 -0.2014
12618TIP3    H159345   5.346   5.288   2.349 -3.8515 -0.0475  1.3857
12618TIP3    H259346   5.415   5.413   2.399  0.9976 -1.8728 -0.4724
12619TIP3   OH259347   2.176   3.104  14.102 -0.1009 -0.2532 -0.0349
12619TIP3    H159348   2.266   3.073  14.094 -0.2769 -0.5830 -0.7596
12619TIP3    H259349   2.135   3.045  14.166  0.3925  0.3438  0.8401
12620TIP3   OH259350   0.060   2.340  13.432  0.4047 -0.0396 -0.2426
12620TIP3    H159351  -0.018   2.287  13.449 -0.5792  1.4419 -0.0483
12620TIP3    H259352   0.060   2.352  13.337  1.2989 -1.3769 -0.4242
12621TIP3   OH259353   0.670   2.709   0.414 -0.2111  0.0037 -0.0180
12621TIP3    H159354   0.748   2.726   0.467 -1.0776  1.5987  0.8049
12621TIP3    H259355   0.630   2.631   0.455  0.1864  0.0410  0.4467
12622TIP3   OH259356   1.949   3.195  16.503  0.1961 -0.0502  0.7560
12622TIP3    H159357   1.979   3.134  16.570 -0.5461  0.4175  1.5308
12622TIP3    H259358   1.958   3.147  16.420  1.0806 -0.6452  1.1947
12623TIP3   OH259359   4.833   2.207   0.829 -0.1540 -0.0512  0.1827
12623TIP3    H159360   4.881   2.289   0.813 -2.1347  1.4233  1.5280
12623TIP3    H259361   4.806   2.178   0.742 -0.8676  1.6710 -0.1976
12624TIP3   OH259362   0.475   5.094   2.214 -0.3350 -0.2367  0.1980
12624TIP3    H159363   0.482   5.045   2.131 -0.8252  0.9782 -0.5814
12624TIP3    H259364   0.387   5.133   2.210 -0.0986  0.3612  1.0002
12625TIP3   OH259365   0.478   5.316   4.628  0.8130 -0.1445 -0.2267
12625TIP3    H159366   0.482   5.228   4.592  1.4156 -0.0537 -0.3851
12625TIP3    H259367   0.390   5.323   4.665  0.2804 -0.3485 -1.4096
12626TIP3   OH259368   5.235   5.257  15.777 -0.2761  0.1045 -0.1249
12626TIP3    H159369   5.263   5.293  15.693  0.8719 -0.6066 -0.0514
12626TIP3    H259370   5.308   5.274  15.837  0.2409 -2.1855 -0.0657
12627TIP3   OH259371   4.560   1.783   5.376  0.6923  0.1934 -0.0708
12627TIP3    H159372   4.623   1.712   5.389  0.6502 -0.0161 -0.9550
12627TIP3    H259373   4.474   1.743   5.393  0.6920  0.1136 -0.2625
12628TIP3   OH259374   3.695   4.795   4.070  0.0490  0.5685  0.1127
12628TIP3    H159375   3.728   4.733   4.005 -2.3922  0.0960 -0.7242
12628TIP3    H259376   3.621   4.749   4.111 -1.0330  2.4487  0.3253
12629TIP3   OH259377   0.188   6.019  14.157 -0.7681 -0.5543 -0.1571
12629TIP3    H159378   0.205   5.950  14.222  0.5991 -1.2018 -1.1778
12629TIP3    H259379   0.095   6.010  14.137 -0.6917 -1.8829 -0.0046
12630TIP3   OH259380   1.918   1.594   3.247 -0.0482  0.6639 -0.0154
12630TIP3    H159381   1.895   1.674   3.199 -0.6167 -0.5744 -1.8167
12630TIP3    H259382   1.984   1.623   3.310  0.1048  2.4776 -0.9724
12631TIP3   OH259383   5.056   1.711   4.208  0.4425 -0.6599 -0.2352
12631TIP3    H159384   5.124   1.652   4.241  0.2720 -1.1291 -0.7230
12631TIP3    H259385   5.037   1.680   4.120  0.4401  0.2059 -0.5449
12632TIP3   OH259386   3.278   3.618  17.259  0.5363 -0.0428 -0.1602
12632TIP3    H159387   3.203   3.669  17.228  0.8824  0.2437 -0.5369
12632TIP3    H259388   3.279   3.633  17.354 -0.4140 -0.7745 -0.0227
12633TIP3   OH259389   0.887   0.368  16.679  0.4346 -0.1921 -0.5170
12633TIP3    H159390   0.849   0.424  16.746 -0.2470  0.4681 -1.4303
12633TIP3    H259391   0.813   0.319  16.643  0.5922  0.3485 -1.6077
12634TIP3   OH259392   6.186   0.983   5.830 -0.2012 -0.0601 -0.2413
12634TIP3    H159393   6.093   0.997   5.811 -0.6028 -2.3042 -0.0204
12634TIP3    H259394   6.229   1.062   5.795 -2.1400  0.9088 -0.5468
12635TIP3   OH259395   2.311   4.364  15.637  0.1392  0.1343  0.1445
12635TIP3    H159396   2.240   4.428  15.642 -0.8406 -0.9050 -0.2797
12635TIP3    H259397   2.336   4.348  15.728  0.0638  0.7631  0.2782
12636TIP3   OH259398   4.114   0.892  15.813 -0.2766 -0.2807 -0.1007
12636TIP3    H159399   4.100   0.987  15.812  0.3034 -0.1785  0.6680
12636TIP3    H259400   4.137   0.872  15.903 -0.5443 -1.1826 -0.2270
12637TIP3   OH259401   3.075   1.685   5.153  0.1341 -0.0689 -0.0573
12637TIP3    H159402   3.050   1.597   5.181 -0.1681  0.0641  0.0862
12637TIP3    H259403   3.128   1.671   5.074  0.6204 -0.4182  0.3256
12638TIP3   OH259404   5.639   6.562   0.052 -0.3189 -0.3453  0.2230
12638TIP3    H159405   5.661   6.531   0.140 -0.2065 -1.0549 -0.0507
12638TIP3    H259406   5.551   6.598   0.060 -0.3076 -0.4086  0.6288
12639TIP3   OH259407   5.931   6.243   0.498 -0.5332 -0.2286  0.0688
12639TIP3    H159408   5.878   6.320   0.516  0.1345  0.1421  0.4704
12639TIP3    H259409   5.924   6.190   0.578  0.7299  0.4259  0.6254
12640TIP3   OH259410   0.906   2.128  12.060 -0.2483 -0.0998  0.9187
12640TIP3    H159411   0.824   2.095  12.096 -1.7328  0.5661 -1.7170
12640TIP3    H259412   0.912   2.218  12.093 -0.6986 -0.0644  0.8953
12641TIP3   OH259413   2.236   3.476  13.323 -0.8187  0.4011  0.3376
12641TIP3    H159414   2.158   3.520  13.291 -1.4763  0.6817  2.2597
12641TIP3    H259415   2.292   3.547  13.356  0.7761  0.3194 -2.0612
12642TIP3   OH259416   2.511   3.307  12.782 -0.4590  0.1263  0.1261
12642TIP3    H159417   2.551   3.391  12.806  2.4228 -0.6456 -1.7666
12642TIP3    H259418   2.447   3.329  12.715 -0.0826  0.8656  0.0064
12643TIP3   OH259419   4.376   6.450   4.816 -0.0053  0.4778  0.6882
12643TIP3    H159420   4.290   6.411   4.831  0.6749 -0.8944  1.1101
12643TIP3    H259421   4.438   6.386   4.851  1.1680  1.7206  0.9517
12644TIP3   OH259422   1.905   1.116  14.917 -0.1343  0.1540  0.1154
12644TIP3    H159423   1.879   1.158  15.000 -0.7921 -0.6733  0.3370
12644TIP3    H259424   1.854   1.161  14.850  0.1668  0.6176  0.1986
12645TIP3   OH259425   6.303   2.466   2.033  0.4640  0.0384  0.1107
12645TIP3    H159426   6.261   2.542   2.072  2.1890 -0.3788  2.9480
12645TIP3    H259427   6.322   2.492   1.943 -0.1328  2.4852  0.6581
12646TIP3   OH259428   5.031   5.213  15.165  0.1295  0.2160  0.8215
12646TIP3    H159429   5.095   5.266  15.117  0.0583  0.1601  0.6647
12646TIP3    H259430   4.976   5.277  15.210 -0.6157  0.3065 -0.2088
12647TIP3   OH259431   1.044   0.103  16.128  0.1924 -0.1769  0.3129
12647TIP3    H159432   1.000   0.180  16.094  2.0421  1.1162  0.7667
12647TIP3    H259433   1.100   0.074  16.056  1.2773  0.3264  0.9458
12648TIP3   OH259434   1.261   2.719   4.566  0.4321  0.2062 -0.0683
12648TIP3    H159435   1.297   2.633   4.542 -0.6637 -0.8358  1.8479
12648TIP3    H259436   1.337   2.772   4.588  1.0545 -0.7213  0.0584
12649TIP3   OH259437   2.954   5.169   3.802 -0.0418  0.1688 -0.1645
12649TIP3    H159438   2.999   5.127   3.729 -0.1197  1.0279 -0.7204
12649TIP3    H259439   2.988   5.125   3.880  1.4785  0.5285 -0.6017
12650TIP3   OH259440   3.649   1.039   2.370  0.5498 -0.5378  0.6063
12650TIP3    H159441   3.699   1.096   2.312 -0.0211  1.9989  2.5141
12650TIP3    H259442   3.619   0.967   2.314  2.7914  0.0919 -1.4571
12651TIP3   OH259443   0.972   6.734   4.508  0.7340 -0.1350 -0.3237
12651TIP3    H159444   0.929   6.661   4.464  1.1035 -0.3337 -0.3621
12651TIP3    H259445   0.924   6.744   4.590 -0.3588  0.6474 -1.0536
12652TIP3   OH259446   0.958   3.873   3.720 -0.2182 -0.2021 -0.1054
12652TIP3    H159447   0.900   3.882   3.644 -0.7092  0.1683  0.3089
12652TIP3    H259448   0.945   3.783   3.750 -0.4770 -0.1618 -0.0990
12653TIP3   OH259449   1.752   4.394   6.248  0.3329 -0.4995  0.0092
12653TIP3    H159450   1.742   4.415   6.341  2.4972 -0.1956  0.2006
12653TIP3    H259451   1.828   4.336   6.245 -0.5204 -1.5684 -1.4428
12654TIP3   OH259452   4.827   4.162   5.515  0.0806  0.1900 -0.8458
12654TIP3    H159453   4.802   4.079   5.473 -0.3781  0.5867 -1.3649
12654TIP3    H259454   4.869   4.212   5.446 -0.1521  0.6148 -0.6805
12655TIP3   OH259455   1.087   0.557   4.488  0.7205  0.4139  0.0167
12655TIP3    H159456   1.127   0.644   4.492  3.6879 -0.9360  1.0572
12655TIP3    H259457   1.070   0.533   4.579 -2.0446  0.7360 -0.3801
12656TIP3   OH259458   5.866   6.619   4.836 -0.0839  0.1579  0.0660
12656TIP3    H159459   5.937   6.607   4.899  0.3563 -2.3726 -0.8563
12656TIP3    H259460   5.786   6.607   4.888  0.1918  1.3780  0.7842
12657TIP3   OH259461   2.058   1.319   0.806 -0.5384  0.1530 -0.5122
12657TIP3    H159462   1.986   1.271   0.767 -0.3130 -0.4698 -0.1604
12657TIP3    H259463   2.134   1.261   0.798  0.3120  1.4582 -2.3796
12658TIP3   OH259464   1.404   6.012  12.431  0.0722 -0.0204  0.2790
12658TIP3    H159465   1.374   6.090  12.478  0.5952 -0.2195  0.9372
12658TIP3    H259466   1.497   6.005  12.453 -0.4862 -2.1869  2.1072
12659TIP3   OH259467   4.931   4.828   2.387 -0.2820  0.2637  0.5900
12659TIP3    H159468   4.928   4.752   2.328  0.7064  1.6522 -1.2815
12659TIP3    H259469   4.951   4.902   2.330  0.0955  1.7431  2.5974
12660TIP3   OH259470   3.445   5.644   1.290  0.5019  0.5328  0.7796
12660TIP3    H159471   3.540   5.634   1.280  0.1817 -1.3218 -0.6091
12660TIP3    H259472   3.426   5.728   1.248  1.7485  1.8160  2.6820
12661TIP3   OH259473   2.095   5.207  17.186 -1.0414 -0.0038 -0.3715
12661TIP3    H159474   2.145   5.142  17.137  1.0951  1.6809 -0.4977
12661TIP3    H259475   2.082   5.167  17.272 -0.6941 -1.0350 -0.7890
12662TIP3   OH259476   1.937   0.741  11.445  0.0519 -1.3340  0.0654
12662TIP3    H159477   1.987   0.677  11.497 -0.3157 -2.3491 -0.8155
12662TIP3    H259478   1.951   0.824  11.490  1.2562 -1.8813  0.7250
12663TIP3   OH259479   3.604   2.473   1.048 -0.4782 -0.0295 -0.0864
12663TIP3    H159480   3.592   2.429   1.133 -0.2791  0.1687  0.0465
12663TIP3    H259481   3.536   2.437   0.992  1.8472 -3.1818 -1.0427
12664TIP3   OH259482   1.280   0.236   0.999  0.3210  0.0028 -0.0707
12664TIP3    H159483   1.200   0.241   0.947  0.5419 -2.6426 -0.7481
12664TIP3    H259484   1.255   0.187   1.077  1.1164 -0.2279  0.0406
12665TIP3   OH259485   3.300   6.767   0.098  0.7052 -0.1242 -0.2896
12665TIP3    H159486   3.381   6.815   0.079  0.8029  0.3129  1.1772
12665TIP3    H259487   3.258   6.818   0.168  0.4127 -1.7390  0.7236
12666TIP3   OH259488   3.641   4.807   1.886  0.5301  0.2048  0.9676
12666TIP3    H159489   3.627   4.716   1.860  2.6068 -0.0091  0.5357
12666TIP3    H259490   3.563   4.853   1.854  0.0289 -1.2041  0.1284
12667TIP3   OH259491   1.104   4.806  15.433 -0.3543 -0.6004 -0.9621
12667TIP3    H159492   1.037   4.858  15.388 -1.0549 -0.3473  0.3542
12667TIP3    H259493   1.090   4.824  15.526  1.4305 -0.6966 -0.6674
12668TIP3   OH259494   0.354   0.511   6.989  0.1082 -0.6638 -0.1234
12668TIP3    H159495   0.433   0.479   6.945  0.3807 -1.2271  0.7649
12668TIP3    H259496   0.359   0.607   6.981  1.1096 -0.6764  0.3134
12669TIP3   OH259497   5.002   1.551   2.543 -0.1881 -0.2111  0.3791
12669TIP3    H159498   5.005   1.528   2.636  2.0410 -0.0214  0.3749
12669TIP3    H259499   5.035   1.473   2.499 -2.1508 -0.6570 -0.3381
12670TIP3   OH259500   1.252   6.084  16.606  0.1820 -0.3567 -0.3296
12670TIP3    H159501   1.262   5.991  16.625  2.0292  0.6630  4.4524
12670TIP3    H259502   1.194   6.116  16.676 -0.4153  2.1015 -1.8941
12671TIP3   OH259503   2.278   2.721  11.265 -0.1329 -0.0804  0.6796
12671TIP3    H159504   2.271   2.721  11.170 -0.3845 -0.1538  0.6959
12671TIP3    H259505   2.283   2.628  11.288 -1.0879 -0.1029  0.8038
12672TIP3   OH259506   2.934   1.294   5.945 -0.1638  0.0066  0.1374
12672TIP3    H159507   3.030   1.288   5.941 -0.1414  0.1736  0.4204
12672TIP3    H259508   2.903   1.222   5.891  0.1255  0.5554 -0.7743
12673TIP3   OH259509   5.352   4.841  14.687 -0.3845 -0.2774  0.1586
12673TIP3    H159510   5.357   4.746  14.679  1.0770 -0.3564  1.5910
12673TIP3    H259511   5.301   4.855  14.767 -3.0711  0.2153 -1.5896
12674TIP3   OH259512   5.729   6.105   1.919  0.6422  0.4878  0.5973
12674TIP3    H159513   5.715   6.017   1.954 -1.1335 -0.3193 -1.9957
12674TIP3    H259514   5.684   6.163   1.980 -1.6143 -0.7931  0.2121
12675TIP3   OH259515   6.810   4.592   2.734  0.3740  0.1502 -0.6306
12675TIP3    H159516   6.752   4.539   2.679 -0.0566 -0.0667  0.0334
12675TIP3    H259517   6.766   4.596   2.818  1.8835 -1.0334  0.2502
12676TIP3   OH259518   0.812   6.594  13.600  0.6801 -0.1301 -0.1308
12676TIP3    H159519   0.744   6.561  13.659  0.1515  1.7492  0.3383
12676TIP3    H259520   0.894   6.562  13.638  0.2708  0.2827  1.1170
12677TIP3   OH259521   3.582   2.594   4.933 -0.3834 -0.5191 -0.2034
12677TIP3    H159522   3.563   2.652   5.007 -0.9023  0.3776 -1.0283
12677TIP3    H259523   3.508   2.533   4.930 -0.3520 -0.5678  0.0267
12678TIP3   OH259524   1.591   5.615   3.389 -0.2068  0.1973  0.6768
12678TIP3    H159525   1.496   5.615   3.378 -0.1448 -0.5431  0.0935
12678TIP3    H259526   1.614   5.522   3.392  0.7696  0.3242 -1.7262
12679TIP3   OH259527   5.762   2.282   1.860  0.1075 -0.9983  0.4770
12679TIP3    H159528   5.726   2.352   1.806 -2.0692 -1.3167  1.4580
12679TIP3    H259529   5.763   2.318   1.949  1.7235 -1.1923  0.5434
12680TIP3   OH259530   5.024   1.138  13.839  0.4990  0.2999 -0.1574
12680TIP3    H159531   5.030   1.194  13.916 -0.4576  1.4447 -0.8915
12680TIP3    H259532   4.931   1.124  13.826  0.6493  0.2002 -1.1707
12681TIP3   OH259533   6.761   5.663   5.093 -0.4148 -0.5102 -0.2685
12681TIP3    H159534   6.853   5.650   5.115 -0.6368 -2.1133 -0.2526
12681TIP3    H259535   6.750   5.758   5.090  1.3004 -0.3196 -0.5598
12682TIP3   OH259536   1.082   3.317  15.343  0.3629 -0.0483  0.6527
12682TIP3    H159537   1.134   3.370  15.283  0.1900 -2.8564 -2.0787
12682TIP3    H259538   0.999   3.302  15.297 -0.9258  0.1614  2.8241
12683TIP3   OH259539   4.537   1.809   2.579  0.1260  1.0586  0.2746
12683TIP3    H159540   4.519   1.733   2.524  0.4804  0.4315  1.0270
12683TIP3    H259541   4.626   1.835   2.555  0.1926  0.9292  0.3834
12684TIP3   OH259542   4.570   1.476   2.277  0.1971 -0.7339 -0.2060
12684TIP3    H159543   4.559   1.536   2.203  0.6676 -1.2291 -0.6865
12684TIP3    H259544   4.524   1.518   2.349  0.5750  0.2394 -0.5165
12685TIP3   OH259545   4.120   2.541   5.625 -0.0056 -0.0182 -0.1190
12685TIP3    H159546   4.078   2.507   5.704  0.9476  0.2552  0.5146
12685TIP3    H259547   4.071   2.620   5.604 -1.1553 -0.8512 -0.6207
12686TIP3   OH259548   1.143   2.860  13.569 -0.0557  1.2407  0.3705
12686TIP3    H159549   1.185   2.927  13.623  3.7746 -0.6291 -0.0760
12686TIP3    H259550   1.157   2.778  13.617 -0.3014  0.1298 -1.3987
12687TIP3   OH259551   2.414   2.532  12.705  0.0558 -0.2406 -0.5549
12687TIP3    H159552   2.369   2.611  12.676  0.0611 -0.0092  0.0550
12687TIP3    H259553   2.485   2.521  12.642  0.6169  0.7707 -0.1171
12688TIP3   OH259554   5.280   4.375  11.205 -0.1198  0.4381  1.0705
12688TIP3    H159555   5.303   4.282  11.212 -1.1848  0.0101 -0.8349
12688TIP3    H259556   5.185   4.376  11.204 -0.1136  1.3826 -0.8604
12689TIP3   OH259557   0.922   1.724  12.108 -0.3685 -0.5669  0.7932
12689TIP3    H159558   0.852   1.777  12.145  0.4019 -0.6174  2.3476
12689TIP3    H259559   0.941   1.658  12.175  1.1208 -0.5965  0.3731
12690TIP3   OH259560   5.407   0.740  16.631  0.2055 -0.0099 -0.0421
12690TIP3    H159561   5.383   0.688  16.554  0.5764  1.8201 -1.4379
12690TIP3    H259562   5.485   0.789  16.603  1.3864 -0.6347  2.0922
12691TIP3   OH259563   1.418   0.979  12.753  0.4544  0.6256  0.2716
12691TIP3    H159564   1.494   1.025  12.718 -0.0454  2.9131  2.0246
12691TIP3    H259565   1.397   0.912  12.687  2.3651  1.6971 -1.4736
12692TIP3   OH259566   0.638   6.092  16.025  0.5405  0.5441 -0.3874
12692TIP3    H159567   0.680   6.113  15.941  0.5379  0.6242 -0.3687
12692TIP3    H259568   0.608   6.002  16.014 -1.5989  1.3499 -1.3524
12693TIP3   OH259569   6.678   0.708   1.280 -0.4610  0.0182  0.2650
12693TIP3    H159570   6.690   0.616   1.304  0.6834 -0.1685 -0.9316
12693TIP3    H259571   6.607   0.707   1.216  0.2937 -0.1922 -0.5889
12694TIP3   OH259572   5.352   4.228   0.750 -0.5530 -0.3215 -0.6878
12694TIP3    H159573   5.312   4.304   0.793  1.6923  1.9439 -2.4557
12694TIP3    H259574   5.299   4.215   0.671 -0.6698 -0.3231 -0.6102
12695TIP3   OH259575   3.767   2.161   2.066  0.0494  0.3794 -0.9572
12695TIP3    H159576   3.723   2.078   2.047  0.1100  0.5039 -1.6252
12695TIP3    H259577   3.828   2.139   2.137 -0.1205 -0.0882 -0.9525
12696TIP3   OH259578   2.536   1.849   5.940  0.0108 -0.4084  0.0811
12696TIP3    H159579   2.452   1.885   5.966  0.4361  0.8546 -0.2196
12696TIP3    H259580   2.540   1.863   5.845 -0.1810 -2.0618 -0.1842
12697TIP3   OH259581   0.444   0.209  12.776 -0.6337 -0.7286  0.3652
12697TIP3    H159582   0.489   0.234  12.857 -0.9238 -2.6765  1.1418
12697TIP3    H259583   0.357   0.249  12.784 -0.0922  0.5273  0.2098
12698TIP3   OH259584   6.547   4.994   0.211 -0.4910 -0.3394 -0.0784
12698TIP3    H159585   6.498   5.057   0.263  0.5940  0.1953  0.3134
12698TIP3    H259586   6.481   4.934   0.176 -1.5240  1.0207 -0.4750
12699TIP3   OH259587   3.977   4.296   5.462  0.1153  0.1571  0.2208
12699TIP3    H159588   3.906   4.232   5.458 -0.7699  1.0432  1.5082
12699TIP3    H259589   4.027   4.272   5.540  1.3916 -0.6051 -0.8071
12700TIP3   OH259590   6.190   3.708   1.843  0.3461 -0.4884 -0.1366
12700TIP3    H159591   6.280   3.739   1.850  0.1480 -0.3789  2.4235
12700TIP3    H259592   6.199   3.615   1.823  0.9885 -0.0661 -1.8950
12701TIP3   OH259593   6.106   6.719   0.476  0.0724 -0.0737  0.3552
12701TIP3    H159594   6.029   6.671   0.445  0.1976  0.6116 -1.0760
12701TIP3    H259595   6.093   6.728   0.570 -2.2887  1.2491 -0.0514
12702TIP3   OH259596   3.331   6.031  11.666  0.0087  0.0682  0.0917
12702TIP3    H159597   3.372   6.090  11.603  0.3218  0.6897  0.8637
12702TIP3    H259598   3.392   6.030  11.740 -0.7419 -0.0179  0.7122
12703TIP3   OH259599   6.801   0.099   5.888 -0.1520 -0.2558  0.6877
12703TIP3    H159600   6.786   0.103   5.794  1.8630  0.3379  0.3611
12703TIP3    H259601   6.720   0.133   5.927 -0.1550  1.6467 -0.9076
12704TIP3   OH259602   1.923   4.122   2.619 -0.3610  0.1476  0.2404
12704TIP3    H159603   1.862   4.053   2.646 -0.7428 -0.3132 -1.6937
12704TIP3    H259604   2.009   4.081   2.625 -0.5907 -0.5601 -0.9597
12705TIP3   OH259605   5.104   1.889   4.440  0.0902 -0.0041 -0.3243
12705TIP3    H159606   5.124   1.832   4.514 -0.9854  0.4055  0.2987
12705TIP3    H259607   5.098   1.830   4.365  2.9703 -0.2134 -0.4485
12706TIP3   OH259608   3.248   0.525  12.813  0.0942  0.1460 -0.0275
12706TIP3    H159609   3.248   0.563  12.901  0.5838 -1.0392  0.4993
12706TIP3    H259610   3.331   0.478  12.807  0.7529  1.4674 -1.6944
12707TIP3   OH259611   6.744   6.105   2.075 -0.1347  0.1866  0.1381
12707TIP3    H159612   6.787   6.069   1.997  1.5746 -1.5510  1.8184
12707TIP3    H259613   6.737   6.199   2.057  3.1214  0.3171 -0.8289
12708TIP3   OH259614   0.095   5.304   1.170 -0.6291 -0.0932 -0.5614
12708TIP3    H159615   0.003   5.287   1.149 -1.1475  1.0108  0.6747
12708TIP3    H259616   0.095   5.395   1.203  0.9999  0.1347 -1.1483
12709TIP3   OH259617   0.451   6.035   4.306  0.0103  0.1498 -0.2495
12709TIP3    H159618   0.370   6.085   4.318 -1.0290 -1.3139 -0.9956
12709TIP3    H259619   0.488   6.029   4.394 -1.5086 -0.5016  0.3684
12710TIP3   OH259620   1.320   0.846   3.444  0.2046 -0.0434 -0.1128
12710TIP3    H159621   1.296   0.819   3.533 -0.4977  1.5373  0.1952
12710TIP3    H259622   1.357   0.933   3.455  2.7481 -0.9700 -1.0436
12711TIP3   OH259623   3.669   3.188   3.989  0.2431  0.2588 -0.1599
12711TIP3    H159624   3.746   3.177   4.044 -0.5161 -0.2992  0.8011
12711TIP3    H259625   3.596   3.161   4.044 -0.9062  2.9710 -0.2508
12712TIP3   OH259626   5.433   2.732   5.738 -0.1723 -0.3587 -0.3469
12712TIP3    H159627   5.363   2.670   5.759  0.2334 -0.7672 -0.2047
12712TIP3    H259628   5.513   2.680   5.738  0.5341  0.6287  2.4193
12713TIP3   OH259629   3.311   2.886  17.181 -0.1071 -0.1402 -0.5061
12713TIP3    H159630   3.387   2.911  17.128 -0.7685  0.3608 -1.2266
12713TIP3    H259631   3.296   2.961  17.238  1.3759 -1.1688  1.3161
12714TIP3   OH259632   3.781   3.987  16.158  0.3747 -0.4085 -0.5420
12714TIP3    H159633   3.750   4.024  16.075  0.3445 -1.1458 -0.8637
12714TIP3    H259634   3.716   4.013  16.222  0.8708  0.9435 -0.5709
12715TIP3   OH259635   3.241   2.009  16.353  0.1357  0.1178 -0.1141
12715TIP3    H159636   3.336   2.001  16.347  0.2574 -1.3207  2.8082
12715TIP3    H259637   3.226   2.084  16.411 -0.4883 -0.2489  0.2087
12716TIP3   OH259638   1.252   6.590   3.873  0.2812 -0.0878  0.7713
12716TIP3    H159639   1.165   6.550   3.874  0.1287  0.2407  1.2841
12716TIP3    H259640   1.289   6.566   3.788  0.1614 -1.2429  1.0272
12717TIP3   OH259641   5.809   4.861  10.648  0.4391 -0.0827 -0.0982
12717TIP3    H159642   5.831   4.943  10.693 -0.7779 -0.5423  1.4058
12717TIP3    H259643   5.830   4.877  10.556  1.4347  1.4648  0.3753
12718TIP3   OH259644   6.331   2.187   2.965 -0.6482 -0.3295  0.4024
12718TIP3    H159645   6.401   2.240   3.003  0.7021 -1.5952 -0.2930
12718TIP3    H259646   6.329   2.108   3.018 -0.4365 -1.0111 -0.5888
12719TIP3   OH259647   2.667   2.604  15.363 -0.0868  0.2161 -0.3847
12719TIP3    H159648   2.737   2.602  15.429 -0.5633 -0.7375  0.0943
12719TIP3    H259649   2.659   2.697  15.341  0.6073  0.4571  0.3287
12720TIP3   OH259650   2.112   5.412   4.954  0.0498 -0.7917  0.3208
12720TIP3    H159651   2.142   5.483   5.010 -0.5372 -0.4991  0.2652
12720TIP3    H259652   2.099   5.338   5.013  0.3840 -0.7656  0.4230
12721TIP3   OH259653   3.956   6.092   2.217  0.2746  0.2411  0.2625
12721TIP3    H159654   3.871   6.049   2.208  0.5537 -0.5030  1.1572
12721TIP3    H259655   3.935   6.181   2.245 -0.2645  0.4465 -0.7795
12722TIP3   OH259656   0.903   0.546  14.919 -0.3820  0.3655  0.8664
12722TIP3    H159657   0.907   0.597  14.838  0.6356  1.9144  1.8685
12722TIP3    H259658   0.873   0.607  14.986 -0.0796 -0.5862  1.8983
12723TIP3   OH259659   1.387   3.747   4.150  0.8567 -0.5153  0.2076
12723TIP3    H159660   1.338   3.744   4.233 -0.5061  0.3146 -0.5506
12723TIP3    H259661   1.448   3.674   4.156 -1.2453 -2.2846  0.7063
12724TIP3   OH259662   5.670   0.249   1.589 -0.1754  0.0644 -0.2347
12724TIP3    H159663   5.583   0.246   1.550 -0.9036 -0.6020  1.4276
12724TIP3    H259664   5.689   0.159   1.613  0.2936  0.4623  0.9124
12725TIP3   OH259665   2.239   3.368  14.054  0.6491  0.1156  0.0459
12725TIP3    H159666   2.334   3.361  14.064  0.6021 -1.8580 -0.7064
12725TIP3    H259667   2.207   3.278  14.062 -1.2840  0.8681  1.3783
12726TIP3   OH259668   3.729   5.870  10.840  0.3544  0.2426 -0.1044
12726TIP3    H159669   3.654   5.922  10.870  0.0293  0.2246 -0.8811
12726TIP3    H259670   3.796   5.934  10.818  1.6507  0.1784  3.3763
12727TIP3   OH259671   6.507   2.115   0.936 -0.0535  0.3140  0.2659
12727TIP3    H159672   6.550   2.056   0.998  0.5902 -1.2507 -1.6129
12727TIP3    H259673   6.431   2.066   0.905  0.5247  0.4072 -1.3739
12728TIP3   OH259674   0.828   0.986   4.775  0.5782 -0.6974 -0.3709
12728TIP3    H159675   0.824   0.973   4.870  1.5445 -1.4201 -0.4209
12728TIP3    H259676   0.785   0.909   4.738  0.2540 -0.4444 -0.5168
12729TIP3   OH259677   1.621   6.369  14.913 -0.3660  0.3982  0.1650
12729TIP3    H159678   1.537   6.406  14.939  0.0686 -1.1529  4.0721
12729TIP3    H259679   1.686   6.415  14.966  1.1721  0.6595 -1.8514
12730TIP3   OH259680   3.491   5.439   5.977  0.0335 -0.5314 -0.4511
12730TIP3    H159681   3.460   5.518   6.022 -1.5370 -0.7437 -1.1582
12730TIP3    H259682   3.483   5.370   6.043  2.0351  0.0005  0.3827
12731TIP3   OH259683   6.263   4.506  13.721  0.0256  0.0896 -0.1740
12731TIP3    H159684   6.257   4.425  13.670  1.3271  0.0228 -0.2425
12731TIP3    H259685   6.353   4.507  13.754 -0.1916  1.1583  0.4134
12732TIP3   OH259686   6.075   5.165   1.947  0.3348  0.5033  0.1745
12732TIP3    H159687   6.088   5.071   1.955 -1.0642  0.3725  1.0062
12732TIP3    H259688   6.155   5.203   1.984  1.5305 -0.3584 -1.4850
12733TIP3   OH259689   5.972   1.071   5.460  0.5018 -0.1533  0.5462
12733TIP3    H159690   5.951   1.041   5.549 -0.4343 -0.4057  0.2411
12733TIP3    H259691   5.933   1.158   5.454 -1.5712 -1.1260 -0.4445
12734TIP3   OH259692   0.387   0.920  13.666  0.5338  0.1019 -0.1276
12734TIP3    H159693   0.426   1.006  13.682  0.9414 -0.1321  0.1468
12734TIP3    H259694   0.297   0.928  13.699 -0.4035  1.3470 -2.8445
12735TIP3   OH259695   5.294   4.792  16.866  0.0658  0.6691  0.4804
12735TIP3    H159696   5.277   4.700  16.847  1.3669  0.4608  0.2580
12735TIP3    H259697   5.264   4.804  16.956 -1.3116  0.3618  0.0732
12736TIP3   OH259698   1.689   4.640  11.220  0.3157 -0.0604 -0.1534
12736TIP3    H159699   1.689   4.702  11.293  1.5866 -0.5767  0.3146
12736TIP3    H259700   1.658   4.690  11.145 -1.2422  0.4122  0.7903
12737TIP3   OH259701   2.547   4.454   6.640 -0.2242 -0.5648 -0.1546
12737TIP3    H159702   2.500   4.420   6.564  1.0243  0.1138 -1.2697
12737TIP3    H259703   2.517   4.544   6.649 -0.4836 -0.6936  0.2355
12738TIP3   OH259704   0.348   2.725   5.093 -0.0349  0.3213  0.3538
12738TIP3    H159705   0.321   2.639   5.061  0.2464  0.3349  0.0694
12738TIP3    H259706   0.428   2.744   5.043  0.1105  0.5790  0.6867
12739TIP3   OH259707   1.810   5.487  12.639 -0.1705 -0.0049 -0.0377
12739TIP3    H159708   1.799   5.582  12.648 -0.3831 -0.0106 -0.2257
12739TIP3    H259709   1.878   5.477  12.573 -1.4159  0.0036 -1.3377
12740TIP3   OH259710   0.675   6.021  12.789 -0.0473  0.3830  0.1746
12740TIP3    H159711   0.657   6.039  12.696  0.1190  0.9379  0.2446
12740TIP3    H259712   0.596   5.978  12.821  0.3845 -0.9845 -0.5372
12741TIP3   OH259713   4.532   3.362  15.939 -1.0288 -0.2265  0.1163
12741TIP3    H159714   4.575   3.282  15.908 -0.0802  0.0647  0.6449
12741TIP3    H259715   4.581   3.386  16.017 -1.6767  0.5586  0.2814
12742TIP3   OH259716   0.860   6.734   2.444  0.3463  0.4463  0.6796
12742TIP3    H159717   0.911   6.672   2.495 -1.3146 -1.6133 -0.0772
12742TIP3    H259718   0.894   6.725   2.355 -1.4441 -1.1309  0.1216
12743TIP3   OH259719   2.325   5.153   3.870 -0.1081  0.3538 -0.3606
12743TIP3    H159720   2.419   5.143   3.880  0.2395  2.2222 -1.5474
12743TIP3    H259721   2.293   5.167   3.959  0.5457 -1.4555  0.1944
12744TIP3   OH259722   3.572   6.399   3.067  0.0425 -0.4534  0.6121
12744TIP3    H159723   3.594   6.314   3.105 -0.4193 -0.6869  0.3485
12744TIP3    H259724   3.510   6.438   3.129  0.2892 -0.2789  0.7575
12745TIP3   OH259725   5.662   3.488  11.389 -0.1960 -0.2463 -0.1306
12745TIP3    H159726   5.576   3.467  11.352 -0.9422  2.1614  0.1393
12745TIP3    H259727   5.653   3.470  11.482 -0.9040  1.3577  0.1371
12746TIP3   OH259728   2.630   5.621   6.222  0.2578 -0.1909 -0.1739
12746TIP3    H159729   2.684   5.547   6.249  0.9736  0.4956  0.3061
12746TIP3    H259730   2.619   5.674   6.302  1.2487  1.1447 -0.9099
12747TIP3   OH259731   2.023   5.806  17.127 -0.4385 -0.5631 -0.0592
12747TIP3    H159732   1.983   5.820  17.041 -0.0750 -0.9361 -0.2966
12747TIP3    H259733   2.108   5.766  17.107  0.7001  1.5470  0.3544
12748TIP3   OH259734   0.959   0.128   6.502 -0.1970 -0.6397  0.2798
12748TIP3    H159735   0.891   0.171   6.451 -0.2623 -1.9248 -0.7456
12748TIP3    H259736   0.913   0.055   6.546 -0.2372  0.6890  2.5279
12749TIP3   OH259737   4.542   2.665  15.654  0.0404  0.9681 -0.3055
12749TIP3    H159738   4.489   2.742  15.672 -1.8798  0.2440 -2.4599
12749TIP3    H259739   4.570   2.676  15.563 -0.8325 -1.1416 -0.8723
12750TIP3   OH259740   2.163   2.628  13.120 -0.2003  0.1044 -0.8312
12750TIP3    H159741   2.186   2.574  13.044 -0.2205 -0.6042 -0.3325
12750TIP3    H259742   2.246   2.641  13.166 -0.7433 -2.3823  0.9230
12751TIP3   OH259743   1.573   5.361   1.855  0.5423 -0.2498 -0.0247
12751TIP3    H159744   1.585   5.274   1.817  0.1550 -0.5852  0.6081
12751TIP3    H259745   1.568   5.345   1.950  1.6850  0.5870  0.1881
12752TIP3   OH259746   2.029   3.958   4.263  0.0769 -0.2988 -0.3909
12752TIP3    H159747   1.941   3.989   4.286  0.0663 -0.3173 -0.4057
12752TIP3    H259748   2.055   4.012   4.189  0.9289  1.1472  0.9238
12753TIP3   OH259749   3.819   6.289  14.027 -0.2298 -0.1544  0.6369
12753TIP3    H159750   3.846   6.249  13.945 -0.7483 -0.8228  0.7948
12753TIP3    H259751   3.781   6.218  14.078 -1.1018  0.5136  0.9418
12754TIP3   OH259752   6.228   4.264  15.769  0.6950 -0.3791 -0.0964
12754TIP3    H159753   6.251   4.171  15.764 -1.2695 -0.8944 -0.2655
12754TIP3    H259754   6.168   4.278  15.695  0.2189  0.7778  0.4906
12755TIP3   OH259755   3.767   5.519  14.843 -0.3107  0.3680 -0.3464
12755TIP3    H159756   3.755   5.595  14.901  0.8953  0.7480 -0.5834
12755TIP3    H259757   3.862   5.510  14.835 -0.4348 -1.8878  0.6051
12756TIP3   OH259758   4.058   2.779   6.206  0.1158 -0.1708 -0.0926
12756TIP3    H159759   3.979   2.834   6.211  0.3845  0.3731 -1.5457
12756TIP3    H259760   4.130   2.837   6.229  0.2626 -0.2598 -0.3276
12757TIP3   OH259761   2.800   2.652  12.454 -0.5631 -0.4670 -0.6451
12757TIP3    H159762   2.740   2.688  12.389 -0.6438  0.5636 -0.0100
12757TIP3    H259763   2.810   2.722  12.519  1.7175 -0.4617 -0.9881
12758TIP3   OH259764   4.925   4.714   2.973 -0.0204  0.4668  0.0491
12758TIP3    H159765   4.887   4.794   2.938 -1.1547  0.4094  1.1326
12758TIP3    H259766   4.986   4.743   3.041  0.2047  0.4453 -0.1412
12759TIP3   OH259767   5.880   4.614  13.831  0.6199 -0.3785 -0.8499
12759TIP3    H159768   5.792   4.627  13.796  0.8372  0.7744 -0.9771
12759TIP3    H259769   5.866   4.595  13.924  0.2336 -0.0906 -0.8450
12760TIP3   OH259770   6.391   6.044   4.492  0.5408  0.4069  0.2480
12760TIP3    H159771   6.424   5.979   4.430  2.8943  0.7453  1.0800
12760TIP3    H259772   6.423   6.127   4.458  0.8003  0.7174  1.2370
12761TIP3   OH259773   4.257   3.311  11.303 -0.6102  0.0386 -0.2791
12761TIP3    H159774   4.343   3.299  11.342 -1.6470 -0.1708  2.0417
12761TIP3    H259775   4.208   3.360  11.369 -2.4353 -0.3238 -1.3319
12762TIP3   OH259776   4.210   3.762   3.272  0.3547 -0.4484 -0.6333
12762TIP3    H159777   4.293   3.729   3.238  0.5745  0.8269 -1.3455
12762TIP3    H259778   4.199   3.848   3.231 -0.6446 -0.0130  0.5137
12763TIP3   OH259779   5.820   3.050   5.088  0.3736  0.1359 -1.0589
12763TIP3    H159780   5.895   3.025   5.034 -0.2258 -1.4580 -1.1925
12763TIP3    H259781   5.819   2.985   5.158  0.5277  1.5737  0.3003
12764TIP3   OH259782   3.313   0.862   4.896 -0.5858  0.1450  0.5791
12764TIP3    H159783   3.381   0.796   4.880 -0.4893  0.6122 -1.0160
12764TIP3    H259784   3.239   0.812   4.930 -0.4763 -0.7970 -0.5214
12765TIP3   OH259785   5.081   5.182  13.338  0.1170 -0.1567  0.3319
12765TIP3    H159786   5.113   5.147  13.255 -0.9922 -2.8604  0.9912
12765TIP3    H259787   5.014   5.245  13.313 -0.6489 -1.4019 -0.8382
12766TIP3   OH259788   6.069   4.412  17.143  0.3127  0.5150  0.1224
12766TIP3    H159789   6.104   4.501  17.140  1.2328  0.0794 -2.4776
12766TIP3    H259790   6.026   4.400  17.059  0.2818 -1.5456  0.4156
12767TIP3   OH259791   4.883   0.082   0.554 -0.7417 -0.4971 -0.7476
12767TIP3    H159792   4.918   0.001   0.516  1.3414 -0.5866  1.3001
12767TIP3    H259793   4.843   0.127   0.480  0.2021 -2.2666 -2.3867
12768TIP3   OH259794   3.385   2.342  16.290 -0.2452  0.1941 -0.1743
12768TIP3    H159795   3.416   2.268  16.237  0.0559  0.3253 -0.1804
12768TIP3    H259796   3.374   2.413  16.227 -2.4375 -0.4079 -0.5104
12769TIP3   OH259797   6.223   1.147  10.537 -0.5958 -0.1475  0.1079
12769TIP3    H159798   6.222   1.222  10.597 -0.5250 -1.1265  1.3630
12769TIP3    H259799   6.144   1.097  10.560 -0.0179 -1.0738  0.0885
12770TIP3   OH259800   1.444   5.521   3.906  0.7777  0.2029  0.2874
12770TIP3    H159801   1.361   5.564   3.885  0.5562 -1.2833 -2.0916
12770TIP3    H259802   1.511   5.581   3.872  0.6207  0.5030  0.5014
12771TIP3   OH259803   6.442   4.750   0.482  0.8016  0.1406 -0.0825
12771TIP3    H159804   6.521   4.798   0.456  1.3226 -0.5156  0.2555
12771TIP3    H259805   6.445   4.670   0.431  2.1073 -1.3998  2.3149
12772TIP3   OH259806   1.055   4.249  17.059 -0.6048 -0.5113 -0.1693
12772TIP3    H159807   1.072   4.159  17.085  2.5611  0.4698  1.4376
12772TIP3    H259808   1.027   4.293  17.139  3.0734  1.0836  0.3412
12773TIP3   OH259809   2.520   5.968   2.936  0.1816 -0.6393 -0.3542
12773TIP3    H159810   2.511   6.027   2.862  0.6611  0.6007  0.5617
12773TIP3    H259811   2.575   5.897   2.904  1.2158  0.4016 -0.8870
12774TIP3   OH259812   0.795   4.093  14.275 -0.0401  0.1540 -0.4583
12774TIP3    H159813   0.792   4.026  14.342  0.2600  0.2126 -0.3864
12774TIP3    H259814   0.712   4.140  14.283 -0.5931 -0.7234 -1.0442
12775TIP3   OH259815   6.539   2.503   2.588  0.0153  0.3839  0.2766
12775TIP3    H159816   6.493   2.528   2.668  0.2011 -1.7159  1.0807
12775TIP3    H259817   6.487   2.431   2.553 -0.0419  1.2620 -1.4939
12776TIP3   OH259818   0.227   3.179  16.386 -0.4463  0.1180  0.5411
12776TIP3    H159819   0.144   3.220  16.411 -1.2004  0.6060 -2.5641
12776TIP3    H259820   0.288   3.206  16.454 -2.0494  2.5165  1.0956
12777TIP3   OH259821   5.973   6.677  12.014  0.1738 -0.1922  1.0962
12777TIP3    H159822   5.978   6.717  11.927  0.9661 -0.5853  0.9550
12777TIP3    H259823   6.006   6.744  12.073 -1.0456  0.3396  1.1884
12778TIP3   OH259824   0.190   2.861  15.102  0.1290 -0.1801 -0.3273
12778TIP3    H159825   0.140   2.851  15.021 -1.0136 -1.6715  0.5583
12778TIP3    H259826   0.265   2.914  15.076  0.6529 -2.0086 -2.7321
12779TIP3   OH259827   3.689   5.018   3.920 -0.2468 -0.0682  0.6988
12779TIP3    H159828   3.665   4.939   3.969  2.0805 -1.3435 -0.1356
12779TIP3    H259829   3.631   5.018   3.844 -1.0795 -0.3100  1.3272
12780TIP3   OH259830   1.287   1.427  13.408  0.1901  0.7835  0.1004
12780TIP3    H159831   1.207   1.382  13.433  1.2148 -0.5188  1.1439
12780TIP3    H259832   1.331   1.445  13.492  2.4368 -1.2961 -0.5632
12781TIP3   OH259833   6.675   2.975  11.784 -0.0279  0.3730  0.4708
12781TIP3    H159834   6.597   2.962  11.730 -0.3785 -1.1365  1.3177
12781TIP3    H259835   6.651   2.939  11.869  1.4486  0.3026  0.8716
12782TIP3   OH259836   3.810   0.632  14.790 -0.6523  0.0930 -0.2016
12782TIP3    H159837   3.863   0.661  14.864 -0.9636 -1.5034  0.6695
12782TIP3    H259838   3.802   0.709  14.734  1.3769  0.7544  0.3721
12783TIP3   OH259839   5.019   5.640   1.205  0.4330  0.6377  0.5872
12783TIP3    H159840   4.949   5.590   1.163  0.6592  0.5082  0.3625
12783TIP3    H259841   5.031   5.717   1.150 -0.0921  1.0724  1.0762
12784TIP3   OH259842   0.353   5.579  14.306  0.5703 -0.1110  0.3509
12784TIP3    H159843   0.315   5.665  14.284  0.5220 -0.6572 -1.7627
12784TIP3    H259844   0.306   5.552  14.385 -1.6181  0.4261 -0.7283
12785TIP3   OH259845   3.077   2.619   3.791 -0.0386 -0.4510  0.2651
12785TIP3    H159846   3.137   2.658   3.728 -0.7398  0.6306  0.2547
12785TIP3    H259847   3.088   2.524   3.780  0.7490 -0.2609 -0.5946
12786TIP3   OH259848   5.647   5.148   0.716  0.1092 -0.5255 -0.0642
12786TIP3    H159849   5.604   5.194   0.788  1.5717  1.8132 -0.6094
12786TIP3    H259850   5.597   5.173   0.638 -0.0303 -1.1210 -0.1670
12787TIP3   OH259851   0.202   5.460  13.429 -0.2191 -0.1002  0.2538
12787TIP3    H159852   0.285   5.412  13.434  0.4953  1.1860  1.0135
12787TIP3    H259853   0.203   5.517  13.506 -1.7254  0.0655  0.1628
12788TIP3   OH259854   3.143   4.865   5.011  0.4381 -0.2740  0.4761
12788TIP3    H159855   3.231   4.837   4.985  1.1965  1.7133  0.7987
12788TIP3    H259856   3.153   4.958   5.031 -2.2028  0.5259 -1.6424
12789TIP3   OH259857   4.572   1.097  11.228  0.0731  0.2071 -0.1773
12789TIP3    H159858   4.656   1.143  11.227  0.6951 -0.9059  0.4191
12789TIP3    H259859   4.528   1.126  11.148  1.6207 -0.2997 -1.2451
12790TIP3   OH259860   1.159   6.214   1.958  0.4082 -0.0865 -0.1734
12790TIP3    H159861   1.250   6.193   1.940  0.5732  1.0079 -0.6333
12790TIP3    H259862   1.130   6.265   1.882 -0.1429  0.8520  0.6506
12791TIP3   OH259863   5.766   1.466  14.616  0.6961 -0.1988 -0.4116
12791TIP3    H159864   5.841   1.481  14.558 -0.5630 -1.3440 -2.3862
12791TIP3    H259865   5.690   1.484  14.561 -0.6141 -3.7074  0.1493
12792TIP3   OH259866   2.471   2.477  13.695  0.2458  0.4050  0.2384
12792TIP3    H159867   2.497   2.563  13.660  2.2903 -1.1192 -2.1703
12792TIP3    H259868   2.377   2.472  13.678  0.5936  1.0905 -2.1393
12793TIP3   OH259869   2.457   3.817   5.159  0.2466 -0.0366  0.2977
12793TIP3    H159870   2.493   3.735   5.125 -1.8451 -1.0214  0.3838
12793TIP3    H259871   2.369   3.795   5.187 -0.4095  2.2973  0.1793
12794TIP3   OH259872   5.194   3.872   0.125 -0.0637 -0.1083  0.1864
12794TIP3    H159873   5.149   3.953   0.105  0.5140  0.2920  0.4921
12794TIP3    H259874   5.182   3.860   0.219  0.9840  0.3220  0.3831
12795TIP3   OH259875   5.457   2.803  17.069 -0.0242  0.1600  0.3630
12795TIP3    H159876   5.385   2.748  17.099  2.6125 -3.0374  1.1809
12795TIP3    H259877   5.499   2.752  17.000  1.6868  1.7578  0.1813
12796TIP3   OH259878   6.348   1.905  14.053 -0.1948 -0.1220 -0.1478
12796TIP3    H159879   6.299   1.825  14.035 -0.1547  0.0387 -0.9719
12796TIP3    H259880   6.328   1.925  14.145  0.5882 -1.6279  0.3666
12797TIP3   OH259881   3.906   1.472   2.075  0.1400  0.1893  0.4049
12797TIP3    H159882   3.884   1.549   2.023  0.9547 -0.5242 -1.0046
12797TIP3    H259883   3.919   1.506   2.164 -0.9794  1.4443  0.1026
12798TIP3   OH259884   4.568   4.275  14.543  0.6692 -0.1020  0.1370
12798TIP3    H159885   4.475   4.267  14.525  0.7322 -2.2166  0.5788
12798TIP3    H259886   4.610   4.225  14.472  1.5220  1.4833 -0.5083
12799TIP3   OH259887   3.030   2.346  16.537 -0.3585  0.0540  0.7427
12799TIP3    H159888   2.956   2.402  16.563 -1.2860 -1.3803  1.2622
12799TIP3    H259889   3.048   2.370  16.447 -3.5763 -1.7796 -0.4790
12800TIP3   OH259890   5.033   2.574   0.398  0.1859 -0.1348 -0.4235
12800TIP3    H159891   5.033   2.656   0.447  2.5549  0.3058 -1.1341
12800TIP3    H259892   5.091   2.517   0.448 -2.9027 -2.1054  1.1416
12801TIP3   OH259893   2.309   6.356   5.175  0.4010 -0.0040  0.1840
12801TIP3    H159894   2.310   6.345   5.270 -0.2038 -0.3538  0.1574
12801TIP3    H259895   2.260   6.280   5.143 -3.0886  2.2312 -0.1045
12802TIP3   OH259896   2.159   1.148  14.794  0.1290 -0.3932  0.1788
12802TIP3    H159897   2.072   1.150  14.835 -0.5538  0.0611 -1.2251
12802TIP3    H259898   2.153   1.213  14.724  0.6557 -2.3520 -1.7534
12803TIP3   OH259899   0.252   4.045  12.026 -0.1233  0.1351 -0.4365
12803TIP3    H159900   0.265   4.034  11.931 -0.2071 -0.0731 -0.4245
12803TIP3    H259901   0.162   4.075  12.034 -0.7743 -1.7371 -0.3141
12804TIP3   OH259902   0.897   4.145  16.543 -0.2111 -0.0966  0.1841
12804TIP3    H159903   0.935   4.233  16.551 -0.1229 -0.0558 -0.5835
12804TIP3    H259904   0.806   4.156  16.571 -0.1588  0.2059  0.2432
12805TIP3   OH259905   4.940   2.751   2.388  0.1754 -0.1834 -0.2588
12805TIP3    H159906   4.941   2.822   2.323  2.4544 -0.2863 -0.4046
12805TIP3    H259907   4.964   2.793   2.470 -1.2865 -0.3048  0.2345
12806TIP3   OH259908   5.727   2.946   2.716  0.3565  0.0275 -0.2728
12806TIP3    H159909   5.674   2.899   2.652  0.6224  0.6781 -0.9667
12806TIP3    H259910   5.706   2.903   2.800 -0.5548 -0.3277 -0.6764
12807TIP3   OH259911   5.109   0.902   5.873 -0.0150 -0.1135 -0.3525
12807TIP3    H159912   5.097   0.978   5.815  2.2379  0.7168  0.2028
12807TIP3    H259913   5.023   0.886   5.911 -0.7946  1.3697 -1.4611
12808TIP3   OH259914   6.286   0.428   1.645  0.0571 -0.6520 -0.1835
12808TIP3    H159915   6.320   0.480   1.718 -1.2773  0.5564 -0.4069
12808TIP3    H259916   6.233   0.360   1.687  2.0700 -2.0911  0.1251
12809TIP3   OH259917   2.353   1.659  17.122 -0.2410  0.0975  0.5398
12809TIP3    H159918   2.419   1.696  17.181 -2.0740 -0.0196  2.7121
12809TIP3    H259919   2.310   1.590  17.173 -1.1153 -0.7778 -1.3190
12810TIP3   OH259920   1.448   0.152   2.343  0.1501 -0.3452 -0.5253
12810TIP3    H159921   1.538   0.134   2.314  0.4264  0.1807  0.0067
12810TIP3    H259922   1.440   0.106   2.427 -0.2471 -0.8109 -0.8105
12811TIP3   OH259923   0.718   5.608   4.375  0.7227  0.0844  0.2927
12811TIP3    H159924   0.794   5.559   4.344  0.8020  0.6603 -0.4439
12811TIP3    H259925   0.689   5.561   4.453  2.8643  0.7930  1.5822
12812TIP3   OH259926   2.634   4.907   5.880  0.1564  0.2198 -0.1902
12812TIP3    H159927   2.664   4.986   5.834  0.2423 -0.1347 -0.7420
12812TIP3    H259928   2.681   4.909   5.963  1.7253 -0.3364 -1.0469
12813TIP3   OH259929   5.622   1.851   1.566 -0.8245  0.1793  0.2085
12813TIP3    H159930   5.698   1.899   1.533  0.4814 -0.9112  1.5330
12813TIP3    H259931   5.548   1.888   1.519  0.8773 -1.0810 -3.7508
12814TIP3   OH259932   6.085   1.897   2.914 -0.1278  0.6015  0.3713
12814TIP3    H159933   6.163   1.937   2.952 -0.8142  0.6715  1.7364
12814TIP3    H259934   6.117   1.817   2.871  1.0813  2.0109 -1.4093
12815TIP3   OH259935   6.035   1.708  12.643 -0.3123 -0.2656 -0.1454
12815TIP3    H159936   6.060   1.674  12.729 -0.1681  0.6428  0.1794
12815TIP3    H259937   6.077   1.648  12.581  0.0731 -0.5817  0.4131
12816TIP3   OH259938   0.909   5.952  13.252 -0.3198  0.0873 -0.2232
12816TIP3    H159939   0.964   6.022  13.217  0.5188 -1.6168 -2.4268
12816TIP3    H259940   0.822   5.968  13.214 -0.5221  0.7910  0.5118
12817TIP3   OH259941   1.356   0.329  13.580 -0.1058 -0.3431  0.0536
12817TIP3    H159942   1.433   0.325  13.524  0.0635  0.7054  0.2058
12817TIP3    H259943   1.313   0.411  13.556 -0.3774 -0.2031  1.0096
12818TIP3   OH259944   4.539   3.633  13.836 -0.0132  0.0276 -0.1501
12818TIP3    H159945   4.613   3.594  13.789 -0.4129  0.5984 -1.2967
12818TIP3    H259946   4.571   3.648  13.925  0.7632 -1.0910 -0.2400
12819TIP3   OH259947   1.962   3.754  12.626  0.3304 -0.1388  0.2553
12819TIP3    H159948   1.946   3.733  12.534  0.5892 -1.0351  0.4082
12819TIP3    H259949   1.875   3.764  12.664  0.2182 -0.2208  0.0198
12820TIP3   OH259950   4.851   1.454   4.524  0.4493 -0.2653 -0.5730
12820TIP3    H159951   4.786   1.403   4.572  1.5294 -1.0010  0.1319
12820TIP3    H259952   4.814   1.465   4.437  0.6177 -3.1259 -1.0611
12821TIP3   OH259953   1.395   0.753   4.680  0.3349 -1.1237 -0.2635
12821TIP3    H159954   1.442   0.837   4.680 -0.8895 -0.4100  2.3686
12821TIP3    H259955   1.332   0.761   4.609  0.2068  0.1957 -0.0088
12822TIP3   OH259956   4.850   2.258   2.696 -0.3782 -0.3303  0.3329
12822TIP3    H159957   4.877   2.190   2.757 -2.6445 -0.3469  1.3871
12822TIP3    H259958   4.763   2.231   2.666 -1.8680  2.6463  1.7111
12823TIP3   OH259959   2.115   3.296  11.739  0.0049  0.1788  0.3401
12823TIP3    H159960   2.039   3.248  11.707  0.9223 -1.1203  0.0482
12823TIP3    H259961   2.171   3.229  11.779  2.3886  0.6017 -2.0973
12824TIP3   OH259962   2.977   6.038  13.640  0.0106  0.0853  0.6156
12824TIP3    H159963   2.948   5.947  13.643  0.4774 -0.1623 -1.4420
12824TIP3    H259964   2.898   6.087  13.616 -0.6028  0.4414  3.2052
12825TIP3   OH259965   1.536   4.979  14.023  0.1717  0.4075  0.3275
12825TIP3    H159966   1.589   4.920  13.969  0.1611  1.1693 -0.5390
12825TIP3    H259967   1.524   5.057  13.968  0.3035  1.2722  1.5139
12826TIP3   OH259968   6.058   5.320   6.628 -0.2386  0.4221 -0.0542
12826TIP3    H159969   5.977   5.339   6.676 -0.5455  0.3792 -0.5510
12826TIP3    H259970   6.051   5.227   6.605 -0.1533  0.4713 -0.2850
12827TIP3   OH259971   4.557   1.154   1.878  0.0628 -0.5774 -0.3059
12827TIP3    H159972   4.467   1.165   1.907  0.6373  0.8619  1.0455
12827TIP3    H259973   4.610   1.169   1.957  1.4595 -2.3752 -0.8486
12828TIP3   OH259974   4.531   3.727   2.984 -0.0225 -0.2927 -0.0556
12828TIP3    H159975   4.495   3.659   3.041 -0.0876 -0.3001 -0.1059
12828TIP3    H259976   4.617   3.747   3.022  0.6683 -1.5082 -0.9339
12829TIP3   OH259977   5.722   1.999  12.725 -0.2620 -0.5079 -0.0278
12829TIP3    H159978   5.718   2.076  12.783 -0.1208  0.0415 -0.7344
12829TIP3    H259979   5.802   1.954  12.750  0.4135  0.3675 -0.5775
12830TIP3   OH259980   3.269   1.993   5.051 -0.2430  0.6477 -0.3118
12830TIP3    H159981   3.300   1.971   5.138 -1.6375 -0.5650 -0.0834
12830TIP3    H259982   3.257   1.908   5.008  0.3359  1.2271 -1.6465
12831TIP3   OH259983   1.589   1.060  14.807  0.3956 -0.4707 -0.2466
12831TIP3    H159984   1.644   1.077  14.730  1.2214 -0.7857  0.2704
12831TIP3    H259985   1.612   0.971  14.834 -0.9974 -0.9308 -0.5328
12832TIP3   OH259986   2.971   1.654   1.990 -0.4008 -0.1403  0.1245
12832TIP3    H159987   2.901   1.674   1.928 -1.2525  0.4873  1.2898
12832TIP3    H259988   3.041   1.618   1.935 -2.1133 -2.0609 -0.8697
12833TIP3   OH259989   4.775   2.632   5.839 -0.5232 -0.3568 -0.3496
12833TIP3    H159990   4.707   2.696   5.860 -0.6874 -0.5459 -0.3007
12833TIP3    H259991   4.743   2.588   5.760 -0.4125 -0.3804 -0.3815
12834TIP3   OH259992   3.410   1.718   3.898 -1.1409 -0.0914  0.2655
12834TIP3    H159993   3.408   1.700   3.992  2.7729  1.9722  0.8768
12834TIP3    H259994   3.405   1.813   3.891  0.9713 -0.0591 -1.4264
12835TIP3   OH259995   4.115   3.719   0.546  0.1104 -0.2469  0.5547
12835TIP3    H159996   4.154   3.712   0.633  0.0593  1.7075  0.7718
12835TIP3    H259997   4.063   3.800   0.550 -2.6622 -1.9199 -0.2257
12836TIP3   OH259998   6.348   5.849   2.303 -0.0106  0.1168 -0.2044
12836TIP3    H159999   6.393   5.879   2.383 -1.0181 -2.1960  1.2813
12836TIP3    H260000   6.412   5.791   2.261  0.3164  0.9085 -0.8055
12837TIP3   OH260001   4.440   6.422  12.222 -0.0389  0.2850 -0.3717
12837TIP3    H160002   4.505   6.359  12.191  0.4270  0.0153  1.1214
12837TIP3    H260003   4.489   6.482  12.278 -1.1462 -0.1415  1.0812
12838TIP3   OH260004   3.897   5.485  13.056 -0.2978 -0.3163  0.5100
12838TIP3    H160005   3.980   5.499  13.101 -0.3237 -1.6340  1.0132
12838TIP3    H260006   3.836   5.459  13.125 -0.3049 -2.4732 -0.2437
12839TIP3   OH260007   2.845   5.972  11.464  0.5028  0.3842 -0.0572
12839TIP3    H160008   2.859   6.010  11.551  1.3865  1.4721 -0.6564
12839TIP3    H260009   2.908   5.900  11.459  0.1053  0.0002  0.3836
12840TIP3   OH260010   2.979   3.556   3.903  0.4153 -0.0385 -0.1175
12840TIP3    H160011   3.011   3.614   3.973  1.8691  0.4276 -1.1364
12840TIP3    H260012   3.058   3.516   3.868 -0.3317 -0.4930 -1.3005
12841TIP3   OH260013   3.314   6.534   1.166  0.2036  0.1424 -1.0079
12841TIP3    H160014   3.240   6.579   1.206  0.8050  0.9794 -0.8120
12841TIP3    H260015   3.342   6.593   1.095  0.2159 -0.5157 -1.5530
12842TIP3   OH260016   1.390   4.422   5.596  0.1675  0.0575 -0.9343
12842TIP3    H160017   1.379   4.328   5.610  0.1486  0.1833 -0.1141
12842TIP3    H260018   1.378   4.462   5.682 -1.0727  0.9347 -1.4990
12843TIP3   OH260019   0.594   2.848   3.406 -0.2439  0.2050  0.2956
12843TIP3    H160020   0.506   2.885   3.404 -0.1446  0.5361  1.5478
12843TIP3    H260021   0.650   2.921   3.433  0.7418  0.5693 -2.5867
12844TIP3   OH260022   0.781   1.267  15.875  0.2567  0.1947  0.2781
12844TIP3    H160023   0.781   1.288  15.781 -0.3268 -1.2597 -0.0616
12844TIP3    H260024   0.700   1.306  15.908 -0.0014 -0.0913 -0.0160
12845TIP3   OH260025   1.112   1.695   3.761  0.3744  0.0625 -0.1171
12845TIP3    H160026   1.072   1.714   3.846  0.0473 -0.5920 -0.1252
12845TIP3    H260027   1.196   1.654   3.783  0.4033  0.1240 -0.1119
12846TIP3   OH260028   3.832   2.455  11.612  0.3262 -0.1133 -0.1011
12846TIP3    H160029   3.882   2.492  11.540  0.9772  1.1145  0.9604
12846TIP3    H260030   3.743   2.489  11.599  0.4350  0.0831 -0.3458
12847TIP3   OH260031   2.712   3.332   2.557  0.2818 -0.2533 -0.0511
12847TIP3    H160032   2.633   3.280   2.543  0.5987 -0.6940 -0.2071
12847TIP3    H260033   2.782   3.268   2.565  0.1911 -0.0505  3.2561
12848TIP3   OH260034   0.226   5.346   3.345  0.2301  0.0737 -0.5922
12848TIP3    H160035   0.271   5.294   3.411 -1.4052  0.1227  0.5679
12848TIP3    H260036   0.297   5.395   3.301  1.4940 -1.2155 -0.0300
12849TIP3   OH260037   1.639   4.155  13.667  0.0874  0.0440  0.5206
12849TIP3    H160038   1.593   4.131  13.748 -3.9159 -0.2438 -1.7122
12849TIP3    H260039   1.587   4.226  13.630  0.4283 -1.4387 -3.0112
12850TIP3   OH260040   6.021   0.356  13.578  0.0283  0.4643  0.5542
12850TIP3    H160041   5.984   0.268  13.590 -1.7146  1.0703 -0.1805
12850TIP3    H260042   5.951   0.405  13.535  1.0357  2.1891  0.8582
12851TIP3   OH260043   4.524   4.981  14.886 -0.0581  0.0195  0.0496
12851TIP3    H160044   4.466   5.035  14.832 -0.1564  0.8994  1.0204
12851TIP3    H260045   4.490   4.990  14.975  0.5611 -0.8017  0.3789
12852TIP3   OH260046   1.886   2.044  12.749 -0.2778  0.3471 -0.2387
12852TIP3    H160047   1.909   1.983  12.820  0.2479 -0.2941 -0.9453
12852TIP3    H260048   1.938   2.123  12.768 -1.6736  0.9358  1.1985
12853TIP3   OH260049   4.272   6.000  12.043  0.0190 -0.5361  0.2278
12853TIP3    H160050   4.181   5.983  12.068 -0.3559 -0.1133 -0.8162
12853TIP3    H260051   4.323   5.934  12.090 -1.1267 -2.7250 -1.5093
12854TIP3   OH260052   3.820   6.167   3.230 -0.0248  0.1954  0.1091
12854TIP3    H160053   3.873   6.246   3.237 -0.9568  0.9103 -0.8111
12854TIP3    H260054   3.783   6.155   3.318  0.8525  0.2513  0.4924
12855TIP3   OH260055   3.631   5.673   4.802 -0.4198 -0.2458 -0.6081
12855TIP3    H160056   3.722   5.702   4.806  0.1888 -2.2260  0.1297
12855TIP3    H260057   3.620   5.640   4.712  0.6098 -3.2021  0.3068
12856TIP3   OH260058   0.436   0.513   4.398  0.3047 -0.3365 -0.4355
12856TIP3    H160059   0.405   0.433   4.356 -0.9652 -0.6754  1.0947
12856TIP3    H260060   0.446   0.489   4.490 -0.1603  1.2778  0.0481
12857TIP3   OH260061   1.010   3.188   0.639 -0.3152 -0.4409  0.0275
12857TIP3    H160062   0.973   3.127   0.704  0.6365  1.4488  2.4222
12857TIP3    H260063   0.948   3.261   0.638  0.5988  0.3382  0.1338
12858TIP3   OH260064   6.469   0.356  11.509 -0.7407  0.1617  0.2826
12858TIP3    H160065   6.489   0.450  11.505 -1.8462  0.4995  2.3212
12858TIP3    H260066   6.486   0.332  11.600 -1.6429 -1.3587  0.0521
12859TIP3   OH260067   2.581   4.841   1.897  0.2200  0.3115  0.1103
12859TIP3    H160068   2.508   4.880   1.945 -1.8903 -2.6162 -0.6069
12859TIP3    H260069   2.630   4.793   1.963 -0.2588 -0.2228  0.0812
12860TIP3   OH260070   2.153   2.552  13.741 -0.1645  0.4098 -0.7077
12860TIP3    H160071   2.166   2.470  13.788  2.2374  1.7058  0.9755
12860TIP3    H260072   2.132   2.525  13.651  2.0133 -2.0311 -0.5288
12861TIP3   OH260073   0.381   1.788  15.551  0.2864  0.3310  0.1142
12861TIP3    H160074   0.364   1.738  15.631 -1.6721 -1.7153 -1.5266
12861TIP3    H260075   0.296   1.826  15.528  1.2807  2.5702  0.0947
12862TIP3   OH260076   5.614   4.128  16.219 -0.3336  0.2357  0.4298
12862TIP3    H160077   5.571   4.184  16.155 -0.3884  0.5858  0.7710
12862TIP3    H260078   5.695   4.100  16.177 -1.3516 -1.2321 -0.6150
12863TIP3   OH260079   0.031   3.975  11.475 -0.1301 -0.4577 -0.0433
12863TIP3    H160080   0.076   3.923  11.542 -0.3611 -0.6022 -0.0003
12863TIP3    H260081   0.101   4.023  11.431 -0.2773  2.2781  2.5345
12864TIP3   OH260082   1.905   3.277   3.992 -0.6412 -0.1275 -0.1647
12864TIP3    H160083   1.903   3.332   3.914 -1.4463  0.6799  0.4092
12864TIP3    H260084   1.997   3.258   4.006 -0.2887  1.6281  0.0137
12865TIP3   OH260085   1.741   1.494   2.603  0.1407  0.5243 -0.1932
12865TIP3    H160086   1.671   1.542   2.646  0.9521  0.7773  0.8862
12865TIP3    H260087   1.798   1.467   2.675 -0.0634 -1.6625 -0.8222
12866TIP3   OH260088   6.091   4.670   1.124  0.2044  0.0487 -0.0803
12866TIP3    H160089   6.025   4.637   1.064 -0.1252  1.3047 -0.4245
12866TIP3    H260090   6.053   4.749   1.161  1.0130  0.1045  0.6542
12867TIP3   OH260091   6.816   2.272  16.658 -0.1209  0.1698  0.7921
12867TIP3    H160092   6.777   2.224  16.731 -0.5375  1.2581  1.2979
12867TIP3    H260093   6.907   2.288  16.685  0.3165 -1.2095  0.1837
12868TIP3   OH260094   2.354   3.354   1.046  0.2310 -0.2172  0.1053
12868TIP3    H160095   2.281   3.405   1.011 -0.0333 -0.5719  0.1387
12868TIP3    H260096   2.403   3.326   0.968  1.1949  1.2911  0.1504
12869TIP3   OH260097   2.791   5.783   3.760  0.3063 -0.5567 -0.2595
12869TIP3    H160098   2.799   5.826   3.845 -3.6790 -1.3520  0.6406
12869TIP3    H260099   2.857   5.714   3.761 -0.4604 -1.3129  2.7155
12870TIP3   OH260100   4.964   6.030   4.522  0.5596 -0.1560 -0.0750
12870TIP3    H160101   5.005   6.113   4.498  3.1233 -1.3486  0.1131
12870TIP3    H260102   4.871   6.043   4.501  1.0956  2.3581 -1.0843
12871TIP3   OH260103   2.544   2.607   0.784  0.1285 -0.3780 -0.5497
12871TIP3    H160104   2.485   2.565   0.722  0.7474  0.3261 -1.6315
12871TIP3    H260105   2.518   2.699   0.783 -0.2052 -0.4529  0.6459
12872TIP3   OH260106   6.061   0.347   1.041 -0.1834 -0.0402 -0.3017
12872TIP3    H160107   5.983   0.389   1.078  0.2052  1.2315 -0.9059
12872TIP3    H260108   6.063   0.261   1.083  0.8783  1.7429  3.5693
12873TIP3   OH260109   6.790   6.606   3.689  0.2113  0.0613  0.3332
12873TIP3    H160110   6.714   6.581   3.743  0.3616 -2.7153 -0.6343
12873TIP3    H260111   6.756   6.606   3.599  1.6237 -2.5996 -0.2567
12874TIP3   OH260112   5.669   1.717   5.330  0.2308 -0.2184  0.1797
12874TIP3    H160113   5.677   1.804   5.290  1.2073 -0.2755  0.2324
12874TIP3    H260114   5.653   1.659   5.256  1.8968 -0.3024 -0.1437
12875TIP3   OH260115   2.804   6.272   3.570  0.7685 -0.1704 -0.0191
12875TIP3    H160116   2.867   6.305   3.634  2.3752  1.1184 -2.1995
12875TIP3    H260117   2.801   6.177   3.587  1.9936 -0.0143  1.2280
12876TIP3   OH260118   5.029   5.979  14.643 -0.5187 -0.1215 -0.2399
12876TIP3    H160119   5.109   5.933  14.621  1.0423  2.8912 -1.2210
12876TIP3    H260120   5.011   5.956  14.734  2.6264  0.7327  0.6431
12877TIP3   OH260121   4.190   5.959  14.124 -0.1723  0.5690  0.3291
12877TIP3    H160122   4.230   6.020  14.062 -1.5852  0.0418 -1.1434
12877TIP3    H260123   4.112   5.926  14.079 -0.8804 -0.3307  2.1369
12878TIP3   OH260124   2.472   4.866   1.439  0.3611 -0.3620  0.6320
12878TIP3    H160125   2.420   4.869   1.519 -1.8391  0.4651 -0.7819
12878TIP3    H260126   2.467   4.775   1.410  0.0330 -0.3794  0.7408
12879TIP3   OH260127   1.243   5.583  16.788  0.0036  0.0071 -0.1179
12879TIP3    H160128   1.158   5.559  16.752  0.0643  0.0393 -0.2796
12879TIP3    H260129   1.301   5.512  16.760 -0.2252 -0.6303  0.9929
12880TIP3   OH260130   5.862   2.283  16.287 -0.4359 -0.1195  1.0123
12880TIP3    H160131   5.898   2.196  16.273 -0.1386  0.3053 -0.9460
12880TIP3    H260132   5.773   2.278  16.253  0.1666  0.8079 -0.7738
12881TIP3   OH260133   5.506   4.370   1.370 -0.8137  0.1973 -0.1933
12881TIP3    H160134   5.454   4.425   1.428  1.7230  1.4695  0.9776
12881TIP3    H260135   5.518   4.289   1.418 -1.9279 -0.2150 -0.5930
12882TIP3   OH260136   6.478   4.809  12.738 -0.1393 -0.3159 -0.2219
12882TIP3    H160137   6.535   4.742  12.700 -0.4470 -2.0149  2.1530
12882TIP3    H260138   6.538   4.878  12.766  0.6174 -1.2989  0.6516
12883TIP3   OH260139   6.158   3.531   2.098 -0.1535 -0.5333  0.8466
12883TIP3    H160140   6.111   3.477   2.162 -1.2837 -0.3237  0.1876
12883TIP3    H260141   6.146   3.621   2.129  1.2812 -0.6002  1.6443
12884TIP3   OH260142   0.542   4.448  13.612  0.1921 -0.7354  0.2655
12884TIP3    H160143   0.619   4.433  13.667  1.2491  2.1707 -0.3019
12884TIP3    H260144   0.578   4.463  13.525 -0.9583  1.2152  0.1080
12885TIP3   OH260145   6.251   5.898  15.877 -0.4193 -1.0039 -0.3596
12885TIP3    H160146   6.223   5.961  15.943  0.5968  0.6930 -1.4800
12885TIP3    H260147   6.178   5.893  15.815  0.1636  0.4558 -1.2047
12886TIP3   OH260148   6.573   5.884   1.634  0.2390 -0.1644  0.4583
12886TIP3    H160149   6.516   5.813   1.665  2.7086 -1.2396  2.7479
12886TIP3    H260150   6.572   5.875   1.539 -1.6618 -1.5153  0.5636
12887TIP3   OH260151   4.603   6.359   5.429 -0.2126 -0.8636  0.5154
12887TIP3    H160152   4.520   6.317   5.450 -0.4580 -0.1043  1.0689
12887TIP3    H260153   4.625   6.409   5.507  0.0056  0.1611 -0.1890
12888TIP3   OH260154   3.943   3.724  16.836 -0.0121 -0.5510 -0.2539
12888TIP3    H160155   3.866   3.724  16.893  0.0059  0.5728 -0.2202
12888TIP3    H260156   3.989   3.805  16.858  1.8216 -1.7768  0.5890
12889TIP3   OH260157   4.155   5.126  14.325  0.2078 -0.3427  0.0931
12889TIP3    H160158   4.099   5.150  14.251 -1.1637  0.0951  1.2459
12889TIP3    H260159   4.137   5.033  14.339  0.6825 -0.4942 -0.3085
12890TIP3   OH260160   5.706   4.009  14.087  0.1352 -0.3159  0.4118
12890TIP3    H160161   5.623   4.049  14.113 -0.4290  0.6037 -2.6002
12890TIP3    H260162   5.767   4.082  14.083 -0.2145 -0.1430 -2.4153
12891TIP3   OH260163   0.441   6.615  13.911 -0.0969 -0.0228 -0.3143
12891TIP3    H160164   0.497   6.543  13.884 -0.3900  0.3218 -1.8990
12891TIP3    H260165   0.460   6.686  13.849 -1.7194  0.3574 -0.4150
12892TIP3   OH260166   2.527   2.775   3.087  0.4363  0.3803  0.2017
12892TIP3    H160167   2.552   2.686   3.112  0.8084  0.3375 -0.3100
12892TIP3    H260168   2.476   2.763   3.006  2.4578  0.8002 -1.1774
12893TIP3   OH260169   0.479   1.841   1.234  0.5461  0.2535  0.3132
12893TIP3    H160170   0.562   1.806   1.266  0.9960  0.6077 -0.4663
12893TIP3    H260171   0.495   1.935   1.224 -0.2595  0.4872  1.1505
12894TIP3   OH260172   3.306   2.080  17.234 -0.7373 -0.5351  0.6342
12894TIP3    H160173   3.328   2.057  17.324 -0.5741 -1.3327  0.3978
12894TIP3    H260174   3.291   1.996  17.191 -3.7844 -0.0567  0.6352
12895TIP3   OH260175   5.023   0.232  16.624  0.3419 -0.0643  0.0874
12895TIP3    H160176   5.010   0.217  16.718 -1.1078  1.6694  0.1789
12895TIP3    H260177   4.936   0.249  16.590  0.6873 -1.8211 -1.8245
12896TIP3   OH260178   3.642   3.336   0.233  0.1009 -0.2934 -0.0282
12896TIP3    H160179   3.585   3.302   0.163 -0.6927 -1.0401  0.9627
12896TIP3    H260180   3.586   3.336   0.311  0.6533  1.5532  0.3902
12897TIP3   OH260181   6.200   1.959  14.764  0.4072  0.9921  0.5893
12897TIP3    H160182   6.259   2.028  14.734  0.8308  0.5892  0.4932
12897TIP3    H260183   6.125   2.006  14.801  0.7955  1.5011  0.7307
12898TIP3   OH260184   5.517   0.937  13.602  0.5935 -0.3498 -0.3339
12898TIP3    H160185   5.578   0.909  13.671  1.8367 -0.8407 -1.6068
12898TIP3    H260186   5.560   1.013  13.562  0.5718 -0.9581 -1.5220
12899TIP3   OH260187   6.307   6.631   0.874 -0.0246  0.5629 -0.6586
12899TIP3    H160188   6.336   6.586   0.953  0.5338  0.9764 -0.6298
12899TIP3    H260189   6.369   6.703   0.863 -1.1149  1.5468 -0.4989
12900TIP3   OH260190   6.122   6.583   4.535  0.5550 -0.1803  0.2448
12900TIP3    H160191   6.031   6.580   4.564 -0.3306  2.6831 -2.0384
12900TIP3    H260192   6.126   6.523   4.461  0.3500  0.3391 -0.1806
12901TIP3   OH260193   0.004   0.585  14.081  0.2590 -0.2662  0.1213
12901TIP3    H160194   0.040   0.534  14.009  1.4217 -0.5271  0.8705
12901TIP3    H260195  -0.086   0.553  14.091 -0.4094  0.8166 -2.1507
12902TIP3   OH260196   6.341   2.520   5.479  0.0559 -0.0565  0.1542
12902TIP3    H160197   6.425   2.565   5.494 -0.1431  0.7859 -1.1936
12902TIP3    H260198   6.300   2.518   5.566  0.4601  1.6200  0.4063
12903TIP3   OH260199   6.715   6.520  14.352  0.6058  0.0003 -0.2407
12903TIP3    H160200   6.693   6.558  14.437  0.5174 -1.2235  0.2971
12903TIP3    H260201   6.772   6.584  14.310  1.0817  0.3660  0.9634
12904TIP3   OH260202   4.795   0.396   3.366 -0.2564 -0.4148 -0.1298
12904TIP3    H160203   4.813   0.416   3.274  0.1571 -1.0724 -0.1977
12904TIP3    H260204   4.840   0.466   3.414 -0.9222  0.2362 -0.4383
12905TIP3   OH260205   4.709   5.412   1.749  0.1634  0.3475  0.2932
12905TIP3    H160206   4.647   5.406   1.822 -0.3416  1.5747 -0.0200
12905TIP3    H260207   4.681   5.489   1.700  1.7384  0.7158 -0.0585
12906TIP3   OH260208   2.510   4.588   4.217  0.1366 -0.1883  0.7545
12906TIP3    H160209   2.444   4.655   4.199  0.7054  0.4380  0.9708
12906TIP3    H260210   2.592   4.629   4.190  0.4215 -1.0031  0.3832
12907TIP3   OH260211   5.685   0.819   4.872 -0.4277 -0.2731  0.6000
12907TIP3    H160212   5.649   0.881   4.809  1.2681 -0.9947 -1.1200
12907TIP3    H260213   5.635   0.835   4.953 -2.5229  0.7684 -0.8518
12908TIP3   OH260214   5.549   4.905  15.458 -0.3347 -0.0920  0.2545
12908TIP3    H160215   5.536   4.831  15.518 -2.2823 -0.5097 -0.6375
12908TIP3    H260216   5.509   4.979  15.502  0.9480  0.2841  0.8100
12909TIP3   OH260217   1.830   2.691  15.497  0.2029  0.0879 -0.2614
12909TIP3    H160218   1.861   2.742  15.422 -2.2406  0.3525 -1.1555
12909TIP3    H260219   1.851   2.600  15.475  2.3855  0.4704  0.2189
12910TIP3   OH260220   6.176   4.689  11.758  0.0244 -0.1825 -0.2314
12910TIP3    H160221   6.165   4.698  11.853 -0.4114 -0.7312 -0.2313
12910TIP3    H260222   6.210   4.600  11.747 -1.6771 -0.7831 -0.7367
12911TIP3   OH260223   6.264   5.326   0.602  0.0168 -0.3086 -0.6266
12911TIP3    H160224   6.305   5.374   0.674  0.7582 -1.0837 -0.5219
12911TIP3    H260225   6.230   5.394   0.544  1.7876  0.3728 -0.9142
12912TIP3   OH260226   4.519   3.252   3.448 -0.4818  0.3004  0.6802
12912TIP3    H160227   4.604   3.210   3.458 -0.4060 -0.0451 -1.3333
12912TIP3    H260228   4.537   3.332   3.398 -1.1698  0.8512  1.2952
12913TIP3   OH260229   1.865   5.954  11.339  0.5716  0.4385  0.5961
12913TIP3    H160230   1.792   6.015  11.326  0.9204  0.8346  0.4954
12913TIP3    H260231   1.932   6.005  11.383  1.2932  0.4279 -0.4821
12914TIP3   OH260232   5.622   2.368   0.448 -0.1313 -0.3176  0.3253
12914TIP3    H160233   5.671   2.429   0.392  0.3032 -0.8854  0.0715
12914TIP3    H260234   5.689   2.308   0.481 -0.5572 -0.6703  0.5472
12915TIP3   OH260235   3.039   1.923  15.339 -0.4268  0.2582 -0.0467
12915TIP3    H160236   2.972   1.941  15.274 -1.5312  1.5618  1.4063
12915TIP3    H260237   2.998   1.863  15.401  0.8031 -1.4382 -0.8211
12916TIP3   OH260238   4.183   4.513   1.268  0.2908 -0.0655  0.0531
12916TIP3    H160239   4.278   4.526   1.266  0.0603  1.5395 -1.5331
12916TIP3    H260240   4.149   4.573   1.201 -1.8157 -0.8534  0.3838
12917TIP3   OH260241   1.835   6.182   5.231  0.6813 -0.3961  0.0494
12917TIP3    H160242   1.744   6.211   5.234  0.9654  0.7210 -1.7078
12917TIP3    H260243   1.831   6.087   5.247 -0.5609 -0.0091  2.2122
12918TIP3   OH260244   3.400   1.998   3.901  0.8585  0.1121  0.1817
12918TIP3    H160245   3.448   2.004   3.984 -0.1355 -0.2426  0.7942
12918TIP3    H260246   3.335   2.067   3.906  2.1431  1.4660 -1.2284
12919TIP3   OH260247   3.077   3.830   3.802  0.4294 -0.2766  0.0036
12919TIP3    H160248   3.017   3.794   3.867 -0.8549 -0.5946 -1.3186
12919TIP3    H260249   3.157   3.780   3.812 -0.1952 -1.1964  0.4622
12920TIP3   OH260250   4.951   4.636   5.531  0.1965  0.6507 -0.1183
12920TIP3    H160251   5.027   4.692   5.541  0.9814 -0.5046  0.4745
12920TIP3    H260252   4.979   4.568   5.469 -1.3994  2.0402 -2.4630
12921TIP3   OH260253   0.626   2.871  13.438  0.0389  0.1381 -1.0456
12921TIP3    H160254   0.561   2.833  13.380 -0.1977 -1.7562  0.4128
12921TIP3    H260255   0.707   2.824  13.418 -0.0084 -0.4197  0.0243
12922TIP3   OH260256   3.460   4.571  14.433 -0.5770  0.2316 -0.1556
12922TIP3    H160257   3.511   4.630  14.489  0.9737 -1.0546 -0.2011
12922TIP3    H260258   3.380   4.554  14.484 -0.5356  1.4443  0.3485
12923TIP3   OH260259   2.821   1.899   4.957 -0.2370 -0.0002  0.0852
12923TIP3    H160260   2.849   1.984   4.922  2.1504 -0.4598  0.7804
12923TIP3    H260261   2.827   1.910   5.052 -3.4704  0.1870  0.3235
12924TIP3   OH260262   4.896   1.395  11.603 -0.3840  0.9759 -0.1846
12924TIP3    H160263   4.888   1.304  11.574 -0.1891  1.0428 -0.4532
12924TIP3    H260264   4.818   1.411  11.655 -1.3415  1.2145 -1.6698
12925TIP3   OH260265   0.503   2.695   2.242 -0.0391 -0.5376  0.5442
12925TIP3    H160266   0.478   2.682   2.151 -0.4811 -0.4499  0.6502
12925TIP3    H260267   0.544   2.613   2.268  0.2485 -0.4960  0.2128
12926TIP3   OH260268   1.813   2.447  17.218  0.0287 -0.5961  0.3150
12926TIP3    H160269   1.728   2.405  17.202  0.5653 -1.4530 -0.3174
12926TIP3    H260270   1.791   2.540  17.229 -1.0140 -0.8315  0.3390
12927TIP3   OH260271   1.584   2.919  16.572 -0.5876 -0.7479  0.1919
12927TIP3    H160272   1.552   2.842  16.525 -1.5355 -0.3334  0.1299
12927TIP3    H260273   1.649   2.958  16.513  0.2291 -1.7602  0.4330
12928TIP3   OH260274   1.296   3.082   2.957  0.0450  0.0476 -0.0996
12928TIP3    H160275   1.376   3.090   2.905 -0.5225 -0.3502 -1.0456
12928TIP3    H260276   1.231   3.134   2.910 -0.7865 -1.2731 -0.4387
12929TIP3   OH260277   5.478   3.277  14.874  0.1423  0.0939  0.0331
12929TIP3    H160278   5.504   3.195  14.832  1.4102  0.4274  0.1380
12929TIP3    H260279   5.469   3.339  14.801 -0.1484  0.0393  0.0212
12930TIP3   OH260280   5.032   0.630   6.217 -0.3113 -0.5649  0.2722
12930TIP3    H160281   5.041   0.541   6.252  0.1328 -0.2182  1.0565
12930TIP3    H260282   4.941   0.636   6.191 -0.8274 -0.6375  1.9561
12931TIP3   OH260283   5.136   2.874   5.205 -0.0767 -0.5582  0.0228
12931TIP3    H160284   5.060   2.841   5.253 -1.5761 -0.5258 -2.2573
12931TIP3    H260285   5.177   2.936   5.265 -0.9356 -1.7508  1.8925
12932TIP3   OH260286   5.573   1.645  15.404  0.3362  0.0245  0.6685
12932TIP3    H160287   5.642   1.710  15.419  1.4694 -0.8876 -0.4084
12932TIP3    H260288   5.591   1.611  15.317 -1.7902  0.1047  0.1698
12933TIP3   OH260289   6.791   0.138   4.663  0.3899 -0.0938 -0.3831
12933TIP3    H160290   6.843   0.179   4.594  0.3292 -0.5422 -0.6993
12933TIP3    H260291   6.855   0.093   4.718  0.5030  0.8130  0.2340
12934TIP3   OH260292   6.297   5.200   5.929  0.3250  0.4471 -0.1577
12934TIP3    H160293   6.366   5.171   5.989 -0.0753 -0.0328  0.0799
12934TIP3    H260294   6.336   5.272   5.880  0.2104  1.8065  1.6794
12935TIP3   OH260295   4.361   5.588  13.216  0.2104 -0.0074 -0.9652
12935TIP3    H160296   4.437   5.599  13.273  0.0587  0.8720 -0.9243
12935TIP3    H260297   4.385   5.634  13.136 -0.4383  0.6361 -0.7985
12936TIP3   OH260298   0.469   0.527   3.061 -0.2705 -0.0990  0.2738
12936TIP3    H160299   0.394   0.550   3.116 -0.4757  1.1979 -0.5426
12936TIP3    H260300   0.448   0.565   2.976  0.9690 -0.3937 -0.1592
12937TIP3   OH260301   4.564   0.003   4.556 -0.9703 -0.4511  0.2757
12937TIP3    H160302   4.552   0.003   4.651 -0.5385 -3.1708  0.3538
12937TIP3    H260303   4.533  -0.082   4.527  0.6797 -0.4065 -1.7903
12938TIP3   OH260304   1.928   5.859  16.870  0.1017 -0.0810 -0.5075
12938TIP3    H160305   1.972   5.783  16.830  1.2794  0.3668 -0.0812
12938TIP3    H260306   1.847   5.823  16.905  0.5611 -1.1252 -0.4689
12939TIP3   OH260307   0.010   4.149  15.709  0.2170 -0.1482  0.5766
12939TIP3    H160308   0.091   4.178  15.667  0.5991 -2.2345 -0.1691
12939TIP3    H260309  -0.027   4.229  15.747  2.8832  0.7538  1.3932
12940TIP3   OH260310   6.604   5.561  13.341  0.0094  0.3842  0.0261
12940TIP3    H160311   6.573   5.478  13.379 -0.4803  0.2754 -0.5967
12940TIP3    H260312   6.626   5.538  13.251 -0.0062  0.9063 -0.1069
12941TIP3   OH260313   6.365   3.114   2.548 -0.2642  0.2076 -0.2118
12941TIP3    H160314   6.289   3.151   2.503 -0.1657 -0.0071 -0.5603
12941TIP3    H260315   6.328   3.046   2.605 -0.4853  1.1158  0.7362
12942TIP3   OH260316   4.850   1.237  15.482  0.3905 -0.5287 -0.0536
12942TIP3    H160317   4.894   1.231  15.397 -2.6211  1.3851 -1.8034
12942TIP3    H260318   4.818   1.327  15.486  0.7797 -0.4888  3.3039
12943TIP3   OH260319   3.146   2.400   2.440  0.1363 -0.1125  0.0384
12943TIP3    H160320   3.052   2.414   2.427 -0.2766 -2.2823  0.5547
12943TIP3    H260321   3.182   2.489   2.450 -1.7304  0.7797 -0.8878
12944TIP3   OH260322   0.380   2.606  13.872 -0.2395 -0.5444  0.1465
12944TIP3    H160323   0.311   2.612  13.806 -1.6447  2.3276  1.8040
12944TIP3    H260324   0.426   2.690  13.867  1.1760 -1.2295  1.2036
12945TIP3   OH260325   1.835   6.564  10.602  0.0058  0.3720  0.1762
12945TIP3    H160326   1.841   6.502  10.530 -0.6477  0.5191 -0.0077
12945TIP3    H260327   1.925   6.597  10.613  0.3377 -0.5352  0.2239
12946TIP3   OH260328   2.382   1.436   1.115  0.2855 -0.3192 -0.1206
12946TIP3    H160329   2.381   1.531   1.102 -0.2345 -0.2144  0.6323
12946TIP3    H260330   2.386   1.400   1.027  1.8588  0.4113 -0.3590
12947TIP3   OH260331   0.197   0.828  12.530 -0.0684 -0.1512 -0.0851
12947TIP3    H160332   0.112   0.833  12.575 -0.3923  0.8804 -0.7800
12947TIP3    H260333   0.189   0.892  12.459  0.8825 -0.8729 -0.8402
12948TIP3   OH260334   0.778   0.485   4.784 -0.0759  0.4370  0.4651
12948TIP3    H160335   0.821   0.440   4.711 -0.3732  1.4379 -0.3278
12948TIP3    H260336   0.845   0.488   4.853 -0.0611 -1.2472  0.5457
12949TIP3   OH260337   6.395   1.335   4.094 -0.0366 -0.1294 -0.1890
12949TIP3    H160338   6.369   1.245   4.115  0.8760 -0.3261  0.1346
12949TIP3    H260339   6.398   1.379   4.179 -1.4809  0.4853 -0.4495
12950TIP3   OH260340   6.247   0.394   5.058 -0.3330 -0.0351  0.5227
12950TIP3    H160341   6.260   0.432   5.146  1.1303  2.1135 -0.5792
12950TIP3    H260342   6.335   0.377   5.027 -0.7821  0.6843 -1.1643
12951TIP3   OH260343   5.126   3.341   0.579 -0.3776  0.2345  0.3480
12951TIP3    H160344   5.083   3.305   0.657 -1.3363  0.2178 -0.1789
12951TIP3    H260345   5.096   3.432   0.576  1.2832  0.8331  1.1409
12952TIP3   OH260346   2.057   0.126   2.587  0.7204  0.6298  0.0878
12952TIP3    H160347   2.136   0.073   2.578  0.0135 -0.7193  1.7129
12952TIP3    H260348   1.991   0.081   2.535  0.9089  1.5692 -0.9845
12953TIP3   OH260349   6.117   5.709   1.502  0.1120 -0.0750  0.3345
12953TIP3    H160350   6.037   5.656   1.505 -0.5100  0.6793 -1.5995
12953TIP3    H260351   6.123   5.748   1.589 -1.4869 -0.3652  0.5919
12954TIP3   OH260352   3.760   6.349  14.469  0.7947 -0.1976  0.1923
12954TIP3    H160353   3.667   6.371  14.473  0.8136 -0.3444  1.7358
12954TIP3    H260354   3.789   6.383  14.384 -0.6203  0.0118 -0.2204
12955TIP3   OH260355   5.589   5.988   0.019 -0.0061 -0.6270  0.0819
12955TIP3    H160356   5.659   5.990  -0.046  0.5559 -2.7145  0.5569
12955TIP3    H260357   5.509   5.974  -0.032  0.5347 -3.1582 -0.1492
12956TIP3   OH260358   4.326   3.222   5.377 -0.2629  0.3263 -0.3947
12956TIP3    H160359   4.333   3.131   5.348  2.1478  0.3910 -0.0686
12956TIP3    H260360   4.331   3.274   5.297 -0.3380  0.2287 -0.4628
12957TIP3   OH260361   1.474   4.817   5.810 -0.2232  0.0091  0.3374
12957TIP3    H160362   1.434   4.844   5.893 -0.1034  0.0979  0.3669
12957TIP3    H260363   1.414   4.752   5.775 -0.3607  0.0957  0.4127
12958TIP3   OH260364   6.282   5.579  12.506 -0.5531  0.6704  0.0654
12958TIP3    H160365   6.280   5.559  12.413  2.3418 -0.2721  0.1680
12958TIP3    H260366   6.283   5.674  12.510  0.6020  0.7046 -0.9061
12959TIP3   OH260367   0.526   1.906   6.406 -0.3699 -0.0607  0.1040
12959TIP3    H160368   0.487   1.822   6.430 -0.8007  0.1613  0.1829
12959TIP3    H260369   0.487   1.969   6.466  0.9745 -0.0171  0.9306
12960TIP3   OH260370   5.584   4.943   0.280  0.2130 -0.1027  0.2348
12960TIP3    H160371   5.566   5.034   0.304 -1.7268 -0.2046 -0.6685
12960TIP3    H260372   5.564   4.939   0.187  0.8608 -1.3277  0.1441
12961TIP3   OH260373   3.714   5.014   3.519 -0.1777  0.1717  0.0157
12961TIP3    H160374   3.709   5.109   3.508  2.7604  0.2406 -1.1802
12961TIP3    H260375   3.794   5.000   3.570 -2.0295 -1.5382  2.6007
12962TIP3   OH260376   4.781   5.206   1.540 -0.0481  0.4418  0.5656
12962TIP3    H160377   4.745   5.209   1.629 -1.1944 -1.7490  0.1975
12962TIP3    H260378   4.876   5.208   1.553 -0.2031 -0.1306  1.8641
12963TIP3   OH260379   1.423   1.416  12.327  0.0346 -0.1833 -0.2260
12963TIP3    H160380   1.499   1.388  12.275 -0.5630  0.9124 -1.7174
12963TIP3    H260381   1.348   1.390  12.274 -0.6281 -0.3597  0.7881
12964TIP3   OH260382   3.889   5.891  14.102 -0.5665  0.4898  0.2848
12964TIP3    H160383   3.834   5.968  14.112 -0.3888  0.6494  0.0140
12964TIP3    H260384   3.948   5.894  14.177  0.6182  1.5681 -0.6837
12965TIP3   OH260385   1.908   4.281   2.291  0.0026 -0.2938  0.0297
12965TIP3    H160386   1.883   4.256   2.202 -3.1225  0.7370  0.5283
12965TIP3    H260387   1.999   4.310   2.284 -0.2629 -0.0434 -2.8822
12966TIP3   OH260388   6.805   5.958  10.341  0.7524  0.4010 -0.1326
12966TIP3    H160389   6.832   5.880  10.391  0.8650  0.3319 -0.2975
12966TIP3    H260390   6.887   5.992  10.306  0.4272 -1.0267 -2.4197
12967TIP3   OH260391   4.429   2.336   3.105 -0.7260 -0.1567  0.0082
12967TIP3    H160392   4.441   2.269   3.173  0.1651  0.1908  0.1929
12967TIP3    H260393   4.465   2.416   3.144 -1.2252  0.2976 -0.4515
12968TIP3   OH260394   4.325   4.251  15.856  0.0005 -0.2618 -0.7128
12968TIP3    H160395   4.232   4.255  15.878  0.2149  2.2034 -0.1358
12968TIP3    H260396   4.329   4.200  15.775 -1.7576 -1.1286 -0.2690
12969TIP3   OH260397   3.925   5.759   4.194 -0.5175  0.3498 -0.1846
12969TIP3    H160398   3.963   5.672   4.185 -1.8637 -0.1288 -1.6040
12969TIP3    H260399   3.990   5.809   4.243  0.1437 -1.5282  0.9161
12970TIP3   OH260400   4.043   3.157   1.484 -0.5573  0.1585  0.0348
12970TIP3    H160401   4.039   3.063   1.502 -2.5988  0.4037  0.9656
12970TIP3    H260402   4.073   3.196   1.566 -1.6139  0.4825  0.2788
12971TIP3   OH260403   0.486   1.882   3.728 -0.7423  0.2449  0.3984
12971TIP3    H160404   0.477   1.936   3.649 -0.8295 -1.6396 -0.9015
12971TIP3    H260405   0.530   1.940   3.791  1.0727  1.1818 -1.6482
12972TIP3   OH260406   3.136   2.768  14.256 -0.2078  0.1644 -0.1457
12972TIP3    H160407   3.142   2.835  14.188 -0.3635  0.5406  0.2086
12972TIP3    H260408   3.227   2.746  14.276 -0.1662 -0.8923 -1.3970
12973TIP3   OH260409   1.522   3.736   3.308 -0.0965 -0.1602  0.2318
12973TIP3    H160410   1.428   3.731   3.328 -0.7146  1.3144 -2.0410
12973TIP3    H260411   1.545   3.648   3.279 -0.4538 -0.8717  2.0593
12974TIP3   OH260412   1.208   1.129  15.347 -0.1478 -0.2786 -0.3166
12974TIP3    H160413   1.205   1.034  15.357  1.6162 -0.3557 -0.4640
12974TIP3    H260414   1.280   1.145  15.286  0.2082  1.2034  0.4668
12975TIP3   OH260415   1.837   0.412   5.725  0.7394 -0.0751  0.4233
12975TIP3    H160416   1.917   0.464   5.720  1.5528 -1.2946  0.6070
12975TIP3    H260417   1.867   0.321   5.732 -0.6457 -0.5016  1.1033
12976TIP3   OH260418   5.913   1.834  12.839 -0.2128 -0.0773 -0.0703
12976TIP3    H160419   5.946   1.790  12.760 -0.0167  0.6526 -0.4002
12976TIP3    H260420   5.887   1.762  12.897 -1.0714 -0.6303 -1.0964
12977TIP3   OH260421   0.164   5.954  15.337 -0.4289  0.1024  0.2552
12977TIP3    H160422   0.143   5.981  15.427  1.2113  0.0734  0.6668
12977TIP3    H260423   0.124   5.868  15.328  1.0781 -0.7749  1.6567
12978TIP3   OH260424   2.864   1.880   4.354  0.2603 -0.2452 -0.4213
12978TIP3    H160425   2.841   1.789   4.373 -0.8511  0.2750  0.8567
12978TIP3    H260426   2.857   1.888   4.259 -0.0550 -1.3838 -0.4981
12979TIP3   OH260427   3.410   6.542   4.591  0.5684  0.4933 -0.6995
12979TIP3    H160428   3.405   6.635   4.570  0.4877  0.6485 -0.0048
12979TIP3    H260429   3.457   6.538   4.675 -2.1766  0.1472  0.8888
12980TIP3   OH260430   3.003   5.623  12.638 -0.2818 -0.5910  0.4856
12980TIP3    H160431   3.084   5.636  12.688 -0.0379 -0.2798  0.0066
12980TIP3    H260432   2.970   5.711  12.621 -0.6924 -0.7161  0.6313
12981TIP3   OH260433   1.936   1.395   0.379  0.0731  0.7082  0.3438
12981TIP3    H160434   1.906   1.328   0.441  2.3082 -0.3735  0.3199
12981TIP3    H260435   1.902   1.366   0.294  0.0096  0.2630  0.5179
12982TIP3   OH260436   6.090   4.708  14.334  0.2826 -0.4299 -0.2174
12982TIP3    H160437   6.135   4.792  14.345 -0.3843  0.0614 -1.1624
12982TIP3    H260438   6.108   4.683  14.244 -1.5621 -0.0790 -0.7070
12983TIP3   OH260439   1.623   4.824   4.043  0.9828  0.3430  0.2993
12983TIP3    H160440   1.536   4.784   4.035  0.4269  1.8298 -1.6851
12983TIP3    H260441   1.679   4.754   4.075 -0.6074 -1.1533 -0.1181
12984TIP3   OH260442   2.202   3.972  15.755 -0.1182 -0.0489 -1.1566
12984TIP3    H160443   2.135   3.943  15.816 -0.1669 -0.5202 -1.4382
12984TIP3    H260444   2.192   3.917  15.678  0.6231 -0.1591 -1.1837
12985TIP3   OH260445   5.513   3.234  11.119 -0.6900  0.1950 -0.3360
12985TIP3    H160446   5.581   3.247  11.053 -1.2681  2.1286 -0.5982
12985TIP3    H260447   5.491   3.141  11.114  0.7411 -0.0925 -1.4149
12986TIP3   OH260448   5.401   5.359  13.261  0.0354 -0.1081  0.3791
12986TIP3    H160449   5.425   5.365  13.169  0.5892 -3.1231  0.2818
12986TIP3    H260450   5.311   5.392  13.265 -0.5033 -1.3122 -1.4625
12987TIP3   OH260451   3.231   3.541  12.379 -0.2081 -0.3161  0.0369
12987TIP3    H160452   3.321   3.529  12.410  0.2766  0.6040 -0.9719
12987TIP3    H260453   3.237   3.534  12.284 -1.7228 -3.3207  0.0987
12988TIP3   OH260454   3.991   4.970  14.101 -0.4664  0.4648 -0.3138
12988TIP3    H160455   3.911   5.012  14.130  0.3413  2.0578 -0.3435
12988TIP3    H260456   4.030   5.032  14.039  1.1705  0.0676  0.2793
12989TIP3   OH260457   5.385   1.982   2.509  0.1687  0.2313  0.9938
12989TIP3    H160458   5.363   2.046   2.442  1.9792 -1.7311 -1.5742
12989TIP3    H260459   5.322   1.911   2.498  0.8838 -0.4062  0.8755
12990TIP3   OH260460   0.170   6.456   2.059 -0.2332 -0.4101 -0.4331
12990TIP3    H160461   0.079   6.465   2.032 -0.3798  0.2598  0.2708
12990TIP3    H260462   0.180   6.363   2.080 -0.8280 -0.4327 -0.2516
12991TIP3   OH260463   3.486   4.316   5.110 -0.4442  0.3613  0.1029
12991TIP3    H160464   3.423   4.255   5.072 -1.0358  0.1298  1.4590
12991TIP3    H260465   3.452   4.403   5.087  0.1806  0.2256 -1.4659
12992TIP3   OH260466   2.308   4.632   1.697 -0.7007  0.7322 -0.5815
12992TIP3    H160467   2.334   4.628   1.789 -1.4479  0.3467 -0.3864
12992TIP3    H260468   2.328   4.722   1.671  0.2300  0.6298 -0.2621
12993TIP3   OH260469   0.912   0.265   5.208 -0.5098 -0.5156 -0.3889
12993TIP3    H160470   0.911   0.340   5.149  0.3541 -1.8651 -2.1668
12993TIP3    H260471   1.000   0.264   5.245 -0.9544  0.1496  0.6955
12994TIP3   OH260472   4.986   3.365   6.558 -0.2126  0.2597  0.3183
12994TIP3    H160473   5.038   3.353   6.478  0.0045 -1.4900  0.6925
12994TIP3    H260474   5.021   3.444   6.598  2.6486 -1.2069  0.8749
12995TIP3   OH260475   1.601   1.723   4.373 -0.5168  0.4448  0.6567
12995TIP3    H160476   1.663   1.759   4.436 -0.1599  1.1347 -0.0855
12995TIP3    H260477   1.517   1.764   4.397 -0.1213  1.7348 -0.1555
12996TIP3   OH260478   5.855   6.614  14.206  0.1066  0.9691  0.1961
12996TIP3    H160479   5.777   6.663  14.231  0.6460  1.8293  0.2115
12996TIP3    H260480   5.825   6.554  14.138 -0.7745  0.5937  0.9057
12997TIP3   OH260481   1.900   1.932  13.504 -0.2270  0.1735 -0.1635
12997TIP3    H160482   1.847   2.007  13.476 -0.3424  0.6660  1.3384
12997TIP3    H260483   1.891   1.869  13.433 -0.5300  1.3876 -1.2231
12998TIP3   OH260484   0.388   2.346  13.323  0.1919 -0.4015  0.3599
12998TIP3    H160485   0.419   2.435  13.304 -0.1585 -0.0369  1.4677
12998TIP3    H260486   0.431   2.323  13.405 -0.3771 -0.9271  0.5100
12999TIP3   OH260487   0.053   6.542  14.748 -0.1699  0.6282  0.1758
12999TIP3    H160488   0.098   6.626  14.738 -0.3424  0.5482 -1.3934
12999TIP3    H260489   0.113   6.489  14.801  0.4128  1.3904  0.2861
13000TIP3   OH260490   1.847   4.008  14.024 -0.1380  0.0599  0.0628
13000TIP3    H160491   1.774   4.016  14.086  1.2867 -1.5886  2.0225
13000TIP3    H260492   1.907   3.946  14.066  3.1278  2.5382 -0.8004
13001TIP3   OH260493   6.806   3.247  14.093 -0.1659 -0.2069  0.6423
13001TIP3    H160494   6.892   3.205  14.082  1.7437  3.8834 -1.0467
13001TIP3    H260495   6.743   3.177  14.075  2.8174 -2.5729 -1.1640
13002TIP3   OH260496   3.442   2.505  11.970  0.3736  0.2234 -0.1677
13002TIP3    H160497   3.484   2.445  12.032 -0.6371  0.0444  0.3656
13002TIP3    H260498   3.450   2.462  11.885 -0.1004 -0.5418  0.1707
13003TIP3   OH260499   6.130   1.106  16.107 -0.1342  0.2305 -0.2007
13003TIP3    H160500   6.116   1.040  16.175  0.1220  0.4854  0.1025
13003TIP3    H260501   6.222   1.129  16.115 -0.3852  1.1278  0.1493
13004TIP3   OH260502   6.525   4.480  13.799  0.3090 -0.1329 -0.5161
13004TIP3    H160503   6.526   4.540  13.874 -1.9657  0.7218 -1.1282
13004TIP3    H260504   6.590   4.515  13.738  0.2158  0.7094 -0.1278
13005TIP3   OH260505   1.653   2.210   2.481 -0.0928 -0.2146 -0.3641
13005TIP3    H160506   1.691   2.214   2.394  0.4375 -1.6914 -0.2179
13005TIP3    H260507   1.560   2.189   2.466 -0.2571  0.6765 -0.6107
13006TIP3   OH260508   3.030   1.202   2.990 -0.0213 -0.1522  0.0844
13006TIP3    H160509   2.974   1.267   2.950 -1.4408 -0.4087  1.6095
13006TIP3    H260510   3.065   1.152   2.916  0.9522  2.1871 -1.0918
13007TIP3   OH260511   2.483   6.163   3.781  0.0912  0.0663 -0.8482
13007TIP3    H160512   2.461   6.114   3.702 -0.3325 -0.5037 -0.3813
13007TIP3    H260513   2.425   6.128   3.848  0.6734  0.3152 -0.2045
13008TIP3   OH260514   6.629   2.902   4.594 -0.0308 -0.2302 -0.0376
13008TIP3    H160515   6.572   2.841   4.640 -1.3776  0.9045 -0.1729
13008TIP3    H260516   6.640   2.976   4.654  0.5193 -0.0153 -0.3930
13009TIP3   OH260517   3.775   5.419  13.291  1.0935  0.1592  0.1976
13009TIP3    H160518   3.831   5.346  13.318 -1.5575 -1.4484  1.6719
13009TIP3    H260519   3.726   5.441  13.370 -3.0576 -1.0697 -1.8865
13010TIP3   OH260520   6.250   3.450   1.803 -0.1135  0.3863 -0.1602
13010TIP3    H160521   6.256   3.372   1.858  1.4645  1.9898  2.0991
13010TIP3    H260522   6.290   3.425   1.720  0.7970 -1.0852  0.6977
13011TIP3   OH260523   5.669   0.720  13.987 -0.2458 -0.1268  0.5557
13011TIP3    H160524   5.691   0.641  13.938  1.3911  0.9152 -0.4270
13011TIP3    H260525   5.592   0.696  14.039  0.9225 -2.7040  1.1342
13012TIP3   OH260526   2.494   6.156  10.465 -0.5836 -0.1895  0.4243
13012TIP3    H160527   2.401   6.166  10.447 -0.2751  0.1957 -1.0736
13012TIP3    H260528   2.498   6.110  10.549 -2.1075  1.5501  1.4972
13013TIP3   OH260529   5.404   4.413  15.775 -0.1352 -0.3010 -0.2664
13013TIP3    H160530   5.313   4.442  15.770  0.5116  1.7440 -0.5328
13013TIP3    H260531   5.446   4.473  15.836  1.3822 -0.2744 -1.2807
13014TIP3   OH260532   4.284   0.565  12.789  0.0408 -0.0003 -0.0316
13014TIP3    H160533   4.350   0.553  12.720  0.6846 -0.8572  0.7146
13014TIP3    H260534   4.304   0.650  12.827  2.0826 -1.1814  1.6093
13015TIP3   OH260535   2.345   6.370   5.774  0.2225  0.2702 -0.0955
13015TIP3    H160536   2.436   6.383   5.802  0.3470  1.5708 -1.0512
13015TIP3    H260537   2.293   6.397   5.850  0.6274 -2.1488  1.1040
13016TIP3   OH260538   3.918   4.073   2.546  0.1348 -0.9007  0.1305
13016TIP3    H160539   3.872   4.074   2.630 -1.2858  1.1340 -0.6364
13016TIP3    H260540   3.953   3.984   2.539  1.4338 -0.7135  3.4737
13017TIP3   OH260541   4.105   5.767  12.245  0.5907  0.4736 -0.0794
13017TIP3    H160542   4.046   5.824  12.196 -1.6915 -0.7099  1.2128
13017TIP3    H260543   4.181   5.755  12.187  0.0771  2.9081 -1.3140
13018TIP3   OH260544   1.458   5.261   2.857 -0.0580  0.6737  0.0429
13018TIP3    H160545   1.529   5.303   2.905 -0.1501  1.4480 -0.4853
13018TIP3    H260546   1.393   5.331   2.844 -1.2974 -0.2180  1.2622
13019TIP3   OH260547   0.298   3.526   2.517  0.3361 -0.0812  0.4883
13019TIP3    H160548   0.271   3.536   2.608  1.3942 -0.2395  0.8254
13019TIP3    H260549   0.216   3.513   2.469 -0.3842  1.7813  1.1676
13020TIP3   OH260550   3.875   6.759  11.776 -0.3025 -0.2386  0.2855
13020TIP3    H160551   3.899   6.678  11.820  0.4281  0.7345  1.7309
13020TIP3    H260552   3.822   6.807  11.840 -1.3879  0.0833 -0.8391
13021TIP3   OH260553   0.939   4.734  14.294 -0.3900  0.3890 -0.4237
13021TIP3    H160554   1.013   4.715  14.235 -0.1453  1.3558 -0.4336
13021TIP3    H260555   0.863   4.697  14.249  0.0655 -0.4594 -0.4977
13022TIP3   OH260556   6.474   4.734  11.768 -0.0592 -0.0141  0.2086
13022TIP3    H160557   6.514   4.818  11.746  1.6874  0.2429  3.9921
13022TIP3    H260558   6.381   4.753  11.775  0.2178  1.4249  0.1525
13023TIP3   OH260559   1.022   5.332  16.853 -0.0092 -0.1395  0.2614
13023TIP3    H160560   1.115   5.330  16.874  0.2173 -1.3198 -0.7762
13023TIP3    H260561   1.017   5.303  16.762 -1.2191  1.8473 -0.3540
13024TIP3   OH260562   1.280   1.632  11.411 -0.1148  0.3505 -0.1245
13024TIP3    H160563   1.311   1.552  11.369 -0.4695  0.3041 -0.2999
13024TIP3    H260564   1.274   1.610  11.504  0.7787  0.4889 -0.0306
13025TIP3   OH260565   6.642   6.145   4.777 -0.1539  0.0045  0.0639
13025TIP3    H160566   6.712   6.183   4.830 -0.0854  2.4184 -1.6574
13025TIP3    H260567   6.671   6.157   4.686 -1.4297 -1.7138 -0.5976
13026TIP3   OH260568   0.081   3.350   6.371  0.0233 -0.1599  0.5863
13026TIP3    H160569   0.046   3.298   6.443 -2.2455 -0.6524 -0.8078
13026TIP3    H260570   0.025   3.428   6.368  0.6954  0.3052 -0.0471
13027TIP3   OH260571   6.365   5.935   3.782 -0.6014 -0.5277 -0.0006
13027TIP3    H160572   6.296   5.999   3.763 -1.5499 -0.9763  1.8301
13027TIP3    H260573   6.339   5.856   3.735  0.3406  0.2382 -1.8986
13028TIP3   OH260574   6.723   3.530  13.661  0.5647  0.0567  0.3949
13028TIP3    H160575   6.728   3.607  13.605  0.9476  1.1834  1.9643
13028TIP3    H260576   6.631   3.504  13.659  0.6045 -0.0436 -0.9005
13029TIP3   OH260577   5.281   3.804   1.805  0.2638 -0.1807 -0.0167
13029TIP3    H160578   5.364   3.788   1.849 -0.3007 -0.5982  0.8899
13029TIP3    H260579   5.226   3.847   1.871 -0.3849 -0.2834 -0.4814
13030TIP3   OH260580   2.105   2.594   3.178  0.6052 -0.0850 -0.1021
13030TIP3    H160581   2.105   2.540   3.257  1.5611  1.2227  0.8014
13030TIP3    H260582   2.144   2.537   3.111 -0.2963 -1.2292  0.3191
13031TIP3   OH260583   2.025   3.744  14.614  0.5843  0.3200 -0.3566
13031TIP3    H160584   2.022   3.649  14.606  0.9541  0.2755 -0.0039
13031TIP3    H260585   2.116   3.763  14.634  0.2282  0.6311  1.0099
13032TIP3   OH260586   2.406   0.827  13.429  0.0327  0.1968  0.0934
13032TIP3    H160587   2.475   0.844  13.492 -0.2537 -1.0988  0.7743
13032TIP3    H260588   2.414   0.897  13.365  0.3723  1.4719  1.5203
13033TIP3   OH260589   2.515   0.519   0.580  0.4406 -0.3098 -0.3909
13033TIP3    H160590   2.593   0.561   0.544  0.7369 -0.7947 -0.3135
13033TIP3    H260591   2.484   0.579   0.648  0.9736 -0.3132 -0.1478
13034TIP3   OH260592   5.519   3.921  15.055  0.3038 -0.1833  0.3843
13034TIP3    H160593   5.442   3.877  15.092  0.1516 -1.4335 -1.3433
13034TIP3    H260594   5.483   3.986  14.994  0.6092 -0.9478 -0.6242
13035TIP3   OH260595   5.741   5.049  12.673  0.2680  0.3436  0.6399
13035TIP3    H160596   5.678   4.991  12.715  0.5119 -1.1800 -1.0324
13035TIP3    H260597   5.805   4.990  12.634  0.6728  1.7537 -0.8644
13036TIP3   OH260598   2.020   2.305   2.513 -0.1535 -0.0943  0.8181
13036TIP3    H160599   2.062   2.352   2.585 -0.3810  0.1505  0.7910
13036TIP3    H260600   1.973   2.233   2.555 -0.8882  0.4779  0.9837
13037TIP3   OH260601   4.434   6.820  14.830  0.1636  0.3182  0.0561
13037TIP3    H160602   4.471   6.873  14.760  0.9432 -1.1581 -0.6762
13037TIP3    H260603   4.345   6.799  14.800  0.4490 -0.2004 -0.4375
13038TIP3   OH260604   0.289   6.201  15.912 -0.2745 -0.9860  0.2852
13038TIP3    H160605   0.312   6.255  15.836 -1.4197 -1.2300 -0.2403
13038TIP3    H260606   0.325   6.115  15.893  2.9394 -0.0673  1.8235
13039TIP3   OH260607   3.067   2.636   5.509  0.2852 -0.0453 -0.0523
13039TIP3    H160608   3.086   2.718   5.463  0.9601 -0.6489 -0.8501
13039TIP3    H260609   2.974   2.620   5.492  0.4551 -0.1002 -0.9466
13040TIP3   OH260610   3.665   2.236  13.436  0.6107  0.1134 -0.7557
13040TIP3    H160611   3.630   2.297  13.371 -1.6423 -0.2255  0.0745
13040TIP3    H260612   3.686   2.158  13.386 -1.1979 -0.1762 -1.1245
13041TIP3   OH260613   4.580   3.278  13.763 -0.0757 -0.3295 -0.0564
13041TIP3    H160614   4.638   3.354  13.752  0.0612 -0.3571  0.4436
13041TIP3    H260615   4.632   3.204  13.732 -0.2296 -0.2106 -0.5984
13042TIP3   OH260616   6.723   5.755  14.348 -0.2543  0.2282 -0.4400
13042TIP3    H160617   6.654   5.708  14.395  0.2051 -0.2905 -0.2817
13042TIP3    H260618   6.693   5.759  14.258 -0.1749 -0.5908 -0.5024
13043TIP3   OH260619   1.065   6.203   5.847 -0.6688  0.0848  0.0306
13043TIP3    H160620   0.987   6.185   5.900 -0.2422 -1.1941  0.2301
13043TIP3    H260621   1.130   6.233   5.911 -0.7049  0.2588 -0.0131
13044TIP3   OH260622   1.106   4.485   0.204  0.2615  0.4259  0.0892
13044TIP3    H160623   1.034   4.481   0.141  1.8599 -0.1002 -1.7279
13044TIP3    H260624   1.103   4.401   0.249  1.1109 -0.5161 -1.5589
13045TIP3   OH260625   4.420   0.644  12.543  1.0606 -0.3446  0.2811
13045TIP3    H160626   4.337   0.616  12.505  0.5818 -0.0179  1.0800
13045TIP3    H260627   4.415   0.740  12.545  1.3535 -0.3322  0.5665
13046TIP3   OH260628   0.384   1.014   2.794  0.1249  0.5084  0.6337
13046TIP3    H160629   0.426   1.032   2.878 -1.0878  0.2290  1.3087
13046TIP3    H260630   0.370   0.920   2.794  1.8294  0.2311 -0.7069
13047TIP3   OH260631   0.913   3.060   1.391  0.4055 -0.2724  0.1204
13047TIP3    H160632   0.881   3.149   1.405  2.2914  0.4295  0.2287
13047TIP3    H260633   0.971   3.043   1.466 -0.4959 -1.8864  0.4920
13048TIP3   OH260634   4.165   5.283   4.762 -0.2886 -0.3270 -0.1136
13048TIP3    H160635   4.163   5.273   4.857  0.5216  2.6508  0.2865
13048TIP3    H260636   4.250   5.246   4.736  1.0298  1.9519  0.8017
13049TIP3   OH260637   0.823   5.432   2.505  0.4931  0.0003  0.2603
13049TIP3    H160638   0.760   5.372   2.546  1.8091 -1.0620  0.7987
13049TIP3    H260639   0.797   5.519   2.536  1.5205 -0.7802  3.5274
13050TIP3   OH260640   0.744   4.281  15.297 -0.3475 -0.5380 -0.0948
13050TIP3    H160641   0.754   4.247  15.208 -0.5448 -0.3081 -0.2032
13050TIP3    H260642   0.715   4.371  15.285  1.5626  0.1412  0.1671
13051TIP3   OH260643   6.012   3.384  15.775 -0.4327 -0.1439 -0.2071
13051TIP3    H160644   6.061   3.368  15.856  0.4461  0.9195 -0.5190
13051TIP3    H260645   6.079   3.408  15.710 -1.1396 -0.8895 -1.2249
13052TIP3   OH260646   0.109   5.410   0.051  0.6180  0.1045  0.7753
13052TIP3    H160647   0.100   5.317   0.030  2.6466 -0.1264  0.8032
13052TIP3    H260648   0.055   5.455  -0.014  1.4696 -0.9871 -0.7273
13053TIP3   OH260649   5.495   2.153   0.318  0.0910  0.0312  0.0750
13053TIP3    H160650   5.561   2.223   0.310  0.6441 -0.6057 -1.0627
13053TIP3    H260651   5.544   2.079   0.355  0.1048 -0.5376 -1.0444
13054TIP3   OH260652   5.977   5.162   3.781  0.0719 -0.1157 -0.2579
13054TIP3    H160653   6.055   5.109   3.795 -1.0144 -1.5875  0.3386
13054TIP3    H260654   5.919   5.105   3.730 -1.4347  0.1787  1.1059
13055TIP3   OH260655   5.604   0.442   0.870  0.3451 -0.1123  0.3663
13055TIP3    H160656   5.517   0.464   0.905 -0.0883 -0.5489 -0.4174
13055TIP3    H260657   5.662   0.507   0.909 -0.3691  0.3295  0.7242
13056TIP3   OH260658   6.030   6.453   0.152  0.1180  0.3034  0.3003
13056TIP3    H160659   6.055   6.427   0.241  0.5311  0.0537  0.1148
13056TIP3    H260660   6.002   6.544   0.160  0.2305  0.3040  0.6735
13057TIP3   OH260661   5.635   0.208   0.142 -0.3445 -0.0111 -0.0013
13057TIP3    H160662   5.545   0.238   0.129 -1.1089 -1.7894  0.9757
13057TIP3    H260663   5.682   0.286   0.172 -1.3368  1.1559 -1.3919
13058TIP3   OH260664   1.280   4.932   3.286  0.1473 -0.2508 -0.8910
13058TIP3    H160665   1.271   4.928   3.191  0.3798  3.1836 -1.0889
13058TIP3    H260666   1.205   4.982   3.316  0.6552 -0.3855  0.6546
13059TIP3   OH260667   5.151   5.742  14.570 -0.1735 -0.2852 -0.0571
13059TIP3    H160668   5.158   5.759  14.663 -1.0381 -0.2281  0.0021
13059TIP3    H260669   5.218   5.676  14.552 -0.5246 -0.8599  0.7468
13060TIP3   OH260670   1.070   3.324   6.347  0.5172 -0.0491  0.0254
13060TIP3    H160671   1.100   3.308   6.257  0.5883 -0.6491  0.1542
13060TIP3    H260672   1.052   3.237   6.382  1.7488  0.0905  1.0222
13061TIP3   OH260673   1.877   5.999   0.293 -0.0807  0.0561 -0.4178
13061TIP3    H160674   1.940   6.047   0.239  1.8373  1.4477  2.9007
13061TIP3    H260675   1.823   6.068   0.333 -0.8809 -0.8891  0.1423
13062TIP3   OH260676   3.429   4.745   3.369  0.1872 -0.4120  0.1665
13062TIP3    H160677   3.404   4.823   3.419 -0.4361 -0.2375 -0.4163
13062TIP3    H260678   3.500   4.774   3.312 -0.6121 -0.0672 -0.6517
13063TIP3   OH260679   1.108   0.484   0.261 -0.2765 -0.2615  0.4862
13063TIP3    H160680   1.099   0.573   0.295  0.8924  0.7429 -1.6802
13063TIP3    H260681   1.189   0.451   0.301  1.8752  1.4325 -2.2432
13064TIP3   OH260682   5.873   0.579   0.559 -0.0120  0.1457  0.5134
13064TIP3    H160683   5.781   0.588   0.585  0.5041  1.4369  2.0049
13064TIP3    H260684   5.870   0.531   0.476 -2.0435  0.3793  0.4178
13065TIP3   OH260685   5.488   6.648  14.801 -0.1653 -0.4897  0.6036
13065TIP3    H160686   5.415   6.636  14.861 -0.8560 -3.3214 -0.6707
13065TIP3    H260687   5.446   6.651  14.714  1.0348  0.4669  0.0500
13066TIP3   OH260688   3.470   4.432   1.277  0.0870  0.1676  0.1043
13066TIP3    H160689   3.409   4.394   1.340  0.4234  1.9709  1.5460
13066TIP3    H260690   3.486   4.361   1.214 -1.6107 -1.0904  1.0434
13067TIP3   OH260691   0.412   5.459   1.368 -0.0507  0.2049  0.0080
13067TIP3    H160692   0.417   5.468   1.273 -2.8580 -0.2818 -0.2109
13067TIP3    H260693   0.497   5.492   1.399  0.1223  2.3278 -2.5065
13068TIP3   OH260694   2.091   0.854   1.797 -0.2678  0.7091 -0.1359
13068TIP3    H160695   2.002   0.848   1.763 -0.2347  0.4523 -0.1788
13068TIP3    H260696   2.091   0.933   1.852 -0.7870  0.1348  0.6809
13069TIP3   OH260697   3.770   4.011  11.248 -0.2213  0.1057  0.5247
13069TIP3    H160698   3.738   4.083  11.194 -0.5001 -0.4771 -0.1002
13069TIP3    H260699   3.853   3.986  11.207 -0.5953 -0.5555  0.1498
13070TIP3   OH260700   3.340   0.436  16.753  0.6483  0.3879  0.5389
13070TIP3    H160701   3.424   0.480  16.757  0.0427  1.7304 -1.1683
13070TIP3    H260702   3.285   0.493  16.700 -0.6898 -1.5464 -0.2018
13071TIP3   OH260703   3.100   0.495  13.510 -0.1516 -0.2511 -0.3316
13071TIP3    H160704   3.115   0.503  13.416 -2.3637 -1.0984 -0.7959
13071TIP3    H260705   3.090   0.401  13.525 -0.6761 -0.0518  0.5998
13072TIP3   OH260706   5.094   5.506   3.596 -0.1366 -0.0589 -0.4896
13072TIP3    H160707   5.141   5.470   3.521 -1.1164 -0.2945 -1.0069
13072TIP3    H260708   5.007   5.466   3.590  0.8002 -2.7662  2.7265
13073TIP3   OH260709   1.287   4.750   1.839  0.1186  0.1702  0.2051
13073TIP3    H160710   1.295   4.655   1.826  1.0516  0.3704 -0.8550
13073TIP3    H260711   1.193   4.767   1.835  0.0008 -0.5947 -0.5954
13074TIP3   OH260712   2.812   2.711  11.819 -0.1406  0.2389 -0.1889
13074TIP3    H160713   2.898   2.742  11.850 -0.3803  0.4476  0.2767
13074TIP3    H260714   2.828   2.681  11.730  0.9960 -2.1373  0.7629
13075TIP3   OH260715   5.591   6.795  11.755 -0.2543 -0.0432  0.2685
13075TIP3    H160716   5.499   6.794  11.783 -0.3312 -1.6015 -0.0091
13075TIP3    H260717   5.636   6.741  11.821  0.7042  1.8166  1.1690
13076TIP3   OH260718   3.483   4.625   5.793  0.2041 -0.0835  0.3067
13076TIP3    H160719   3.556   4.602   5.850 -0.0448  1.0696  1.1020
13076TIP3    H260720   3.481   4.555   5.727  0.9145 -1.0551  1.3064
13077TIP3   OH260721   5.658   5.496   1.897 -0.1733 -0.8885  0.1359
13077TIP3    H160722   5.632   5.458   1.813  1.4090  1.0343 -1.2618
13077TIP3    H260723   5.712   5.429   1.938  1.3266 -0.7732 -1.6085
13078TIP3   OH260724   1.999   6.326  12.152  0.3635  0.8013  0.0135
13078TIP3    H160725   2.043   6.247  12.120  0.6732  1.0125 -0.0854
13078TIP3    H260726   1.913   6.324  12.111  0.9040  1.2876 -1.1797
13079TIP3   OH260727   0.007   6.019  14.721 -0.0265  0.6573  0.4138
13079TIP3    H160728   0.088   6.056  14.686 -0.3437  0.1304 -0.8787
13079TIP3    H260729   0.014   6.032  14.816  0.8206  2.0964  0.1648
13080TIP3   OH260730   5.878   6.662  15.801 -0.0593 -0.4116  0.1875
13080TIP3    H160731   5.879   6.602  15.875 -2.5622 -0.0861  0.5390
13080TIP3    H260732   5.896   6.748  15.840 -0.7032 -0.3353  0.3173
13081TIP3   OH260733   0.460   5.735  12.817 -0.0379  0.4603  0.5011
13081TIP3    H160734   0.446   5.723  12.723  1.6070  0.0303  0.3143
13081TIP3    H260735   0.554   5.744  12.827 -0.2906  1.8152  1.9690
13082TIP3   OH260736   1.745   4.114  12.661 -0.4524  0.3614  0.0462
13082TIP3    H160737   1.835   4.119  12.628 -1.1761  1.6223 -1.8634
13082TIP3    H260738   1.747   4.043  12.725  1.8757  0.2943 -0.0373
13083TIP3   OH260739   1.337   2.802   4.881 -0.1349 -0.2378  0.1868
13083TIP3    H160740   1.409   2.813   4.819 -0.6957 -0.2746 -0.4729
13083TIP3    H260741   1.258   2.815   4.829 -0.5794  1.3821  1.2195
13084TIP3   OH260742   4.507   5.701  15.691 -0.1941 -0.3737  0.2882
13084TIP3    H160743   4.504   5.785  15.738 -0.2763 -0.2623  0.0872
13084TIP3    H260744   4.470   5.721  15.605  0.7067 -0.3867 -0.1029
13085TIP3   OH260745   5.071   2.414  11.707 -0.0125 -0.4576 -0.2062
13085TIP3    H160746   5.124   2.337  11.685 -1.1448 -1.3910  0.2537
13085TIP3    H260747   5.077   2.422  11.802  1.1152  0.7946 -0.3664
13086TIP3   OH260748   6.431   4.604   0.739  0.2852 -0.5536  0.4311
13086TIP3    H160749   6.372   4.633   0.808  2.9081  1.9743  1.7038
13086TIP3    H260750   6.428   4.673   0.674  1.4596 -0.6524  0.2668
13087TIP3   OH260751   2.312   5.784   3.366 -0.2631 -0.1947  0.4012
13087TIP3    H160752   2.336   5.702   3.409  1.0874  1.2599  2.5095
13087TIP3    H260753   2.217   5.782   3.361 -0.2615 -1.7561  0.6688
13088TIP3   OH260754   5.947   0.702   3.446  0.5258  0.9679 -0.1993
13088TIP3    H160755   5.965   0.792   3.419 -0.5594  1.3314  0.2699
13088TIP3    H260756   5.904   0.662   3.371  0.3267  1.0613 -0.1345
13089TIP3   OH260757   3.611   5.608  10.126  0.2141  0.8549  0.8363
13089TIP3    H160758   3.545   5.599  10.195 -2.1280  1.8487 -1.2167
13089TIP3    H260759   3.591   5.691  10.084  1.0538 -0.1276 -1.5819
13090TIP3   OH260760   0.645   0.860  17.190  0.5102 -0.2517 -0.0073
13090TIP3    H160761   0.621   0.868  17.282  1.0044 -0.9569  0.1819
13090TIP3    H260762   0.587   0.922  17.145  0.7723  0.6398  0.8556
13091TIP3   OH260763   0.732   3.037  14.649  0.0003 -0.4317 -0.0501
13091TIP3    H160764   0.758   3.080  14.567 -0.3269  0.0899  0.1204
13091TIP3    H260765   0.802   3.059  14.710  1.0709 -2.1296 -0.6016
13092TIP3   OH260766   6.166   1.654   1.993 -0.4316 -0.3069  0.3291
13092TIP3    H160767   6.074   1.660   2.021 -1.1458 -2.8599 -1.2040
13092TIP3    H260768   6.160   1.644   1.898  1.5305  0.8796  0.0709
13093TIP3   OH260769   3.801   2.039   2.562  0.0141  0.0264  0.3116
13093TIP3    H160770   3.836   1.967   2.510 -2.4013  0.3921 -1.9219
13093TIP3    H260771   3.713   2.010   2.586  0.2316  0.8796  2.2153
13094TIP3   OH260772   0.559   2.276   5.320  0.2461 -0.4055 -0.0850
13094TIP3    H160773   0.648   2.289   5.288  0.0827 -2.5673 -1.5392
13094TIP3    H260774   0.561   2.305   5.411  1.7114  2.2065 -0.9075
13095TIP3   OH260775   2.137   0.149  11.402 -0.2338  0.7740  0.1208
13095TIP3    H160776   2.151   0.159  11.308  0.2590  2.0543  0.3292
13095TIP3    H260777   2.221   0.175  11.441 -0.4815  0.3736  0.9239
13096TIP3   OH260778   4.202   3.420  12.877  0.1039  0.4078 -0.1536
13096TIP3    H160779   4.128   3.407  12.818  1.9514 -2.2372 -2.0253
13096TIP3    H260780   4.169   3.394  12.963 -0.9275 -1.5508 -1.1130
13097TIP3   OH260781   3.887   5.370  17.179  0.1435  0.1176 -0.2347
13097TIP3    H160782   3.817   5.417  17.134  0.1233  0.3198  0.0095
13097TIP3    H260783   3.930   5.319  17.110  0.3389  0.7018 -0.5440
13098TIP3   OH260784   0.175   3.080  11.272  0.5074  0.1201  0.2701
13098TIP3    H160785   0.087   3.043  11.273  0.8562 -0.8861 -2.6078
13098TIP3    H260786   0.163   3.173  11.257 -0.0129 -0.3407 -2.3051
13099TIP3   OH260787   2.372   5.949  14.973 -0.0356  0.1227  0.2054
13099TIP3    H160788   2.467   5.962  14.973  0.2055 -1.4171 -1.7240
13099TIP3    H260789   2.343   5.983  14.889 -1.0101 -0.6837  0.2038
13100TIP3   OH260790   0.508   2.444  12.208  0.0881  0.6816 -0.3255
13100TIP3    H160791   0.564   2.510  12.168  2.7357 -1.3897 -0.2468
13100TIP3    H260792   0.502   2.374  12.142 -0.5639 -0.0894  0.5284
13101TIP3   OH260793   1.948   3.667  16.330 -0.4963 -0.1294  0.0992
13101TIP3    H160794   1.981   3.608  16.398  0.9621  0.1357 -0.3524
13101TIP3    H260795   1.931   3.749  16.377 -1.4112 -0.5449  0.5087
13102TIP3   OH260796   0.715   3.755   6.490  0.2617  0.7979  0.2829
13102TIP3    H160797   0.717   3.838   6.442 -3.0690  0.0538 -1.2500
13102TIP3    H260798   0.626   3.749   6.524  0.5160 -2.0686  0.5462
13103TIP3   OH260799   1.019   6.441   6.260  0.2212  0.1312  0.0509
13103TIP3    H160800   1.007   6.346   6.256  0.1795  0.1251  0.3449
13103TIP3    H260801   0.991   6.472   6.174 -1.3012  0.0533  0.5009
13104TIP3   OH260802   2.593   0.198  14.591 -0.0226  0.4182  0.4812
13104TIP3    H160803   2.665   0.136  14.604 -0.1635 -0.1504 -1.3540
13104TIP3    H260804   2.526   0.168  14.652  1.1855  0.8140  2.0407
13105TIP3   OH260805   1.181   0.037   2.215  0.0648 -0.1426  0.3861
13105TIP3    H160806   1.158   0.055   2.124  1.1598 -0.3800  0.0514
13105TIP3    H260807   1.259   0.089   2.232 -0.0620 -0.1853  1.1599
13106TIP3   OH260808   4.544   3.331  14.477  0.0941 -0.2072  0.2191
13106TIP3    H160809   4.597   3.390  14.531  0.9012 -1.7149  1.1187
13106TIP3    H260810   4.473   3.385  14.445  1.5081  1.5664 -0.0002
13107TIP3   OH260811   5.613   5.340   6.592  0.3793  0.4136 -0.0999
13107TIP3    H160812   5.610   5.272   6.525 -0.3127  0.9791 -0.6551
13107TIP3    H260813   5.609   5.422   6.542  0.3233  0.8439  0.6130
13108TIP3   OH260814   6.612   0.790  14.611 -0.1904  0.7987 -0.0395
13108TIP3    H160815   6.610   0.778  14.516  1.5516 -0.8484  0.0847
13108TIP3    H260816   6.693   0.838  14.628  0.1717 -0.0322  0.6823
13109TIP3   OH260817   0.857   0.144   2.721 -0.3597  0.5262 -0.1110
13109TIP3    H160818   0.874   0.092   2.799  1.0632 -0.6656 -1.2024
13109TIP3    H260819   0.763   0.133   2.704 -0.5988  0.5157  1.2188
13110TIP3   OH260820   6.156   2.701  15.411  0.4461 -0.3679 -0.0773
13110TIP3    H160821   6.219   2.724  15.344 -0.2033  0.3271 -0.4577
13110TIP3    H260822   6.208   2.685  15.490  1.1458 -0.5274 -0.5738
13111TIP3   OH260823   6.684   3.828   3.992 -0.1657  0.5599  0.2969
13111TIP3    H160824   6.639   3.848   4.074 -3.6916 -1.1443 -1.1288
13111TIP3    H260825   6.709   3.736   4.000  0.6470  0.7401 -0.0614
13112TIP3   OH260826   3.307   0.652   0.807 -0.8513 -0.2752  0.0228
13112TIP3    H160827   3.345   0.721   0.862 -1.0433  0.0897 -0.3019
13112TIP3    H260828   3.376   0.587   0.799 -0.3562  0.2982 -0.4034
13113TIP3   OH260829   3.698   3.185   3.710 -0.5380  0.0650  0.6306
13113TIP3    H160830   3.667   3.219   3.794 -0.8778 -0.4032  0.7021
13113TIP3    H260831   3.617   3.160   3.664 -0.2882 -0.7634  0.6401
13114TIP3   OH260832   3.604   6.442   0.618 -0.6173  0.2165  0.3481
13114TIP3    H160833   3.610   6.411   0.708 -1.1893 -1.4647 -0.1813
13114TIP3    H260834   3.511   6.432   0.595 -0.4084  0.3130 -0.5456
13115TIP3   OH260835   1.461   3.504   6.239  0.0413  0.3057  0.2865
13115TIP3    H160836   1.394   3.493   6.306  0.0715  0.3965  0.3313
13115TIP3    H260837   1.531   3.444   6.266  0.5399  1.1752  0.9611
13116TIP3   OH260838   4.614   6.116   3.251  0.3593 -0.4462 -0.6331
13116TIP3    H160839   4.583   6.110   3.342  0.6853  2.3274 -0.2941
13116TIP3    H260840   4.648   6.029   3.232 -0.6288 -1.3672  1.5668
13117TIP3   OH260841   5.433   6.350   5.085  0.2229  0.0072  0.3302
13117TIP3    H160842   5.444   6.327   5.177  1.5230  0.3474  0.2675
13117TIP3    H260843   5.467   6.275   5.036 -1.6959 -0.7457  0.1066
13118TIP3   OH260844   2.716   0.918  15.770 -0.0740  0.3427 -0.4362
13118TIP3    H160845   2.738   0.831  15.803  3.6056  0.4462 -2.3843
13118TIP3    H260846   2.708   0.972  15.849  2.2809 -0.7579  0.6067
13119TIP3   OH260847   2.021   2.985  16.653  0.2048  0.1396 -0.4899
13119TIP3    H160848   2.115   2.989  16.671 -0.0191 -0.4639  0.8860
13119TIP3    H260849   2.000   2.892  16.647 -0.8484  0.1441  2.3647
13120TIP3   OH260850   0.519   6.528   4.802 -0.4868  0.3782  0.2860
13120TIP3    H160851   0.551   6.465   4.738 -0.0831  0.9396 -0.0710
13120TIP3    H260852   0.578   6.519   4.877 -1.2513 -0.6219  0.7904
13121TIP3   OH260853   0.215   0.332  15.332  0.1262  0.2091 -0.3159
13121TIP3    H160854   0.264   0.405  15.371  0.8004 -1.2937  1.7176
13121TIP3    H260855   0.278   0.290  15.273  0.6420 -0.4253  0.6704
13122TIP3   OH260856   2.958   6.728   4.016 -0.0013 -0.4648 -0.1911
13122TIP3    H160857   3.021   6.663   3.983  0.6038 -0.0565  0.1595
13122TIP3    H260858   2.912   6.683   4.087  1.8396  0.1594  1.4311
13123TIP3   OH260859   5.284   2.995   3.260 -0.0487  0.0052 -0.2750
13123TIP3    H160860   5.342   3.067   3.235 -0.1444 -0.0399 -0.6376
13123TIP3    H260861   5.227   3.032   3.327 -0.0933  0.2680 -0.4554
13124TIP3   OH260862   4.140   2.675  12.309  0.0262 -0.4161 -0.5912
13124TIP3    H160863   4.147   2.730  12.231 -1.1295  0.0513 -0.3815
13124TIP3    H260864   4.123   2.736  12.381  0.7126 -0.8740 -0.0340
13125TIP3   OH260865   2.282   5.173   2.304 -0.1668 -0.5304  0.6304
13125TIP3    H160866   2.344   5.192   2.234 -0.1560  1.1391  1.0714
13125TIP3    H260867   2.196   5.174   2.261 -0.2372  1.4127  0.8017
13126TIP3   OH260868   1.546   6.327  17.067 -0.1853  0.0335 -0.1674
13126TIP3    H160869   1.582   6.315  16.979 -1.1487 -2.1109 -0.3176
13126TIP3    H260870   1.487   6.402  17.059 -0.0009  0.0626 -1.2794
13127TIP3   OH260871   5.249   1.214  16.843  0.6863 -0.7625  0.3309
13127TIP3    H160872   5.338   1.235  16.816  0.2294  1.8676  0.7455
13127TIP3    H260873   5.255   1.198  16.937  0.6419  0.0052  0.4674
13128TIP3   OH260874   0.499   6.385  14.274 -0.2773 -0.4670  0.7993
13128TIP3    H160875   0.509   6.432  14.357  2.2417 -0.4042  0.4936
13128TIP3    H260876   0.464   6.450  14.213 -0.3584 -0.0082  1.3312
13129TIP3   OH260877   3.876   0.760  17.239 -0.1146  0.0497  0.6161
13129TIP3    H160878   3.791   0.793  17.209  0.7479  0.6417 -1.2531
13129TIP3    H260879   3.930   0.839  17.248  0.3365 -0.3575  1.5082
13130TIP3   OH260880   5.305   3.689  11.901  0.3902 -0.0639  0.3249
13130TIP3    H160881   5.302   3.785  11.901  2.2189  0.0124 -0.3672
13130TIP3    H260882   5.388   3.668  11.858 -0.3016 -1.9705 -0.1230
13131TIP3   OH260883   2.410   1.594   0.865 -0.2260  0.3176 -0.0246
13131TIP3    H160884   2.384   1.674   0.910  1.3668  0.0704  1.3932
13131TIP3    H260885   2.392   1.611   0.773 -0.3154  2.1486  0.3131
13132TIP3   OH260886   6.219   3.782  15.313 -0.0956 -0.1804  0.0109
13132TIP3    H160887   6.216   3.821  15.225  0.8573  1.1403  0.5392
13132TIP3    H260888   6.313   3.776  15.333 -0.3153 -0.0898  1.0928
13133TIP3   OH260889   2.574   4.132  12.695 -0.2030 -0.1556 -0.2605
13133TIP3    H160890   2.507   4.092  12.639 -0.0493  1.1571 -1.4155
13133TIP3    H260891   2.523   4.176  12.763 -0.5068  0.2009 -0.7036
13134TIP3   OH260892   5.030   1.727   2.308  0.2070 -0.5558  0.1224
13134TIP3    H160893   5.083   1.674   2.249  0.0174 -1.4152  0.7137
13134TIP3    H260894   5.037   1.683   2.393  0.5760  0.7308  0.7733
13135TIP3   OH260895   5.325   5.911   3.181  0.0160  0.0376  0.1049
13135TIP3    H160896   5.275   5.889   3.260  1.1285  0.4122  0.9116
13135TIP3    H260897   5.324   6.006   3.178  1.2100  0.0668  0.4667
13136TIP3   OH260898   4.285   2.368   1.401  0.1353  0.4264  0.3253
13136TIP3    H160899   4.229   2.340   1.473  1.2904  0.1705  1.1367
13136TIP3    H260900   4.229   2.363   1.323 -1.1256  0.7384  1.2046
13137TIP3   OH260901   3.242   1.698   2.087 -0.3495  0.3029 -0.0571
13137TIP3    H160902   3.196   1.636   2.031 -0.3013 -0.9799  1.3140
13137TIP3    H260903   3.248   1.655   2.172  0.1358  1.9736  0.7780
13138TIP3   OH260904   0.824   4.563  10.949  0.8635 -0.0880  0.4655
13138TIP3    H160905   0.826   4.468  10.958 -2.1171 -0.3089 -0.7616
13138TIP3    H260906   0.852   4.579  10.859 -1.5150 -0.0517 -0.3121
13139TIP3   OH260907   2.509   3.479   1.937 -0.5670 -0.1517  0.1866
13139TIP3    H160908   2.493   3.384   1.935 -1.0597 -0.0732  0.5753
13139TIP3    H260909   2.491   3.505   2.027  0.5347  0.1454  0.3246
13140TIP3   OH260910   0.763   3.360   0.979  0.3045 -0.0849  0.0340
13140TIP3    H160911   0.693   3.296   0.969 -0.2762  0.5885 -0.2700
13140TIP3    H260912   0.798   3.343   1.067  1.5395 -2.1588 -0.8253
13141TIP3   OH260913   5.136   5.439   1.355  0.0849 -0.1297 -0.0358
13141TIP3    H160914   5.187   5.490   1.418  0.8333  1.1173 -1.6261
13141TIP3    H260915   5.078   5.503   1.314  0.6132 -0.6507 -1.6355
13142TIP3   OH260916   5.526   2.949  11.163  0.1988 -0.4985  0.2846
13142TIP3    H160917   5.617   2.941  11.135  1.2451 -0.0452  3.3803
13142TIP3    H260918   5.524   2.906  11.249 -2.5641 -0.6994  0.1549
13143TIP3   OH260919   4.950   3.129  16.112  0.2825 -0.8154  0.2609
13143TIP3    H160920   5.023   3.070  16.093 -1.3999 -2.7085 -0.5231
13143TIP3    H260921   4.986   3.216  16.098  2.6332 -1.6705  0.7409
13144TIP3   OH260922   2.349   5.070   2.537 -0.0289  0.8310  0.0477
13144TIP3    H160923   2.417   5.124   2.576 -0.9773  2.4466 -0.4582
13144TIP3    H260924   2.330   5.113   2.453  0.6118 -1.4496 -1.3160
13145TIP3   OH260925   4.311   4.924   2.403 -0.0176 -0.0905  0.0859
13145TIP3    H160926   4.353   4.989   2.459 -2.4235 -0.2579  2.1540
13145TIP3    H260927   4.352   4.841   2.428  0.4208  0.1177  0.0686
13146TIP3   OH260928   0.543   5.959   4.054  0.2697  0.2435 -0.1469
13146TIP3    H160929   0.495   6.000   4.126 -0.0481  0.8322 -0.6912
13146TIP3    H260930   0.548   5.866   4.078  0.7923  0.5483  0.9837
13147TIP3   OH260931   1.738   2.723   3.821  0.1463  0.5410 -0.3417
13147TIP3    H160932   1.672   2.729   3.890  0.3935  0.5467 -0.1038
13147TIP3    H260933   1.771   2.633   3.827  0.4726  0.6701 -0.1693
13148TIP3   OH260934   1.646   3.592  13.030  0.3486  0.1872 -0.6774
13148TIP3    H160935   1.676   3.512  13.073 -2.5798  0.1852  1.4589
13148TIP3    H260936   1.588   3.562  12.960 -0.7092  0.4380  0.0909
13149TIP3   OH260937   4.302   6.443  13.283  0.2761 -0.1208 -0.2936
13149TIP3    H160938   4.251   6.524  13.272  0.0395 -0.2162  0.0875
13149TIP3    H260939   4.300   6.401  13.197 -2.5085 -1.4312  0.3531
13150TIP3   OH260940   5.506   2.044   1.995 -0.1422 -0.5323  0.3934
13150TIP3    H160941   5.457   2.022   1.916  0.2636 -0.6489  0.1732
13150TIP3    H260942   5.597   2.048   1.966  0.0556 -1.0231  0.9484
13151TIP3   OH260943   1.541   0.432   2.553 -0.2825 -0.4666  0.1985
13151TIP3    H160944   1.475   0.469   2.495  0.0619 -0.4081 -0.1542
13151TIP3    H260945   1.545   0.492   2.627  1.1945  0.9053 -0.9615
13152TIP3   OH260946   0.950   3.321  16.460 -0.5574 -0.4206  0.0709
13152TIP3    H160947   1.042   3.306  16.441 -0.9467 -3.0457  0.0790
13152TIP3    H260948   0.947   3.338  16.554  0.0010  0.3958 -0.0611
13153TIP3   OH260949   3.400   0.808  15.325 -0.4496  0.3630  0.4824
13153TIP3    H160950   3.365   0.869  15.260 -0.1084 -0.0685 -0.1087
13153TIP3    H260951   3.358   0.834  15.407 -1.2649  0.5933  0.0024
13154TIP3   OH260952   3.972   0.512  17.129  0.8081  0.0002 -0.0423
13154TIP3    H160953   3.903   0.458  17.090  1.0173 -1.1555  1.1646
13154TIP3    H260954   3.926   0.586  17.168  0.4745  0.4532 -1.2833
13155TIP3   OH260955   3.405   2.113  13.488 -0.3747  0.1881 -0.3975
13155TIP3    H160956   3.359   2.053  13.429  1.8699 -0.5418 -1.4526
13155TIP3    H260957   3.460   2.165  13.430 -0.6058  1.7276  0.7490
13156TIP3   OH260958   3.447   4.263   5.368 -0.0215  0.0784 -0.1034
13156TIP3    H160959   3.467   4.278   5.275  1.9350  1.3030  0.4804
13156TIP3    H260960   3.461   4.348   5.410 -1.7356 -0.2554  1.2010
13157TIP3   OH260961   5.132   6.614  16.868  0.3716  0.0112  0.9131
13157TIP3    H160962   5.103   6.695  16.825 -0.2478 -0.2554  0.8204
13157TIP3    H260963   5.170   6.562  16.798  1.4865  0.5450  1.1110
13158TIP3   OH260964   4.903   1.790   5.323  0.0153 -0.1728 -0.6516
13158TIP3    H160965   4.872   1.877   5.348 -2.4361 -1.7672  2.1640
13158TIP3    H260966   4.866   1.774   5.237 -0.9337  0.9145 -0.4473
13159TIP3   OH260967   2.937   1.740  16.746 -0.1718 -0.0072  0.9845
13159TIP3    H160968   2.924   1.754  16.652  1.2768  2.8277  1.1528
13159TIP3    H260969   2.849   1.746  16.784 -0.5242  0.8246  0.0419
13160TIP3   OH260970   1.627   4.645  16.862 -0.5096 -0.3173 -0.8677
13160TIP3    H160971   1.543   4.688  16.846 -0.8915 -0.7633 -0.1036
13160TIP3    H260972   1.682   4.713  16.901 -0.7215 -0.1942 -0.7795
13161TIP3   OH260973   1.359   0.167   4.949  0.1017 -0.4294  0.5852
13161TIP3    H160974   1.336   0.186   4.858  2.1087  0.5603  0.2541
13161TIP3    H260975   1.282   0.195   5.000 -0.2823  0.7832 -0.6449
13162TIP3   OH260976   3.601   6.708   2.233 -0.3627  0.4192 -0.3371
13162TIP3    H160977   3.605   6.746   2.145 -1.0804  0.6199 -0.2841
13162TIP3    H260978   3.511   6.676   2.241 -0.6481  1.4473  0.7598
13163TIP3   OH260979   4.838   0.756   0.313  0.3888  0.4704 -0.1053
13163TIP3    H160980   4.842   0.850   0.331 -1.6091  1.0489 -2.3836
13163TIP3    H260981   4.799   0.718   0.391  3.7480  1.1099  1.9915
13164TIP3   OH260982   4.964   6.326   4.633  0.1602  0.0794 -0.7628
13164TIP3    H160983   5.040   6.366   4.676 -0.2749 -1.6967  1.8099
13164TIP3    H260984   4.890   6.353   4.687 -0.6597 -0.6803 -1.5006
13165TIP3   OH260985   4.178   4.102  13.425 -0.2433  0.5911  0.0882
13165TIP3    H160986   4.135   4.033  13.476  0.0634  1.0802  1.0081
13165TIP3    H260987   4.161   4.078  13.334 -0.5616 -0.4355  0.4095
13166TIP3   OH260988   6.263   5.381   5.378 -0.0716 -0.8156  0.1039
13166TIP3    H160989   6.300   5.303   5.419 -1.8600 -1.0089  1.4067
13166TIP3    H260990   6.322   5.452   5.405  0.9439 -1.5319 -0.1925
13167TIP3   OH260991   1.607   5.317  15.824 -0.0810  0.2434  0.5359
13167TIP3    H160992   1.596   5.278  15.911  0.8280 -2.1809 -0.3617
13167TIP3    H260993   1.519   5.343  15.798 -0.5565 -0.1700  1.6763
13168TIP3   OH260994   5.526   0.159   4.156 -0.6602 -0.1674  0.1583
13168TIP3    H160995   5.536   0.084   4.215 -2.4007  0.3218  1.0977
13168TIP3    H260996   5.566   0.232   4.203  0.0558 -0.2622 -0.2915
13169TIP3   OH260997   2.735   4.602  14.656 -0.4259 -0.3150 -0.6083
13169TIP3    H160998   2.651   4.558  14.642 -0.3518 -0.8785  0.6805
13169TIP3    H260999   2.795   4.532  14.681  0.1520  0.2579 -0.3819
13170TIP3   OH261000   3.674   4.305  15.691  0.1402  0.0351  0.5026
13170TIP3    H161001   3.611   4.246  15.732 -0.2467 -0.6188 -0.9887
13170TIP3    H261002   3.670   4.283  15.598 -0.4108  2.7809 -0.1713
13171TIP3   OH261003   5.776   0.528  16.934 -1.0108  0.5086  0.0617
13171TIP3    H161004   5.761   0.618  16.964 -0.4940  0.3984  0.6533
13171TIP3    H261005   5.783   0.535  16.839 -1.7236  0.9910  0.0335
13172TIP3   OH261006   4.005   5.583   3.717 -0.1280  0.2570 -0.0097
13172TIP3    H161007   4.004   5.505   3.772  0.3555  0.7944  0.7758
13172TIP3    H261008   4.079   5.569   3.657 -0.0575  0.1047  0.1127
13173TIP3   OH261009   3.999   5.738  16.325  0.2193 -0.0803 -0.4395
13173TIP3    H161010   3.964   5.762  16.411  2.5117  1.4652  0.1097
13173TIP3    H261011   3.958   5.800  16.264 -1.5342 -1.2828 -0.5447
13174TIP3   OH261012   1.539   4.355  14.228 -0.1787  1.0317 -0.5242
13174TIP3    H161013   1.597   4.375  14.302 -0.6392 -0.3915  0.2385
13174TIP3    H261014   1.472   4.423  14.232 -1.6127 -0.4537  1.9252
13175TIP3   OH261015   1.815   1.668   5.378 -0.3560  0.5792 -0.0950
13175TIP3    H161016   1.790   1.598   5.437  1.2378 -0.5172 -0.6917
13175TIP3    H261017   1.817   1.627   5.291 -1.0059  1.7554 -0.6823
13176TIP3   OH261018   1.919   2.592  11.771 -0.1824 -0.0359  0.4612
13176TIP3    H161019   1.848   2.629  11.718 -0.1430 -1.4098 -0.5823
13176TIP3    H261020   1.874   2.533  11.832 -0.1267  0.7412  1.2618
13177TIP3   OH261021   6.522   5.470   4.682 -0.0165  0.0792  0.1020
13177TIP3    H161022   6.434   5.437   4.664 -0.2263  0.3835  0.5480
13177TIP3    H261023   6.521   5.490   4.776  0.3948  0.4781  0.0253
13178TIP3   OH261024   0.956   2.101   1.602  0.5844  0.4450 -0.4511
13178TIP3    H161025   0.875   2.077   1.556 -0.5154 -1.5459  2.3622
13178TIP3    H261026   0.925   2.151   1.678  1.8882 -1.3878  1.3138
13179TIP3   OH261027   1.680   2.190   4.955 -0.3883  0.3133 -0.5668
13179TIP3    H161028   1.627   2.171   5.032  0.5441  1.4019  0.3468
13179TIP3    H261029   1.665   2.283   4.937  0.8579  0.5260 -0.5569
13180TIP3   OH261030   0.672   1.876   7.053 -0.5392  0.3465  0.2733
13180TIP3    H161031   0.646   1.787   7.030 -1.4749  0.9121 -0.9133
13180TIP3    H261032   0.734   1.902   6.985 -0.9950  0.9342  0.0762
13181TIP3   OH261033   4.214   4.382   4.987 -0.2270 -0.3106  0.3770
13181TIP3    H161034   4.213   4.293   4.953  1.8396 -0.1178 -0.2761
13181TIP3    H261035   4.157   4.379   5.064  0.1491 -2.2943  0.6028
13182TIP3   OH261036   0.901   5.525  15.111  0.1171  0.1220  0.3964
13182TIP3    H161037   0.840   5.512  15.038 -0.7710 -0.7163  1.2644
13182TIP3    H261038   0.889   5.617  15.135  0.1258  0.2988 -0.2493
13183TIP3   OH261039   3.695   1.534   5.021 -0.1165  0.4274 -0.0715
13183TIP3    H161040   3.734   1.612   5.059  0.3604  0.0953  0.1212
13183TIP3    H261041   3.766   1.493   4.971 -0.2991 -0.0077  0.0229
13184TIP3   OH261042   5.825   5.837  17.135 -0.3212  0.5602 -0.5234
13184TIP3    H161043   5.864   5.777  17.198 -1.7546 -0.0802 -0.2348
13184TIP3    H261044   5.896   5.899  17.114  0.1922  0.7673  1.6881
13185TIP3   OH261045   2.879   2.739   6.738 -0.5625 -0.3815  0.2173
13185TIP3    H161046   2.889   2.831   6.765  1.3165 -0.1874 -1.0677
13185TIP3    H261047   2.934   2.690   6.798 -2.6303 -0.8535  1.7782
13186TIP3   OH261048   0.637   4.590   3.921  0.2345  0.2459 -0.3765
13186TIP3    H161049   0.582   4.611   3.996  0.2575 -0.7142 -0.0868
13186TIP3    H261050   0.651   4.674   3.877  0.3166  0.8193  0.7467
13187TIP3   OH261051   1.405   4.161   5.655  0.0142 -0.3471 -0.0111
13187TIP3    H161052   1.371   4.107   5.726  1.3218 -0.2473  0.7075
13187TIP3    H261053   1.496   4.132   5.644 -0.0652 -0.1186 -1.4100
13188TIP3   OH261054   4.585   1.062   5.126  0.3080  0.0121  0.5382
13188TIP3    H161055   4.673   1.099   5.123 -0.3456  1.6519  1.2395
13188TIP3    H261056   4.536   1.119   5.185 -1.4632 -0.3924 -0.4826
13189TIP3   OH261057   6.578   5.965  13.377 -0.1945 -0.0328  0.0876
13189TIP3    H161058   6.549   6.039  13.431 -1.7017 -1.3988  1.1922
13189TIP3    H261059   6.514   5.962  13.305 -0.9555 -1.1043  0.8002
13190TIP3   OH261060   6.035   2.424   1.728  0.2305 -0.6624 -0.2760
13190TIP3    H161061   6.051   2.364   1.656 -1.6608 -0.9542 -0.4953
13190TIP3    H261062   5.993   2.370   1.795 -0.1165  0.0940  0.1194
13191TIP3   OH261063   0.116   0.136  12.892  0.2188  0.2148 -0.1909
13191TIP3    H161064   0.172   0.198  12.938  0.6586 -1.3729  1.4189
13191TIP3    H261065   0.108   0.061  12.950 -0.9561 -0.9454 -1.7811
13192TIP3   OH261066   3.676   3.442   3.068 -0.0858 -0.3928  0.0276
13192TIP3    H161067   3.595   3.473   3.027 -0.1136 -0.9892 -0.3744
13192TIP3    H261068   3.698   3.362   3.020  0.1039 -0.8758  0.9103
13193TIP3   OH261069   0.212   0.223  12.298 -0.1487  0.1226 -0.3234
13193TIP3    H161070   0.192   0.236  12.390 -2.0034  0.6058 -0.7835
13193TIP3    H261071   0.234   0.311  12.265 -0.5671  0.1291 -0.5901
13194TIP3   OH261072   1.700   5.642   3.111  0.1673 -0.0254 -0.1379
13194TIP3    H161073   1.725   5.555   3.141  1.3860  0.3179 -0.1087
13194TIP3    H261074   1.680   5.690   3.192 -0.6874 -0.3344 -0.1678
13195TIP3   OH261075   5.296   2.641  17.231  0.2321  0.5028  0.3557
13195TIP3    H161076   5.274   2.727  17.266  1.0907  0.8744 -0.0063
13195TIP3    H261077   5.278   2.580  17.302  1.1709  1.1610  1.1675
13196TIP3   OH261078   5.499   0.582  17.241 -0.3075  0.6955 -0.1061
13196TIP3    H161079   5.511   0.663  17.190 -1.9485  1.1745  0.2702
13196TIP3    H261080   5.459   0.521  17.179  0.2638  0.3826 -0.1764
13197TIP3   OH261081   6.435   2.260   2.624 -0.4517  0.3692  0.7231
13197TIP3    H161082   6.378   2.191   2.657 -1.2618  0.8995  0.4342
13197TIP3    H261083   6.504   2.267   2.690  1.0188 -2.3985 -0.4112
13198TIP3   OH261084   1.874   4.810   2.701 -0.1526 -0.3445  0.3117
13198TIP3    H161085   1.896   4.786   2.791 -0.1528 -1.5160  0.0073
13198TIP3    H261086   1.811   4.744   2.673 -1.2914  0.8677 -0.0600
13199TIP3   OH261087   1.565   6.577  16.250 -0.1931 -0.1797  0.1964
13199TIP3    H161088   1.598   6.625  16.326 -2.0783 -0.0400  0.9552
13199TIP3    H261089   1.550   6.645  16.184 -0.3937 -0.0478  0.3748
13200TIP3   OH261090   3.285   1.717   0.442  0.2554  0.0848 -0.3370
13200TIP3    H161091   3.201   1.748   0.406  0.5110  0.1064 -0.9142
13200TIP3    H261092   3.302   1.635   0.397  0.7834  0.3202 -0.5667
13201TIP3   OH261093   5.725   0.253   4.368  0.1504 -0.0281 -0.2304
13201TIP3    H161094   5.676   0.330   4.398 -0.0857 -0.1735 -0.2462
13201TIP3    H261095   5.757   0.212   4.448 -0.6906 -0.5576 -0.1646
13202TIP3   OH261096   2.711   1.759   3.188 -0.1493  0.4413  0.0926
13202TIP3    H161097   2.691   1.703   3.263 -0.8935  1.3496  0.5813
13202TIP3    H261098   2.803   1.783   3.199 -0.1332  0.2019  0.4631
13203TIP3   OH261099   3.836   4.726  14.437 -0.1984 -0.1468 -0.4525
13203TIP3    H161100   3.784   4.746  14.515 -2.3716 -2.3490 -1.2834
13203TIP3    H261101   3.780   4.749  14.364  0.6703 -0.9282 -1.3798
13204TIP3   OH261102   6.774   0.944   2.838 -0.4615  0.6196  0.4793
13204TIP3    H161103   6.854   0.981   2.801 -0.5315  0.3698  0.0838
13204TIP3    H261104   6.712   0.942   2.766 -0.7639  0.6190  0.7363
13205TIP3   OH261105   1.569   5.889   2.178 -0.1925 -0.0165  0.2058
13205TIP3    H161106   1.564   5.943   2.099 -0.2791 -1.8746 -1.0789
13205TIP3    H261107   1.649   5.917   2.222 -0.2951  1.2193 -0.3865
13206TIP3   OH261108   4.846   4.411  10.854  0.8456  0.1171 -0.1530
13206TIP3    H161109   4.803   4.404  10.769 -0.3672 -0.6810  0.5080
13206TIP3    H261110   4.856   4.320  10.884 -2.0727  0.4571  2.1689
13207TIP3   OH261111   2.036   1.338   2.778 -0.6579  0.1791 -0.5633
13207TIP3    H161112   2.034   1.287   2.697 -2.2452 -0.1101 -0.3697
13207TIP3    H261113   2.109   1.302   2.828 -0.6425 -0.6968 -1.2148
13208TIP3   OH261114   0.707   5.384  16.535  0.2615 -0.4591 -0.0915
13208TIP3    H161115   0.700   5.460  16.478 -0.7476 -0.4506  0.0300
13208TIP3    H261116   0.709   5.420  16.623  0.3557 -0.5429 -0.0579
13209TIP3   OH261117   2.602   1.704   4.524  0.5457 -0.0295  0.5585
13209TIP3    H161118   2.587   1.620   4.568 -1.3546  1.3218  2.6380
13209TIP3    H261119   2.593   1.769   4.594 -0.1574  2.0317 -1.3990
13210TIP3   OH261120   3.916   2.795   4.273 -0.6614  0.3583  0.0664
13210TIP3    H161121   4.007   2.772   4.253 -0.0021 -0.5396  3.7512
13210TIP3    H261122   3.923   2.860   4.342 -2.8377  1.1648 -0.4558
13211TIP3   OH261123   4.550   2.396   1.394  0.0255  0.2105 -0.2552
13211TIP3    H161124   4.562   2.488   1.418  0.9058 -0.2743  1.2173
13211TIP3    H261125   4.456   2.386   1.382 -0.1634  1.0978  0.4643
13212TIP3   OH261126   4.260   2.821  14.623  0.6139  0.0340 -0.0710
13212TIP3    H161127   4.301   2.903  14.650 -0.1670  0.3529  0.1458
13212TIP3    H261128   4.305   2.798  14.541  2.2671 -0.4109  0.9346
13213TIP3   OH261129   5.597   5.718   0.976 -0.3843 -0.2464  0.4930
13213TIP3    H161130   5.502   5.719   0.983 -0.3807 -1.5949  0.7508
13213TIP3    H261131   5.626   5.785   1.038 -1.1820  0.6093 -0.0468
13214TIP3   OH261132   6.660   0.769   1.569  0.1436 -0.0035 -0.1450
13214TIP3    H161133   6.571   0.768   1.603 -0.0036  2.1754 -0.3718
13214TIP3    H261134   6.662   0.700   1.503 -1.4955  0.1758 -0.3932
13215TIP3   OH261135   0.400   6.542  12.854 -0.2099 -0.3194 -0.2740
13215TIP3    H161136   0.432   6.631  12.837  0.1836 -0.2790  0.6259
13215TIP3    H261137   0.426   6.525  12.945 -1.2363 -0.9493 -0.0988
13216TIP3   OH261138   6.683   2.692   4.406 -0.3789  0.5996  0.0399
13216TIP3    H161139   6.646   2.753   4.470 -3.5951 -0.5116 -0.6878
13216TIP3    H261140   6.706   2.614   4.457 -1.3691  0.3484  0.0951
13217TIP3   OH261141   1.409   2.373   2.450 -0.3505 -0.1757 -0.3358
13217TIP3    H161142   1.405   2.342   2.541 -0.4044  0.3377 -0.1590
13217TIP3    H261143   1.349   2.448   2.449  1.0686  0.9717 -0.3417
13218TIP3   OH261144   4.321   0.564   5.634  0.4778  0.4452 -0.3158
13218TIP3    H161145   4.322   0.493   5.698  1.7059 -0.0372 -0.8578
13218TIP3    H261146   4.341   0.643   5.685 -0.4345  0.3337  0.2110
13219TIP3   OH261147   3.335   0.656  13.572  0.1902  0.9574  0.1018
13219TIP3    H161148   3.249   0.644  13.531  0.7199  0.3822 -0.8534
13219TIP3    H261149   3.370   0.568  13.581  1.6038  1.3463 -1.5121
13220TIP3   OH261150   5.214   4.297   2.718 -0.6230  0.3330 -0.4147
13220TIP3    H161151   5.273   4.302   2.794 -0.4869  2.3850 -0.6183
13220TIP3    H261152   5.126   4.309   2.755 -0.4797  2.3668 -0.6494
13221TIP3   OH261153   3.442   1.016  12.976  0.5534  0.8579  0.8620
13221TIP3    H161154   3.479   0.940  13.022 -0.5138  0.8513  1.7139
13221TIP3    H261155   3.378   0.979  12.916  2.7048  0.7625 -1.4812
13222TIP3   OH261156   4.761   2.177  15.707 -0.3401 -0.1132  0.6276
13222TIP3    H161157   4.685   2.235  15.704 -0.4620 -0.2348  1.2036
13222TIP3    H261158   4.729   2.099  15.752 -0.0347 -0.4139  0.3264
13223TIP3   OH261159   0.056   3.113   5.858  0.1030  0.6858  0.0337
13223TIP3    H161160   0.005   3.164   5.920 -0.7710  0.6012 -0.6091
13223TIP3    H261161   0.135   3.090   5.906  0.0537  1.7771  0.6641
13224TIP3   OH261162   5.248   1.729  14.837 -0.1382 -0.4651  0.5548
13224TIP3    H161163   5.227   1.636  14.842  0.2770 -0.4835  2.0630
13224TIP3    H261164   5.173   1.768  14.793 -0.1488 -1.5607 -0.4260
13225TIP3   OH261165   0.699   6.782  15.882  0.5328 -0.0206  0.2411
13225TIP3    H161166   0.609   6.755  15.898  0.6268 -0.0426  0.7787
13225TIP3    H261167   0.752   6.714  15.923  0.8093 -0.5136 -0.9214
13226TIP3   OH261168   3.617   1.835  11.725 -0.6682  0.5179 -0.1079
13226TIP3    H161169   3.561   1.767  11.760 -1.1853  0.0501 -1.8279
13226TIP3    H261170   3.614   1.824  11.630 -1.5031  3.4839 -0.4996
13227TIP3   OH261171   3.300   2.084   4.292  0.7901 -0.2597 -0.0470
13227TIP3    H161172   3.224   2.123   4.338  0.8379  0.0726 -0.2462
13227TIP3    H261173   3.289   2.111   4.201  0.5889 -1.0941 -0.2701
13228TIP3   OH261174   1.136   1.815  14.522 -0.2174  0.8160  0.3052
13228TIP3    H161175   1.212   1.758  14.529 -0.9517 -0.1253  0.6216
13228TIP3    H261176   1.090   1.805  14.606 -0.1267  2.1907  0.5349
13229TIP3   OH261177   2.515   4.929   2.866  0.3878  0.5765  0.4544
13229TIP3    H161178   2.593   4.970   2.829 -0.3855  1.6638 -0.0372
13229TIP3    H261179   2.498   4.978   2.947 -0.1437  0.7820  0.2257
13230TIP3   OH261180   5.564   2.944  11.519  0.0003  0.0971 -0.0948
13230TIP3    H161181   5.481   2.959  11.565 -0.2483  0.8499 -0.7775
13230TIP3    H261182   5.599   3.032  11.504 -0.0549 -0.1315 -1.5954
13231TIP3   OH261183   3.032   2.049  17.042  0.0769 -0.0852 -0.1511
13231TIP3    H161184   3.121   2.058  17.077  0.2926 -2.1935 -0.1275
13231TIP3    H261185   3.034   2.099  16.960  0.8608  1.0854  0.5664
13232TIP3   OH261186   1.871   2.558   1.300  0.7753 -0.1094 -0.2493
13232TIP3    H161187   1.889   2.502   1.375  0.3407  0.8943  0.6048
13232TIP3    H261188   1.957   2.585   1.268  0.9432 -0.2359  0.0992
13233TIP3   OH261189   4.462   2.899   2.085 -0.5767 -0.3482  0.8760
13233TIP3    H161190   4.386   2.949   2.054 -0.5075  0.4347  1.9527
13233TIP3    H261191   4.444   2.883   2.178  1.6875  1.9391  1.7574
13234TIP3   OH261192   2.445   6.215  16.493 -0.6264 -0.0861 -0.4229
13234TIP3    H161193   2.520   6.223  16.434 -1.1173 -0.2296 -1.0739
13234TIP3    H261194   2.373   6.254  16.445 -1.2682 -1.1773 -0.3505
13235TIP3   OH261195   3.528   6.199  16.813 -0.2407  0.2913  0.0747
13235TIP3    H161196   3.533   6.250  16.732  1.6286 -0.6143 -0.3917
13235TIP3    H261197   3.542   6.263  16.882  1.4234  0.5345 -0.4770
13236TIP3   OH261198   5.694   4.602   5.490  0.4013  0.6239 -0.3392
13236TIP3    H161199   5.657   4.661   5.555 -0.5787  0.1512 -0.4606
13236TIP3    H261200   5.707   4.520   5.537 -0.8855  0.0996 -0.9002
13237TIP3   OH261201   4.737   6.443  15.920  0.0846 -0.4729 -0.3280
13237TIP3    H161202   4.809   6.380  15.920 -0.4334 -1.0899  1.1690
13237TIP3    H261203   4.774   6.523  15.882  0.7463 -1.6585 -2.2238
13238TIP3   OH261204   4.532   3.096   3.904  0.1493 -0.6041 -0.1919
13238TIP3    H161205   4.586   3.169   3.874 -0.1233  0.7598  2.4945
13238TIP3    H261206   4.595   3.033   3.939  0.1175  0.4342  1.7877
13239TIP3   OH261207   6.460   4.611   5.401  0.0821  0.3164  0.0122
13239TIP3    H161208   6.552   4.614   5.378 -0.0261  0.3915 -0.4145
13239TIP3    H261209   6.447   4.524   5.439  0.8242  1.1446  2.1950
13240TIP3   OH261210   2.287   1.914  11.597 -0.6752  0.7606  0.6608
13240TIP3    H161211   2.378   1.906  11.623 -0.9871 -1.5831  1.0735
13240TIP3    H261212   2.275   1.849  11.528 -1.8001  1.7146 -0.0718
13241TIP3   OH261213   3.002   2.169   2.130 -0.0632 -1.1187 -0.4471
13241TIP3    H161214   3.007   2.234   2.060 -0.8282 -0.8983 -0.3006
13241TIP3    H261215   2.938   2.205   2.191 -0.9369 -2.2912 -0.6542
13242TIP3   OH261216   1.691   5.410   3.584  0.5154 -0.1279 -0.5240
13242TIP3    H161217   1.704   5.333   3.527 -3.6371  0.4282 -2.3755
13242TIP3    H261218   1.647   5.375   3.662  1.4358 -0.0667  0.0335
13243TIP3   OH261219   1.547   0.535  16.106 -0.4925  0.4218  0.8813
13243TIP3    H161220   1.482   0.583  16.054 -2.3527 -1.9791  0.8854
13243TIP3    H261221   1.621   0.523  16.047 -0.8615  1.4484  0.1969
13244TIP3   OH261222   6.018   2.311   2.497  0.4887 -0.4019  0.1709
13244TIP3    H161223   6.041   2.375   2.565  0.1368 -0.1583  0.0609
13244TIP3    H261224   6.100   2.266   2.478  1.0449  0.9468 -0.7224
13245TIP3   OH261225   6.694   6.722  12.050  0.4199  0.5650  0.2151
13245TIP3    H161226   6.599   6.718  12.049  0.4683 -0.4273 -1.4196
13245TIP3    H261227   6.714   6.812  12.077 -0.9561  0.6386  1.0183
13246TIP3   OH261228   0.391   4.299  11.849  0.2905 -0.3099  0.4911
13246TIP3    H161229   0.355   4.312  11.761 -0.0644 -0.3039  0.6348
13246TIP3    H261230   0.399   4.205  11.859 -0.6326 -0.3564  0.8313
13247TIP3   OH261231   1.172   0.453   5.709 -0.0522 -0.7037  0.2781
13247TIP3    H161232   1.248   0.397   5.691 -0.4590 -1.8569  1.9793
13247TIP3    H261233   1.152   0.436   5.801 -1.9067  0.1764  0.0500
13248TIP3   OH261234   1.186   6.514  11.031 -0.0660  0.2825 -0.0791
13248TIP3    H161235   1.212   6.435  11.077 -1.4590 -0.6600 -0.8698
13248TIP3    H261236   1.210   6.497  10.940  0.6250  1.2261 -0.0817
13249TIP3   OH261237   0.159   0.450  16.316 -0.3525 -0.2517 -0.1003
13249TIP3    H161238   0.220   0.398  16.265  1.2696  0.9824  0.5651
13249TIP3    H261239   0.119   0.510  16.253  0.0055 -0.2373 -0.3129
13250TIP3   OH261240   1.218   6.790   4.212  0.1842  0.3260 -0.0384
13250TIP3    H161241   1.213   6.839   4.131 -0.7385 -0.5232 -0.5130
13250TIP3    H261242   1.154   6.833   4.270  1.4021  1.4124  0.5104
13251TIP3   OH261243   0.573   0.003  14.559  0.3320  0.4054  0.2101
13251TIP3    H161244   0.612   0.090  14.575 -0.3731  0.8465 -0.4233
13251TIP3    H261245   0.569  -0.038  14.645  2.1049  0.3887  0.3120
13252TIP3   OH261246   3.016   6.510   0.631  0.5734  0.8560 -0.4429
13252TIP3    H161247   3.096   6.561   0.616  0.4341  1.6536  1.3335
13252TIP3    H261248   2.995   6.473   0.545  2.5552  1.0499 -1.0515
13253TIP3   OH261249   2.179   1.526  16.257 -0.0376 -0.9769 -0.0797
13253TIP3    H161250   2.105   1.581  16.232  0.6686  0.9941  1.9576
13253TIP3    H261251   2.164   1.442  16.212 -2.9270 -0.2672 -0.5103
13254TIP3   OH261252   0.643   6.683   6.017  0.2196  0.0254 -0.0708
13254TIP3    H161253   0.672   6.601   6.058 -0.3860 -0.1268  0.0522
13254TIP3    H261254   0.686   6.751   6.068 -2.0583 -0.0880  2.0442
13255TIP3   OH261255   1.049   0.654  10.886 -0.6391 -0.0526 -0.4441
13255TIP3    H161256   0.959   0.672  10.860  0.2387  0.8540 -3.0710
13255TIP3    H261257   1.089   0.741  10.892 -0.0021 -0.4355  0.9816
13256TIP3   OH261258   4.967   0.345   5.471 -0.1054 -0.0599  0.3695
13256TIP3    H161259   4.975   0.269   5.413  0.9085 -0.3280  0.8344
13256TIP3    H261260   4.961   0.420   5.413  2.6680 -0.1460 -0.1143
13257TIP3   OH261261   4.929   0.435  14.008  0.0787  0.5120  0.4349
13257TIP3    H161262   4.922   0.530  13.997 -1.9921  0.2243 -1.2069
13257TIP3    H261263   5.004   0.409  13.954 -1.0210  0.9143 -1.3208
13258TIP3   OH261264   2.415   0.261  11.469  0.9611  0.0194 -0.2410
13258TIP3    H161265   2.437   0.262  11.562 -0.7708 -0.5820  0.2129
13258TIP3    H261266   2.384   0.350  11.451 -1.6788 -0.6684  0.5759
13259TIP3   OH261267   5.779   5.505   2.972 -0.4350  0.2857  0.2431
13259TIP3    H161268   5.736   5.551   3.043 -2.1078 -0.9823  0.1047
13259TIP3    H261269   5.825   5.432   3.015  0.1390  0.6237  0.2092
13260TIP3   OH261270   2.676   0.000   2.690 -0.3244  0.4995  0.1372
13260TIP3    H161271   2.690   0.092   2.711  1.2303  0.3736 -0.3204
13260TIP3    H261272   2.761  -0.041   2.703 -1.0714 -0.9331  0.6193
13261TIP3   OH261273   5.621   5.872   1.197  0.5879 -0.0971 -0.4731
13261TIP3    H161274   5.596   5.965   1.187 -1.1645 -0.3940  0.8931
13261TIP3    H261275   5.691   5.873   1.261 -1.0742  0.0953  1.3856
13262TIP3   OH261276   6.436   1.017  16.980 -0.4518  0.6636  0.1280
13262TIP3    H161277   6.508   0.956  16.972 -0.8552  0.3127 -0.8855
13262TIP3    H261278   6.476   1.103  16.968  0.2874  0.6948  2.6035
13263TIP3   OH261279   0.129   2.647  15.311  0.0793  1.1077  0.0347
13263TIP3    H161280   0.086   2.722  15.272 -1.7603  0.1078  0.0943
13263TIP3    H261281   0.063   2.606  15.366  0.9562 -0.6906 -0.1769
13264TIP3   OH261282   4.422   5.174  12.082 -0.5263 -0.5070 -0.0756
13264TIP3    H161283   4.411   5.202  11.991 -0.2388 -1.2251 -0.3298
13264TIP3    H261284   4.340   5.200  12.125 -1.0212 -0.9626 -0.7363
13265TIP3   OH261285   3.748   2.460  12.776  0.2178  0.2921 -0.3531
13265TIP3    H161286   3.815   2.423  12.718 -0.4678 -1.1946 -0.2152
13265TIP3    H261287   3.723   2.387  12.833  2.1193  2.1145  3.0337
13266TIP3   OH261288   4.905   1.736   3.199  0.5735  0.2873  0.0224
13266TIP3    H161289   4.820   1.694   3.188  1.0497 -1.0370  1.2317
13266TIP3    H261290   4.907   1.804   3.131 -0.1658 -1.7285 -2.0866
13267TIP3   OH261291   5.186   4.694  12.787 -0.1597 -0.4892  0.1577
13267TIP3    H161292   5.232   4.680  12.704  0.2929  2.0120 -0.0540
13267TIP3    H261293   5.160   4.606  12.815  1.2304 -1.5475 -1.7374
13268TIP3   OH261294   6.628   2.154   1.701  0.0358  0.4941 -0.1729
13268TIP3    H161295   6.598   2.151   1.610 -1.1653  1.8394  0.1720
13268TIP3    H261296   6.550   2.175   1.752  0.9286  0.9031  1.0532
13269TIP3   OH261297   3.887   1.407   1.427 -0.5150  0.4720 -0.1861
13269TIP3    H161298   3.978   1.392   1.453 -0.6541  0.1742  0.1336
13269TIP3    H261299   3.852   1.319   1.410 -0.3650  0.6661 -1.6064
13270TIP3   OH261300   2.136   6.396  16.663 -0.5853  0.2740 -0.1489
13270TIP3    H161301   2.041   6.388  16.655 -0.4426 -0.9439 -0.7854
13270TIP3    H261302   2.156   6.360  16.750 -0.7238  0.6516  0.0385
13271TIP3   OH261303   3.110   2.400   0.762 -0.2159 -0.3935  0.0130
13271TIP3    H161304   3.170   2.328   0.782  0.0804  0.0788  0.8320
13271TIP3    H261305   3.156   2.453   0.697 -0.1830 -0.6153 -0.1440
13272TIP3   OH261306   6.671   2.549   3.972  0.6722  0.2104 -0.4213
13272TIP3    H161307   6.604   2.527   3.907  1.6129 -1.8617 -0.7258
13272TIP3    H261308   6.622   2.561   4.053 -0.0550 -1.7739 -0.5297
13273TIP3   OH261309   1.837   3.617   2.865 -0.4156  0.0127  0.2425
13273TIP3    H161310   1.826   3.576   2.951  2.4668  1.3991  1.3708
13273TIP3    H261311   1.890   3.555   2.815  0.5009  0.5320  0.5514
13274TIP3   OH261312   6.759   6.624   0.938 -0.0069 -0.2943  0.1469
13274TIP3    H161313   6.752   6.559   1.008 -0.4700 -0.6746 -0.2484
13274TIP3    H261314   6.790   6.574   0.862  1.8370  0.3694  0.4310
13275TIP3   OH261315   6.754   2.237   4.686 -0.1902 -0.1040 -0.0637
13275TIP3    H161316   6.746   2.245   4.781 -0.7973  1.1605 -0.2233
13275TIP3    H261317   6.755   2.142   4.671  0.2607 -0.3236  1.2265
13276TIP3   OH261318   2.684   2.446   0.249 -0.1204 -0.3984  0.3856
13276TIP3    H161319   2.675   2.372   0.310  0.2508 -0.4599  0.3682
13276TIP3    H261320   2.621   2.428   0.180  1.0209 -1.4827 -0.4086
13277TIP3   OH261321   0.114   4.117  11.774  0.3673  0.2091 -0.6435
13277TIP3    H161322   0.080   4.040  11.729 -0.5661  0.6914 -0.7662
13277TIP3    H261323   0.043   4.144  11.833  1.3734 -0.0993  0.7263
13278TIP3   OH261324   1.322   1.321  14.637  0.1532 -0.6459  0.6744
13278TIP3    H161325   1.390   1.278  14.586 -2.1569 -1.7600 -1.5602
13278TIP3    H261326   1.262   1.251  14.662 -0.5517  0.4074  2.0243
13279TIP3   OH261327   3.831   1.221   6.381 -0.6390  0.4974  0.0480
13279TIP3    H161328   3.761   1.222   6.316 -1.8316 -0.0049  1.3033
13279TIP3    H261329   3.794   1.172   6.456  1.7166 -1.4854 -0.0200
13280TIP3   OH261330   1.603   1.697  11.183 -0.1838 -0.1732 -0.3100
13280TIP3    H161331   1.647   1.620  11.220 -1.1276 -0.4897  0.1735
13280TIP3    H261332   1.546   1.661  11.115  1.1197  0.3502 -1.7224
13281TIP3   OH261333   2.760   1.293   2.590  0.5849  0.3411 -0.0522
13281TIP3    H161334   2.816   1.289   2.512  1.0020 -0.2402  0.2823
13281TIP3    H261335   2.820   1.288   2.664  0.2212  1.3369  0.3141
13282TIP3   OH261336   3.325   1.667  14.254  0.0019 -0.2047  0.6100
13282TIP3    H161337   3.354   1.750  14.217 -0.7852 -0.4839 -0.6505
13282TIP3    H261338   3.405   1.617  14.269  0.3463  0.0830 -0.2902
13283TIP3   OH261339   6.354   4.820   1.975  0.8374 -0.2491 -0.3266
13283TIP3    H161340   6.339   4.728   1.998  1.0131 -0.3908 -0.7845
13283TIP3    H261341   6.279   4.867   2.013  0.9705 -0.5225  0.2825
13284TIP3   OH261342   5.857   5.816   0.385  0.1918  0.3068  0.0911
13284TIP3    H161343   5.932   5.763   0.413 -0.0110  0.2888  0.6128
13284TIP3    H261344   5.840   5.874   0.459 -0.2037  0.4294 -0.0936
13285TIP3   OH261345   4.728   4.454   2.879 -0.7353 -0.4413 -0.6710
13285TIP3    H161346   4.797   4.413   2.827 -0.8468  0.0318 -1.1946
13285TIP3    H261347   4.775   4.500   2.949 -0.6831 -2.7282  0.8433
13286TIP3   OH261348   4.100   4.193   3.235  0.4391 -0.3119  0.5733
13286TIP3    H161349   4.140   4.180   3.321 -1.1234  0.0803  1.3685
13286TIP3    H261350   4.135   4.122   3.181  1.7662 -0.3003  1.3949
13287TIP3   OH261351   0.724   6.707   3.251  0.3470 -0.4438  0.4781
13287TIP3    H161352   0.631   6.690   3.265  0.1102  1.2200  1.0148
13287TIP3    H261353   0.746   6.657   3.172 -0.5289 -2.4087  1.4611
13288TIP3   OH261354   1.320   3.012  12.936  0.0982 -0.1712 -0.1542
13288TIP3    H161355   1.370   3.044  12.860  0.1325 -0.4358 -0.2437
13288TIP3    H261356   1.322   3.085  12.998  1.3326 -0.5041  0.1960
13289TIP3   OH261357   5.453   1.992   0.712 -0.3171  0.5557  0.5308
13289TIP3    H161358   5.504   2.001   0.632 -2.3192  2.3885 -0.5804
13289TIP3    H261359   5.465   2.076   0.758 -1.7263  0.7422  0.5935
13290TIP3   OH261360   3.966   5.788  14.854  0.2506 -0.2868  0.1003
13290TIP3    H161361   3.911   5.843  14.909 -0.5090 -1.1088  0.1652
13290TIP3    H261362   4.054   5.824  14.865  0.0737 -0.3358  1.6996
13291TIP3   OH261363   5.117   4.693  12.338  0.4010  0.2965 -0.2999
13291TIP3    H161364   5.070   4.684  12.255 -0.7644  0.4711  0.3382
13291TIP3    H261365   5.116   4.788  12.355  1.5936  0.3761 -0.6333
13292TIP3   OH261366   4.606   4.169   1.023  0.3161 -0.8384  0.1397
13292TIP3    H161367   4.581   4.153   0.932  1.9004  0.5832 -0.5582
13292TIP3    H261368   4.529   4.212   1.061 -0.0360 -0.6714 -0.7426
13293TIP3   OH261369   6.603   6.415   5.435  0.1868 -0.2878 -0.1071
13293TIP3    H161370   6.557   6.443   5.514  0.7921  0.9230 -0.1643
13293TIP3    H261371   6.683   6.374   5.467  0.1073 -0.4113 -0.0678
13294TIP3   OH261372   5.990   5.050   4.109 -0.4298  0.2480  0.0436
13294TIP3    H161373   5.911   5.091   4.074 -0.4737 -1.6872 -2.2118
13294TIP3    H261374   5.971   5.039   4.203 -2.4833  0.6046 -0.3044
13295TIP3   OH261375   4.888   6.555  12.491  0.1523  0.0423  0.0127
13295TIP3    H161376   4.905   6.512  12.574  1.3689 -2.6036 -1.5490
13295TIP3    H261377   4.975   6.567  12.452 -0.4018  1.2293 -0.8973
13296TIP3   OH261378   1.796   1.397  14.999  0.2687  0.1554 -0.1310
13296TIP3    H161379   1.867   1.439  15.047  0.1148 -0.4338  0.5986
13296TIP3    H261380   1.718   1.450  15.020  0.0520 -0.5632  0.8823
13297TIP3   OH261381   6.131   6.221   3.271 -1.0459 -0.0123  0.2326
13297TIP3    H161382   6.187   6.180   3.206 -1.5529  0.5633 -0.5884
13297TIP3    H261383   6.191   6.258   3.336 -0.5519 -0.9109  0.2874
13298TIP3   OH261384   1.513   2.833   3.989 -0.1608 -0.3051 -0.1783
13298TIP3    H161385   1.473   2.902   4.041  0.5547  2.0576 -2.6063
13298TIP3    H261386   1.472   2.841   3.903  0.5114 -2.3976 -0.7244
13299TIP3   OH261387   5.429   0.502  12.574 -0.0339  0.4464 -0.6405
13299TIP3    H161388   5.407   0.483  12.483  0.6519  0.9419 -0.9129
13299TIP3    H261389   5.361   0.564  12.602 -1.3360 -1.1389 -0.2316
13300TIP3   OH261390   3.063   6.770  13.468  0.3748  1.0937 -0.4856
13300TIP3    H161391   3.063   6.809  13.381  1.8992  0.7524 -0.6563
13300TIP3    H261392   3.138   6.710  13.467 -1.5746 -1.4500 -0.0656
13301TIP3   OH261393   2.677   1.478   3.151 -0.3892 -0.1022  0.2754
13301TIP3    H161394   2.728   1.474   3.232  2.1916 -0.8767 -1.3315
13301TIP3    H261395   2.684   1.570   3.124  1.2697 -0.4604 -0.5919
13302TIP3   OH261396   5.994   6.389  12.939  0.2278 -0.3802 -0.1682
13302TIP3    H161397   5.965   6.427  12.856 -0.7918  0.6343  0.6276
13302TIP3    H261398   6.077   6.433  12.958 -0.7059  1.1346  0.5032
13303TIP3   OH261399   5.321   6.699  12.555 -0.2086 -0.6244 -0.1267
13303TIP3    H161400   5.352   6.652  12.633  2.5034 -1.0669 -1.4254
13303TIP3    H261401   5.325   6.791  12.581  0.0107 -0.7990  0.4831
13304TIP3   OH261402   1.953   5.332   6.305 -0.1168 -0.4873  0.1579
13304TIP3    H161403   2.046   5.341   6.324 -0.0035  0.0993 -0.6504
13304TIP3    H261404   1.927   5.418   6.270 -1.1245 -0.3992  1.0559
13305TIP3   OH261405   0.402   4.344  11.449  0.1634  0.2563 -0.2734
13305TIP3    H161406   0.480   4.306  11.490 -0.1110  0.1275  0.1326
13305TIP3    H261407   0.342   4.359  11.522 -0.1901  0.3549 -0.5855
13306TIP3   OH261408   3.304   3.660   0.549  0.3116 -0.0475 -0.6138
13306TIP3    H161409   3.395   3.629   0.555  1.0684  1.8908 -1.6228
13306TIP3    H261410   3.273   3.660   0.640  1.6074  0.1216 -0.1613
13307TIP3   OH261411   6.202   2.225  15.722  0.2412 -0.4962 -0.0086
13307TIP3    H161412   6.135   2.199  15.785  0.8149 -0.3643  0.6630
13307TIP3    H261413   6.258   2.148  15.713  1.1174  0.0279  0.9050
13308TIP3   OH261414   1.464   1.577   5.057 -0.1023 -0.0521 -0.3560
13308TIP3    H161415   1.391   1.576   4.996  0.8015 -1.5079 -1.4373
13308TIP3    H261416   1.531   1.630   5.014 -0.0751  0.3082  0.1192
13309TIP3   OH261417   3.343   1.661   4.173 -0.3691 -0.6526 -0.2290
13309TIP3    H161418   3.411   1.688   4.235 -0.3645 -2.7943  0.7628
13309TIP3    H261419   3.289   1.739   4.161 -0.2465 -0.1176  2.3345
13310TIP3   OH261420   2.447   3.652   1.290  0.2307  0.0121 -0.1049
13310TIP3    H161421   2.535   3.625   1.316  0.7602  1.2960 -0.5465
13310TIP3    H261422   2.451   3.661   1.195 -0.5757 -0.6172 -0.2061
13311TIP3   OH261423   3.054   4.343   1.722 -0.1440 -0.6397 -0.1527
13311TIP3    H161424   3.078   4.421   1.671 -0.2906 -0.4518  0.0607
13311TIP3    H261425   3.137   4.299   1.738  0.0267 -0.1690  0.2967
13312TIP3   OH261426   1.704   0.464   5.144 -0.3078 -0.1333 -0.1699
13312TIP3    H161427   1.664   0.519   5.212 -0.7249 -0.1340 -0.4126
13312TIP3    H261428   1.639   0.396   5.126  0.6053 -1.2930  0.8310
13313TIP3   OH261429   0.786   2.145  17.179  0.6236  0.7027 -0.0179
13313TIP3    H161430   0.803   2.078  17.114  3.6287  1.4125 -0.0503
13313TIP3    H261431   0.767   2.224  17.128  0.2189  0.6085 -0.0110
13314TIP3   OH261432   0.459   2.630   1.480 -0.2799 -0.4604 -0.4884
13314TIP3    H161433   0.535   2.578   1.453 -0.8997  0.2768 -3.7510
13314TIP3    H261434   0.396   2.565   1.511  0.5514 -1.3152 -0.5544
13315TIP3   OH261435   1.870   5.699   0.611  0.4846 -0.3184  0.1571
13315TIP3    H161436   1.847   5.654   0.529  0.8672 -0.2290 -0.0016
13315TIP3    H261437   1.790   5.696   0.664 -0.8177  2.5379 -1.5223
13316TIP3   OH261438   3.501   4.761  17.147 -0.1088 -0.5372 -0.0304
13316TIP3    H161439   3.504   4.806  17.063 -0.6495 -3.2339 -1.5558
13316TIP3    H261440   3.411   4.729  17.153 -0.3448  0.4332  2.0339
13317TIP3   OH261441   2.743   4.767  13.619  0.9784  0.1640  0.5069
13317TIP3    H161442   2.770   4.720  13.540  2.6952  1.6342  0.1572
13317TIP3    H261443   2.765   4.708  13.691 -1.4743 -1.5804 -0.1215
13318TIP3   OH261444   1.189   6.736   5.496 -0.4212  0.6933 -0.0029
13318TIP3    H161445   1.274   6.773   5.520  0.1444 -0.0646 -0.8152
13318TIP3    H261446   1.208   6.678   5.423 -1.4098 -0.6537  0.7927
13319TIP3   OH261447   3.330   0.732  10.734 -0.0935 -0.2058 -0.5206
13319TIP3    H161448   3.367   0.761  10.651 -1.1768  1.5478 -0.4020
13319TIP3    H261449   3.374   0.649  10.752  0.7840 -0.1658 -2.4038
13320TIP3   OH261450   5.021   2.253   5.762  0.3509  0.4217 -0.4981
13320TIP3    H161451   4.937   2.211   5.778  0.8788 -0.6960 -0.5914
13320TIP3    H261452   5.003   2.347   5.767 -0.9649  0.1944 -0.8534
13321TIP3   OH261453   2.474   1.367   0.286 -0.2713 -0.0315 -0.2830
13321TIP3    H161454   2.385   1.386   0.256 -0.2649  0.1603 -0.1822
13321TIP3    H261455   2.469   1.377   0.381 -0.1398 -0.0168 -0.2784
13322TIP3   OH261456   3.262   0.181  11.131 -0.0161  0.0799 -0.1337
13322TIP3    H161457   3.203   0.245  11.093 -0.0906  0.7243  1.0389
13322TIP3    H261458   3.288   0.125  11.058  0.1506  1.5204 -1.1893
13323TIP3   OH261459   0.611   4.803  15.374  0.3370  0.3198 -0.3996
13323TIP3    H161460   0.615   4.813  15.469  1.9050  0.1275 -0.4392
13323TIP3    H261461   0.702   4.793  15.347 -0.0947  0.4228 -1.9307
13324TIP3   OH261462   5.477   0.234  16.559 -0.1807 -0.0202  0.5606
13324TIP3    H161463   5.531   0.304  16.521 -1.5671  1.6547  1.5831
13324TIP3    H261464   5.534   0.157  16.560  0.8532  0.6519 -2.1154
13325TIP3   OH261465   5.171   0.958  16.435  0.7903  0.5065  0.2957
13325TIP3    H161466   5.240   0.933  16.497 -1.0027  0.1301  2.1684
13325TIP3    H261467   5.197   1.045  16.405  1.8209  0.5868  1.3627
13326TIP3   OH261468   1.181   0.135   1.254  0.0829 -0.1942 -0.2139
13326TIP3    H161469   1.165   0.198   1.325  1.0289 -0.0877 -0.0959
13326TIP3    H261470   1.125   0.060   1.275 -0.5746  0.3407 -0.0182
13327TIP3   OH261471   6.336   4.424   1.638 -0.0817 -0.8911  0.3318
13327TIP3    H161472   6.349   4.368   1.562  0.0282 -0.8370  0.3100
13327TIP3    H261473   6.425   4.444   1.668 -0.1087 -0.2705  0.0017
13328TIP3   OH261474   6.539   3.530  12.418 -0.4264  0.3084  0.4505
13328TIP3    H161475   6.494   3.614  12.419  0.1347  0.6189 -0.4531
13328TIP3    H261476   6.545   3.506  12.325  0.5438 -0.1220  0.6160
13329TIP3   OH261477   6.163   6.310   2.473 -0.0636  0.4680  0.4176
13329TIP3    H161478   6.238   6.287   2.527  0.5257  2.3970  0.4832
13329TIP3    H261479   6.090   6.315   2.535 -0.1550 -0.9190  0.4327
13330TIP3   OH261480   3.367   0.590  13.075  0.3427  0.3429 -0.4360
13330TIP3    H161481   3.419   0.531  13.021 -0.8661  0.0040 -1.2708
13330TIP3    H261482   3.429   0.629  13.136  1.0717 -2.2987  0.5735
13331TIP3   OH261483   0.165   2.386  15.193 -0.4369  0.2707  0.3749
13331TIP3    H161484   0.070   2.374  15.188 -0.5336 -0.6567  3.1345
13331TIP3    H261485   0.177   2.481  15.191 -1.7270  0.5650  3.1414
13332TIP3   OH261486   1.999   4.822  15.602  0.5675 -0.6344  0.2515
13332TIP3    H161487   2.007   4.881  15.527 -0.1232 -0.2608  0.4630
13332TIP3    H261488   2.072   4.846  15.659  0.8247 -0.6040 -0.0893
13333TIP3   OH261489   5.994   3.382  15.010 -0.2807 -0.4319 -0.7499
13333TIP3    H161490   5.948   3.464  15.023 -0.2583 -0.2765 -1.6335
13333TIP3    H261491   5.964   3.326  15.082  0.6815  0.7677  0.6070
13334TIP3   OH261492   2.972   2.405  13.743 -0.1754 -0.2870  0.2091
13334TIP3    H161493   3.021   2.482  13.716  0.1088 -0.6204 -0.2374
13334TIP3    H261494   2.910   2.437  13.809  0.2062  0.2465  0.3053
13335TIP3   OH261495   3.143   0.199   3.145  0.5500  0.1810  0.2304
13335TIP3    H161496   3.056   0.232   3.126  0.5103 -0.1326 -0.1524
13335TIP3    H261497   3.170   0.156   3.063 -0.6298 -3.4375  1.6504
13336TIP3   OH261498   5.597   1.576   3.483  1.0249 -0.1509  0.8460
13336TIP3    H161499   5.506   1.579   3.455  0.5714 -2.9177  1.9138
13336TIP3    H261500   5.594   1.595   3.576  1.3910 -1.4054  1.1255
13337TIP3   OH261501   3.444   0.536   4.093  0.1799 -0.2256 -0.0053
13337TIP3    H161502   3.521   0.516   4.146 -0.8332 -3.4625  0.2996
13337TIP3    H261503   3.370   0.519   4.150 -0.8537 -0.3242 -1.3629
13338TIP3   OH261504   1.508   3.545  13.557  0.0248 -0.5244 -0.2394
13338TIP3    H161505   1.432   3.494  13.526 -0.1121  0.3503 -1.3820
13338TIP3    H261506   1.580   3.516  13.500  0.3253 -0.6587  0.2123
13339TIP3   OH261507   0.076   6.152   2.881  0.6757 -0.2284 -0.8426
13339TIP3    H161508   0.005   6.157   2.945 -0.7377  0.3493 -2.4056
13339TIP3    H261509   0.139   6.090   2.919  2.3272  3.7847  3.4077
13340TIP3   OH261510   5.092   0.284  13.742  0.3843  0.2220 -1.3045
13340TIP3    H161511   5.170   0.324  13.704  0.6259  2.8866  1.8493
13340TIP3    H261512   5.021   0.344  13.721  0.4658  1.5837  2.0157
13341TIP3   OH261513   2.485   5.996  13.029  0.0529  0.0534  0.0391
13341TIP3    H161514   2.515   5.915  12.989  0.4435 -0.5907  1.6257
13341TIP3    H261515   2.389   5.988  13.031 -0.0453  0.4816 -1.5371
13342TIP3   OH261516   3.203   2.759   5.724 -0.4403 -0.7038  0.0030
13342TIP3    H161517   3.187   2.712   5.643 -1.8294  0.2816 -0.3121
13342TIP3    H261518   3.232   2.692   5.786 -4.0717 -2.3029  0.0698
13343TIP3   OH261519   6.123   5.825   2.712  0.1073 -0.3581 -0.5704
13343TIP3    H161520   6.181   5.891   2.674 -1.3628  0.5404 -1.2673
13343TIP3    H261521   6.179   5.748   2.723  2.0689  1.2379  1.0461
13344TIP3   OH261522   0.900   5.277   1.686 -0.5017  0.4785 -0.3468
13344TIP3    H161523   0.927   5.335   1.757 -0.4336  1.6511 -1.3144
13344TIP3    H261524   0.982   5.239   1.654 -0.5711 -0.3659  0.4584
13345TIP3   OH261525   3.048   0.120  15.971 -0.5547  0.0337 -0.3672
13345TIP3    H161526   3.125   0.165  15.936 -0.6571 -0.6055 -1.4527
13345TIP3    H261527   2.985   0.190  15.989 -0.5875  0.3662 -1.7330
13346TIP3   OH261528   6.135   5.927   3.526 -0.0034 -0.3636  0.5155
13346TIP3    H161529   6.083   5.898   3.451 -0.6191  0.2360  0.6999
13346TIP3    H261530   6.093   5.886   3.602  0.3247 -0.5843  0.5787
13347TIP3   OH261531   6.588   1.280   0.548  0.2163  0.2527 -0.7228
13347TIP3    H161532   6.553   1.280   0.459 -1.1819 -1.0800 -0.2163
13347TIP3    H261533   6.534   1.343   0.595 -0.3978 -0.5396 -0.3484
13348TIP3   OH261534   6.603   3.091  14.040  0.3662 -0.0420  0.3424
13348TIP3    H161535   6.603   3.029  13.968 -1.6383 -0.0386  0.2962
13348TIP3    H261536   6.557   3.168  14.005  0.5176  0.4488  1.2079
13349TIP3   OH261537   1.428   0.487   6.183  0.5054 -0.2156 -0.2185
13349TIP3    H161538   1.379   0.406   6.182  0.9884 -0.5126 -0.0091
13349TIP3    H261539   1.417   0.521   6.272 -4.5236  2.9312 -1.8199
13350TIP3   OH261540   0.668   1.455   3.933  0.0397  0.8870 -0.8000
13350TIP3    H161541   0.583   1.497   3.918 -0.9198 -0.6627  0.2527
13350TIP3    H261542   0.715   1.515   3.990 -0.4903  1.5552 -1.0584
13351TIP3   OH261543   3.354   0.625  15.789 -0.7845  0.0587 -0.5368
13351TIP3    H161544   3.429   0.569  15.810  0.2758  1.6950  0.1325
13351TIP3    H261545   3.361   0.642  15.695 -0.1499  0.4321 -0.4245
13352TIP3   OH261546   3.307   0.818   4.432 -0.0814 -0.2752 -0.1600
13352TIP3    H161547   3.334   0.904   4.465  0.6804 -1.5091  2.6119
13352TIP3    H261548   3.363   0.803   4.356  0.2327  1.3882 -0.2826
13353TIP3   OH261549   3.039   5.793   4.168  0.6083  0.5449  0.0076
13353TIP3    H161550   3.004   5.729   4.106 -1.8495  0.3826  1.4994
13353TIP3    H261551   3.019   5.878   4.129  0.2872  0.4339 -0.0678
13354TIP3   OH261552   2.764   5.796   2.895  0.1165  0.3204  0.2163
13354TIP3    H161553   2.827   5.813   2.825  1.0991 -0.0555  1.0011
13354TIP3    H261554   2.773   5.871   2.955  1.2438 -0.7057  1.3505
13355TIP3   OH261555   1.773   4.188   0.841 -0.0555 -0.1570  0.1066
13355TIP3    H161556   1.705   4.154   0.899 -0.0910  0.1382  0.2417
13355TIP3    H261557   1.725   4.244   0.779 -0.2134 -1.6001 -1.1175
13356TIP3   OH261558   4.424   5.834  12.191  0.2747 -0.1721 -0.0048
13356TIP3    H161559   4.514   5.837  12.159 -0.6124 -1.1301 -2.7208
13356TIP3    H261560   4.429   5.868  12.281  2.9187  2.3191 -1.0260
13357TIP3   OH261561   4.290   2.883   5.436  0.5150 -0.2067 -0.2110
13357TIP3    H161562   4.262   2.839   5.356  0.5585 -0.9949  0.2039
13357TIP3    H261563   4.213   2.880   5.493 -0.0775  1.8950 -0.8545
13358TIP3   OH261564   1.395   5.341  16.749 -0.3170 -0.2608 -0.1623
13358TIP3    H161565   1.405   5.293  16.832 -0.7409  0.0033  0.0427
13358TIP3    H261566   1.418   5.277  16.682  0.0085 -0.4862  0.1620
13359TIP3   OH261567   1.780   5.905   1.622 -0.1711 -0.4392 -0.7633
13359TIP3    H161568   1.707   5.851   1.651 -1.7739  2.5509  1.0527
13359TIP3    H261569   1.739   5.977   1.574  1.4467  1.7891  1.0865
13360TIP3   OH261570   4.394   1.571  16.018  0.0752 -0.4332 -0.1395
13360TIP3    H161571   4.303   1.559  16.046 -0.1144 -0.8981 -0.9740
13360TIP3    H261572   4.441   1.499  16.060 -0.3552 -1.6370 -1.7156
13361TIP3   OH261573   3.167   6.433  15.244  0.6360  0.1481  0.2036
13361TIP3    H161574   3.132   6.367  15.184  2.1333 -0.0024 -0.5144
13361TIP3    H261575   3.089   6.478  15.277 -0.2059  1.8369 -3.6686
13362TIP3   OH261576   5.557   5.082   3.943 -0.2206 -0.9030 -0.4286
13362TIP3    H161577   5.511   5.017   3.889 -0.2162  0.2031 -1.7858
13362TIP3    H261578   5.594   5.031   4.015 -1.8254 -2.1145 -0.4414
13363TIP3   OH261579   4.732   1.578  10.378  0.0281 -0.0490  0.0414
13363TIP3    H161580   4.766   1.494  10.408 -0.3780 -0.2092  0.0536
13363TIP3    H261581   4.653   1.556  10.329  2.0694 -0.0571 -3.4462
13364TIP3   OH261582   3.770   6.019  11.247 -0.2074  0.3375  0.0017
13364TIP3    H161583   3.783   6.019  11.342 -1.3203 -0.0254  0.1538
13364TIP3    H261584   3.772   6.112  11.223  1.4378  0.3704  0.1751
13365TIP3   OH261585   2.498   0.934   5.740  1.1640  0.1300  0.0011
13365TIP3    H161586   2.511   0.936   5.834 -0.5748 -0.1777  0.2758
13365TIP3    H261587   2.462   0.847   5.723  0.8130  0.4369 -0.8480
13366TIP3   OH261588   3.469   1.950   1.406 -0.2207 -0.6715  0.0298
13366TIP3    H161589   3.515   2.027   1.441 -1.2468  0.7549 -1.7212
13366TIP3    H261590   3.535   1.881   1.406  1.5378  0.9605 -1.0423
13367TIP3   OH261591   5.226   0.679   6.008 -0.3622 -0.1493 -0.2855
13367TIP3    H161592   5.190   0.695   6.096  1.4498  0.6905  0.3219
13367TIP3    H261593   5.200   0.756   5.958 -2.7089 -1.3238 -0.9363
13368TIP3   OH261594   4.934   6.416   0.141  0.9895  0.0546 -0.2032
13368TIP3    H161595   4.926   6.342   0.202 -0.4588 -1.6828 -2.4100
13368TIP3    H261596   4.845   6.449   0.131  1.3063  0.7132 -0.8965
13369TIP3   OH261597   1.272   0.779  11.568 -0.6161  0.0620 -0.0058
13369TIP3    H161598   1.218   0.826  11.632 -0.6949 -0.2506  0.1556
13369TIP3    H261599   1.279   0.840  11.494 -1.7055 -0.1370 -0.2810
13370TIP3   OH261600   0.387   0.839  16.998 -0.0376  0.7059 -0.7182
13370TIP3    H161601   0.442   0.902  17.043  0.9903 -0.0020 -0.9749
13370TIP3    H261602   0.443   0.762  16.985 -2.2144 -1.6050  2.6415
13371TIP3   OH261603   5.543   5.073  13.340  0.0393 -0.3460 -0.4949
13371TIP3    H161604   5.462   5.042  13.300  1.1189 -0.2905 -2.7928
13371TIP3    H261605   5.579   5.134  13.276  2.2535 -0.8970  0.1932
13372TIP3   OH261606   6.523   2.245   5.245 -0.1129 -0.6807 -0.0466
13372TIP3    H161607   6.578   2.167   5.254  0.7977 -0.0578 -0.1722
13372TIP3    H261608   6.572   2.315   5.289 -1.2670 -0.3384  0.7310
13373TIP3   OH261609   5.294   5.282   5.535  0.0451  0.2060 -0.1090
13373TIP3    H161610   5.342   5.332   5.469 -1.5552  2.2277  0.1881
13373TIP3    H261611   5.219   5.245   5.488 -2.1677  3.2412  0.8684
13374TIP3   OH261612   3.583   0.243   4.028 -0.2042  0.5493 -0.1006
13374TIP3    H161613   3.575   0.213   3.938  0.4046 -0.8232  0.2912
13374TIP3    H261614   3.493   0.249   4.060 -0.2908 -2.5054  0.3302
13375TIP3   OH261615   2.431   0.084   4.746  0.1675 -0.2295  0.4093
13375TIP3    H161616   2.374   0.087   4.669  0.8299 -0.4422 -0.0937
13375TIP3    H261617   2.476   0.168   4.745  0.3679 -0.3371  0.4135
13376TIP3   OH261618   0.726   2.608  12.090 -0.1233 -0.5255 -0.8969
13376TIP3    H161619   0.704   2.603  11.997  0.0129 -1.4664 -0.8833
13376TIP3    H261620   0.789   2.679  12.096 -2.7240  1.8987 -1.0127
13377TIP3   OH261621   2.775   0.627   0.210  0.2556  0.4202  0.6360
13377TIP3    H161622   2.776   0.679   0.129 -0.1040 -0.3743  0.1073
13377TIP3    H261623   2.688   0.587   0.211  1.3069 -1.9675 -0.1496
13378TIP3   OH261624   4.400   3.265   2.632  1.0550  0.3620  0.0898
13378TIP3    H161625   4.418   3.305   2.547 -1.0817 -0.4745 -0.7976
13378TIP3    H261626   4.387   3.172   2.612 -1.1849  0.4441  1.0550
13379TIP3   OH261627   6.743   3.269  12.215 -0.1384  0.2289  0.0428
13379TIP3    H161628   6.724   3.208  12.144  0.7150  1.0563 -0.9134
13379TIP3    H261629   6.692   3.347  12.193 -1.0736 -0.0609  1.1561
13380TIP3   OH261630   5.616   5.232   5.508  0.1696  0.1559  0.4048
13380TIP3    H161631   5.532   5.278   5.510 -0.0075 -0.1796  0.6731
13380TIP3    H261632   5.674   5.291   5.459 -0.4194  0.0557 -0.4242
13381TIP3   OH261633   5.382   2.005  12.976  0.5039 -0.1932 -0.2169
13381TIP3    H161634   5.394   2.098  12.995 -1.9313  0.0805  0.1486
13381TIP3    H261635   5.360   2.003  12.883 -2.1451 -0.1154  0.3807
13382TIP3   OH261636   4.575   2.296  15.445  0.6144  0.2508  0.2858
13382TIP3    H161637   4.508   2.353  15.408  1.1483  1.1045  0.6038
13382TIP3    H261638   4.568   2.309  15.540 -1.6168 -2.9150  0.5960
13383TIP3   OH261639   5.990   1.028  10.679  0.0517  0.3533 -0.4080
13383TIP3    H161640   5.956   1.117  10.688 -1.0101 -0.0977  0.1962
13383TIP3    H261641   5.911   0.973  10.673  0.6877 -0.4244 -2.0022
13384TIP3   OH261642   2.266   0.627   1.659 -0.7732 -0.2498  0.1871
13384TIP3    H161643   2.210   0.631   1.737 -1.1817  1.8290 -0.2035
13384TIP3    H261644   2.276   0.718   1.632  1.7311 -0.7221 -0.5299
13385TIP3   OH261645   0.913   0.181  14.235 -0.2418  0.4054 -0.3486
13385TIP3    H161646   0.959   0.213  14.313  1.4319 -0.0524 -1.1256
13385TIP3    H261647   0.864   0.257  14.203  1.1746  1.3283 -0.3490
13386TIP3   OH261648   6.693   2.069  12.128 -0.4021 -0.4798 -0.5229
13386TIP3    H161649   6.693   2.025  12.043 -1.3234  1.4987 -1.5898
13386TIP3    H261650   6.608   2.112  12.133  0.6174  1.5108  0.2789
13387TIP3   OH261651   5.787   3.954  12.300  0.5518 -0.5642  0.0491
13387TIP3    H161652   5.740   3.875  12.274 -0.6268 -0.0610  0.6185
13387TIP3    H261653   5.736   3.990  12.372  1.2515  0.5520 -0.0004
13388TIP3   OH261654   0.305   4.535  13.728  0.0116 -0.3918 -0.0056
13388TIP3    H161655   0.392   4.517  13.692  1.1539  0.5791  2.1257
13388TIP3    H261656   0.323   4.572  13.815 -2.4854  1.4704 -0.2286
13389TIP3   OH261657   2.175   2.587   4.202  0.0033 -0.0099  0.4168
13389TIP3    H161658   2.257   2.537   4.210  1.1307  1.7187 -0.0805
13389TIP3    H261659   2.107   2.520   4.197  1.3698 -1.4763  1.0443
13390TIP3   OH261660   4.667   5.545  15.491 -0.0284  0.0107  0.6481
13390TIP3    H161661   4.635   5.594  15.567  0.4474  0.7358  0.3830
13390TIP3    H261662   4.677   5.456  15.524 -0.5850  0.1473  1.2222
13391TIP3   OH261663   6.048   5.471   5.229  0.1651 -0.0509  0.5048
13391TIP3    H161664   6.125   5.505   5.184  0.0422  0.8546  0.9526
13391TIP3    H261665   6.082   5.412   5.296  0.3922 -0.7629 -0.2432
13392TIP3   OH261666   0.501   0.037   2.976  0.6059 -0.3775  0.0731
13392TIP3    H161667   0.540   0.124   2.974 -1.2189  0.5068  1.3511
13392TIP3    H261668   0.465   0.024   2.888  0.1029  0.5489  0.1370
13393TIP3   OH261669   3.386   0.921  16.672 -0.2218 -0.2045 -0.7306
13393TIP3    H161670   3.313   0.926  16.734 -0.2351 -4.8502 -0.2120
13393TIP3    H261671   3.347   0.943  16.587 -1.3767  1.0374  0.1114
13394TIP3   OH261672   0.476   3.237   5.651 -0.0993  0.3942 -0.3469
13394TIP3    H161673   0.473   3.178   5.726 -0.7971  0.3251 -0.4253
13394TIP3    H261674   0.403   3.210   5.595  0.1480  0.7233 -0.8410
13395TIP3   OH261675   4.175   6.123  15.462 -0.1395 -0.4828 -0.1450
13395TIP3    H161676   4.171   6.190  15.530  0.3638 -0.4096 -0.1893
13395TIP3    H261677   4.268   6.116  15.439 -0.3189 -0.4328 -0.9023
13396TIP3   OH261678   4.302   1.108  12.720 -0.1856  0.4381  0.2209
13396TIP3    H161679   4.230   1.067  12.769  0.6162  1.0488  1.9091
13396TIP3    H261680   4.259   1.145  12.643 -1.4258 -0.6822  0.3456
13397TIP3   OH261681   5.822   2.226   0.592 -0.3918 -0.0380 -0.2944
13397TIP3    H161682   5.816   2.184   0.678 -0.6804  1.0476  0.2255
13397TIP3    H261683   5.915   2.222   0.570 -0.5047 -1.5099 -0.5384
13398TIP3   OH261684   3.227   6.457  13.811 -0.0627 -0.5544 -0.4979
13398TIP3    H161685   3.309   6.487  13.771 -1.0941  1.9247 -0.8521
13398TIP3    H261686   3.246   6.454  13.905 -0.2450  2.5129 -0.3025
13399TIP3   OH261687   1.472   3.459   2.482  0.4517 -0.5138 -0.3023
13399TIP3    H161688   1.395   3.446   2.426  1.4390  1.9240 -2.2971
13399TIP3    H261689   1.440   3.510   2.556 -0.1932 -1.0275 -0.2204
13400TIP3   OH261690   0.740   3.611  13.445  0.1447 -0.0877  0.4717
13400TIP3    H161691   0.758   3.702  13.471  0.7579  0.0788 -0.5299
13400TIP3    H261692   0.768   3.559  13.521 -0.3911  0.5702  1.1241
13401TIP3   OH261693   1.225   4.920  13.538  0.3409  0.0342 -0.4840
13401TIP3    H161694   1.266   4.834  13.550  0.1469 -0.2481 -1.7454
13401TIP3    H261695   1.263   4.974  13.606  0.8547 -0.9260  0.0064
13402TIP3   OH261696   1.177   2.788   1.243 -0.1510  0.5841  0.4732
13402TIP3    H161697   1.185   2.787   1.338 -0.8228  0.1187  0.5266
13402TIP3    H261698   1.185   2.880   1.219  0.5616  0.6497  0.9281
13403TIP3   OH261699   1.563   3.819   1.871 -0.1940  1.1386 -0.2808
13403TIP3    H161700   1.551   3.905   1.832  0.7775  2.0919  1.5175
13403TIP3    H261701   1.475   3.779   1.868 -0.6407  2.1763 -1.1029
13404TIP3   OH261702   1.005   0.673   6.758 -0.0063  0.0335 -0.1688
13404TIP3    H161703   1.013   0.670   6.853 -2.2076 -0.9754  0.0173
13404TIP3    H261704   1.044   0.757   6.733 -1.1128  1.1682  1.8113
13405TIP3   OH261705   6.818   1.499  12.282  0.5365 -0.4942  0.1930
13405TIP3    H161706   6.888   1.557  12.253 -1.0790  0.6162 -1.5754
13405TIP3    H261707   6.793   1.532  12.368 -0.9199  1.9817 -1.1325
13406TIP3   OH261708   1.720   0.266   4.489  0.5745 -0.3411 -0.4053
13406TIP3    H161709   1.656   0.198   4.509 -1.0505  0.9470 -1.0892
13406TIP3    H261710   1.717   0.274   4.393  0.1603  1.2344 -0.2747
13407TIP3   OH261711   0.751   3.327   0.442 -0.1912 -0.3289 -0.1423
13407TIP3    H161712   0.795   3.362   0.520 -0.0373 -0.0330 -0.3597
13407TIP3    H261713   0.737   3.234   0.462 -2.3422  0.2584  1.2354
13408TIP3   OH261714   6.388   2.289   3.413 -0.5117 -0.1143 -0.1343
13408TIP3    H161715   6.457   2.332   3.465 -0.2211 -1.3615  0.5525
13408TIP3    H261716   6.425   2.284   3.325  0.1177 -0.4102  0.1397
13409TIP3   OH261717   1.445   5.895   3.034 -0.1269 -0.2136 -0.0404
13409TIP3    H161718   1.365   5.868   2.989 -1.6758  2.1394  1.1428
13409TIP3    H261719   1.499   5.934   2.966 -0.4854 -0.7706 -0.6510
13410TIP3   OH261720   1.765   5.096   3.680 -0.3830  0.5410  0.3517
13410TIP3    H161721   1.750   5.183   3.716 -0.7701 -0.0223  1.5447
13410TIP3    H261722   1.789   5.042   3.755  0.1242 -0.3235 -0.4198
13411TIP3   OH261723   6.237   6.574  17.247  0.4818 -0.2259 -0.5900
13411TIP3    H161724   6.180   6.510  17.291 -0.0048 -0.0601 -0.9730
13411TIP3    H261725   6.273   6.627  17.318  0.5548 -0.6593 -0.3029
13412TIP3   OH261726   6.075   2.242   5.389 -0.1681 -0.4315  0.0978
13412TIP3    H161727   6.036   2.158   5.412  1.0360 -0.4572  2.1293
13412TIP3    H261728   6.001   2.302   5.385 -1.0368 -1.5757 -1.3679
13413TIP3   OH261729   6.409   5.325  13.041  0.7004 -0.2150  0.2096
13413TIP3    H161730   6.428   5.233  13.022  0.3264 -0.0130 -1.1960
13413TIP3    H261731   6.335   5.346  12.984  1.6400  1.3425 -0.4399
13414TIP3   OH261732   0.914   1.646   6.851  0.1082  0.2284  0.1516
13414TIP3    H161733   0.839   1.676   6.800 -1.2347 -0.8988  1.4049
13414TIP3    H261734   0.908   1.550   6.847  2.4290  0.1197 -1.0923
13415TIP3   OH261735   6.258   2.894   2.658 -0.3201  0.5435 -0.9272
13415TIP3    H161736   6.268   2.897   2.753 -2.4539  0.4653 -0.6921
13415TIP3    H261737   6.168   2.866   2.643 -0.2953  1.4418 -2.9754
13416TIP3   OH261738   5.026   3.828  11.891 -0.1474 -0.4280  0.0269
13416TIP3    H161739   5.081   3.850  11.965 -0.0596 -0.2877 -0.0821
13416TIP3    H261740   5.071   3.864  11.815 -1.0996  0.9678  0.0882
13417TIP3   OH261741   4.331   3.410   0.987 -0.0005  0.1136  0.6484
13417TIP3    H161742   4.338   3.501   1.016 -1.7460  0.1243  1.0501
13417TIP3    H261743   4.238   3.389   0.992  0.3286 -1.5842  0.1952
13418TIP3   OH261744   0.073   1.715   4.492 -0.1455 -0.0387  0.4531
13418TIP3    H161745  -0.000   1.658   4.468 -2.5524  3.0862  0.1377
13418TIP3    H261746   0.110   1.743   4.408 -0.6120  0.9332  0.5738
13419TIP3   OH261747   5.086   3.286   3.232  0.1713 -0.1308 -0.1234
13419TIP3    H161748   5.147   3.354   3.259 -0.9073  0.7499  0.1350
13419TIP3    H261749   5.084   3.224   3.305 -0.2560  0.5377  0.4347
13420TIP3   OH261750   3.787   4.645   4.476  0.1113 -0.0722 -1.0430
13420TIP3    H161751   3.841   4.598   4.539 -2.0597 -2.9419 -1.1876
13420TIP3    H261752   3.832   4.728   4.462  3.0932 -1.3232  0.7049
13421TIP3   OH261753   3.368   2.553  16.978  0.3444  0.0908 -0.1060
13421TIP3    H161754   3.326   2.478  17.021  0.6512 -0.1167 -0.1693
13421TIP3    H261755   3.296   2.602  16.939  0.2719 -0.9314 -1.2816
13422TIP3   OH261756   6.066   3.105   3.692 -0.2126 -0.0043  0.3946
13422TIP3    H161757   6.150   3.061   3.677  0.7166  1.8260  0.1357
13422TIP3    H261758   6.036   3.130   3.604  0.3813  1.8691  0.7018
13423TIP3   OH261759   2.889   0.418  13.315  0.2616 -0.5772 -0.6071
13423TIP3    H161760   2.957   0.454  13.257  0.5240 -1.9742 -1.1871
13423TIP3    H261761   2.825   0.489  13.324  1.6071  0.6310 -0.3603
13424TIP3   OH261762   5.024   0.279  15.226  0.5326  0.3218  0.4491
13424TIP3    H161763   4.953   0.273  15.290  0.8687 -0.9631  0.7160
13424TIP3    H261764   5.075   0.355  15.253  0.0492  0.4247  1.0713
13425TIP3   OH261765   3.195   4.916   2.121  0.4325 -0.4840  0.2049
13425TIP3    H161766   3.101   4.923   2.134  0.7881  1.3488  2.0527
13425TIP3    H261767   3.207   4.923   2.026 -1.3280 -1.4915 -0.1056
13426TIP3   OH261768   2.322   6.179  14.519  0.1544  0.2809  0.2681
13426TIP3    H161769   2.356   6.263  14.551  0.4273  0.1973  0.2002
13426TIP3    H261770   2.400   6.126  14.505  0.1496  0.8186 -1.9454
13427TIP3   OH261771   3.005   4.523   6.586 -0.1644 -0.0121  0.1625
13427TIP3    H161772   2.917   4.542   6.554 -0.4637 -1.0865  0.3286
13427TIP3    H261773   2.993   4.450   6.647  0.7723  0.1930  0.6072
13428TIP3   OH261774   1.299   2.488   2.156 -0.1481  0.2006 -0.0782
13428TIP3    H161775   1.318   2.562   2.213  2.9685 -0.2819 -0.3960
13428TIP3    H261776   1.365   2.494   2.087 -0.7551 -2.0852 -0.8945
13429TIP3   OH261777   5.094   0.154  15.523 -0.0887 -0.4750  0.1966
13429TIP3    H161778   5.077   0.117  15.610 -0.5963  0.4030  0.4711
13429TIP3    H261779   5.130   0.241  15.541  2.0715 -1.2069 -0.4274
13430TIP3   OH261780   3.481   4.815  16.110  0.2033 -0.5094  0.5257
13430TIP3    H161781   3.399   4.768  16.122  0.0058 -0.5242 -0.9000
13430TIP3    H261782   3.545   4.747  16.087  0.4902 -0.4178  1.0386
13431TIP3   OH261783   6.154   4.599  14.060  0.7430  0.4585  0.5746
13431TIP3    H161784   6.243   4.631  14.050  0.7569 -0.1534 -1.5187
13431TIP3    H261785   6.127   4.576  13.971 -1.0795 -0.4782  1.3492
13432TIP3   OH261786   4.676   1.472  12.094 -0.0089 -0.0269  0.0624
13432TIP3    H161787   4.725   1.413  12.037  0.1492  0.1279  0.0394
13432TIP3    H261788   4.638   1.414  12.161 -0.2262 -0.2106 -0.2206
13433TIP3   OH261789   4.176   3.833  13.679  0.0098 -0.2207 -0.6203
13433TIP3    H161790   4.218   3.904  13.726 -2.4345  0.1344  1.0805
13433TIP3    H261791   4.101   3.873  13.636 -1.4033 -1.7604  0.3752
13434TIP3   OH261792   4.776   0.007   4.791 -0.0834  0.2839  0.2557
13434TIP3    H161793   4.713  -0.002   4.862 -0.0793 -0.0417  0.2173
13434TIP3    H261794   4.768  -0.074   4.741  0.6559  0.0682  0.4889
13435TIP3   OH261795   6.469   3.830  15.519 -0.3353  0.2073  0.1421
13435TIP3    H161796   6.520   3.911  15.522  0.9601 -0.5672 -0.4627
13435TIP3    H261797   6.534   3.760  15.521 -1.3903 -0.8116 -0.2604
13436TIP3   OH261798   0.788   1.338   4.257 -0.0798 -0.3161 -0.5096
13436TIP3    H161799   0.760   1.420   4.299  0.2523 -0.2209 -0.4692
13436TIP3    H261800   0.875   1.359   4.221 -0.5695 -0.2486 -1.6714
13437TIP3   OH261801   5.822   3.324   1.721 -0.0653  0.1668 -0.2388
13437TIP3    H161802   5.867   3.347   1.802  1.8884  0.1870 -1.3159
13437TIP3    H261803   5.854   3.237   1.699 -1.3782 -0.2819 -0.4668
13438TIP3   OH261804   1.670   3.944  11.611  0.0968 -0.3835 -0.1021
13438TIP3    H161805   1.719   3.862  11.607  0.6368 -0.0881  0.4260
13438TIP3    H261806   1.591   3.922  11.662  0.3443 -0.5217  0.2199
13439TIP3   OH261807   4.533   5.539  12.954  0.0949  0.4814  0.2368
13439TIP3    H161808   4.505   5.448  12.964 -0.2191  0.5411 -0.0880
13439TIP3    H261809   4.622   5.534  12.920  1.1129  0.2673  2.8241
13440TIP3   OH261810   1.572   6.783   0.166  0.4384 -0.1489  0.0203
13440TIP3    H161811   1.502   6.795   0.102  0.3574  0.1628  0.1695
13440TIP3    H261812   1.649   6.822   0.124  0.8590 -1.7712 -0.7555
13441TIP3   OH261813   2.917   3.955   3.197 -0.1371 -0.2287 -0.2655
13441TIP3    H161814   2.928   3.932   3.105  0.6496 -1.2972  0.0918
13441TIP3    H261815   2.977   4.029   3.210  1.2441 -1.3492 -0.1341
13442TIP3   OH261816   6.161   5.674  16.332 -0.1258 -0.1375 -0.2786
13442TIP3    H161817   6.154   5.580  16.346 -0.0080  0.1450  1.7852
13442TIP3    H261818   6.073   5.708  16.346  0.4017  0.4084  1.9335
13443TIP3   OH261819   4.928   2.112  13.452  0.3089 -0.9497 -0.0682
13443TIP3    H161820   4.971   2.110  13.366  0.4472 -1.0723  0.0018
13443TIP3    H261821   4.841   2.146  13.435  0.6239 -0.1687 -0.1302
13444TIP3   OH261822   4.305   5.587  11.244 -0.5138 -0.5157 -0.0751
13444TIP3    H161823   4.285   5.533  11.321  0.3161 -0.6864  0.0260
13444TIP3    H261824   4.239   5.656  11.246 -1.3040 -1.2648  0.0575
13445TIP3   OH261825   2.516   3.886  12.482  0.6151 -0.7315  0.2310
13445TIP3    H161826   2.516   3.917  12.391  0.8739  0.8178  0.7350
13445TIP3    H261827   2.586   3.822  12.486  2.4477  1.2058 -0.0282
13446TIP3   OH261828   0.811   1.352  12.112  0.2192  0.6888 -0.2060
13446TIP3    H161829   0.848   1.353  12.201 -1.8105  1.1597  0.6678
13446TIP3    H261830   0.734   1.407  12.118 -0.7828 -0.4859 -1.9063
13447TIP3   OH261831   6.700   2.720  12.574  0.4231 -0.6414 -0.1770
13447TIP3    H161832   6.736   2.775  12.644  1.5473 -0.5423 -0.8200
13447TIP3    H261833   6.776   2.691  12.525 -0.2073 -2.3490 -0.1750
13448TIP3   OH261834   5.107   2.668  11.597 -0.3746  0.0716 -0.1323
13448TIP3    H161835   5.072   2.587  11.635  0.5152 -0.6589 -0.8259
13448TIP3    H261836   5.030   2.722  11.580 -0.8042  0.3427  2.4930
13449TIP3   OH261837   5.103   0.802  14.741 -0.2490 -0.5255 -0.6956
13449TIP3    H161838   5.181   0.798  14.798 -0.9836  1.6785  0.5300
13449TIP3    H261839   5.056   0.721  14.761  0.3127 -0.5419  0.6627
13450TIP3   OH261840   3.958   3.239  13.326 -0.6485  0.2299 -0.3408
13450TIP3    H161841   3.900   3.187  13.383 -1.4634  0.6450 -0.7950
13450TIP3    H261842   3.978   3.317  13.378  0.5725 -0.5246  0.3399
13451TIP3   OH261843   5.533   3.113   2.940  0.0639  0.7071  0.7335
13451TIP3    H161844   5.604   3.102   3.003  0.5837  0.0857  0.0519
13451TIP3    H261845   5.508   3.024   2.916  1.5427  0.9102 -1.7510
13452TIP3   OH261846   0.764   5.749  11.714  0.4025 -0.3042  1.1504
13452TIP3    H161847   0.774   5.827  11.660  3.0803 -0.6672  1.0853
13452TIP3    H261848   0.732   5.682  11.654 -2.2398  0.7830  1.2748
13453TIP3   OH261849   3.237   6.668  11.277  0.3417 -0.2620 -0.3738
13453TIP3    H161850   3.319   6.686  11.232  1.3923 -3.3145  0.2127
13453TIP3    H261851   3.176   6.642  11.207 -0.0470  1.6116 -0.7598
13454TIP3   OH261852   0.962   5.418   0.740 -0.4815 -0.2937  0.3995
13454TIP3    H161853   1.002   5.379   0.662 -1.7452 -0.6100 -0.1087
13454TIP3    H261854   0.872   5.385   0.739 -0.3946 -0.5946  2.2149
13455TIP3   OH261855   0.595   3.328  10.468  0.2607 -0.3260 -0.4040
13455TIP3    H161856   0.606   3.384  10.392  0.2305 -0.3563 -0.4302
13455TIP3    H261857   0.559   3.386  10.536  0.6238 -0.2207 -0.3043
13456TIP3   OH261858   3.923   3.264  12.192  0.0983  0.6371 -0.5031
13456TIP3    H161859   3.856   3.196  12.199  1.1878 -0.3997 -0.0461
13456TIP3    H261860   3.906   3.322  12.266  0.9916 -0.7854  0.8397
13457TIP3   OH261861   0.531   0.377   2.397  0.2528 -0.0896  0.2154
13457TIP3    H161862   0.454   0.411   2.443 -0.7937 -2.4951  0.2897
13457TIP3    H261863   0.498   0.304   2.345  2.2526 -0.2790 -0.8205
13458TIP3   OH261864   1.056   5.074   0.757  0.4867  0.0971 -0.3253
13458TIP3    H161865   0.984   5.011   0.747  0.3041  0.2232  0.1581
13458TIP3    H261866   1.034   5.144   0.695  0.9403 -0.5329 -1.2101
13459TIP3   OH261867   6.695   5.762   2.969 -0.8039 -0.1666  0.2434
13459TIP3    H161868   6.761   5.692   2.973 -1.8826 -1.2590 -0.5535
13459TIP3    H261869   6.690   5.783   2.875 -0.3433  1.1258  0.5055
13460TIP3   OH261870   6.479   0.827   3.796  0.1475  0.2998 -0.1022
13460TIP3    H161871   6.519   0.914   3.787  0.1130  0.3137 -0.1205
13460TIP3    H261872   6.433   0.814   3.714  1.4186 -0.3854 -0.7216
13461TIP3   OH261873   0.617   4.598  10.301  0.1097 -0.1151  0.0526
13461TIP3    H161874   0.704   4.630  10.274  0.3043  0.1350  0.9374
13461TIP3    H261875   0.634   4.511  10.337  0.1779  0.4283  1.3468
13462TIP3   OH261876   2.209   4.060   3.252  0.3004  0.2795 -0.0584
13462TIP3    H161877   2.120   4.042   3.282  0.7471 -1.7095  0.1038
13462TIP3    H261878   2.228   3.992   3.188  2.4047 -0.4632  1.3081
13463TIP3   OH261879   2.020   6.469   2.170 -0.2971  0.1754  0.0916
13463TIP3    H161880   2.065   6.552   2.189  0.1501 -0.4103  1.6877
13463TIP3    H261881   2.071   6.403   2.217 -2.4268 -0.6068  1.3610
13464TIP3   OH261882   6.277   0.356   5.607  0.1527  0.0189 -0.1001
13464TIP3    H161883   6.189   0.379   5.636 -0.8237  1.2581 -3.7394
13464TIP3    H261884   6.326   0.437   5.611 -0.5452  0.7020 -3.5043
13465TIP3   OH261885   6.369   3.876   0.602 -0.3708 -0.9231  0.2376
13465TIP3    H161886   6.302   3.811   0.620 -0.0294 -0.5470  2.9939
13465TIP3    H261887   6.326   3.938   0.542 -1.9707 -1.5375  0.7231
13466TIP3   OH261888   0.299   0.265  14.018 -0.1614 -0.8206 -0.2107
13466TIP3    H161889   0.366   0.231  13.959 -0.2895 -1.3844 -0.0406
13466TIP3    H261890   0.286   0.194  14.081  0.3191 -0.0440  0.7747
13467TIP3   OH261891   5.600   2.577  15.395  0.3484  0.5558 -0.0074
13467TIP3    H161892   5.524   2.635  15.410  0.3301 -0.1853  3.1922
13467TIP3    H261893   5.658   2.629  15.340 -1.3114  2.1843 -0.3176
13468TIP3   OH261894   3.745   1.075   5.100  0.0940 -0.1914  0.1264
13468TIP3    H161895   3.771   0.993   5.057 -1.3628 -0.8489  0.4664
13468TIP3    H261896   3.678   1.113   5.042  1.0781  0.9985 -0.2563
13469TIP3   OH261897   4.994   0.295   2.592  0.0476 -0.8513 -0.7255
13469TIP3    H161898   5.055   0.292   2.519  0.2728 -0.9823 -0.5346
13469TIP3    H261899   4.950   0.210   2.591  0.8996 -1.3041  0.0090
13470TIP3   OH261900   0.497   4.878   5.718 -0.2974  0.2724 -1.5102
13470TIP3    H161901   0.584   4.892   5.755  0.1189 -1.2405 -1.8718
13470TIP3    H261902   0.513   4.836   5.634 -1.3504  0.6797 -1.9201
13471TIP3   OH261903   5.845   6.392  13.199 -0.2226 -0.9904 -0.2456
13471TIP3    H161904   5.885   6.433  13.122  0.6066 -0.8802  0.2395
13471TIP3    H261905   5.813   6.307  13.167  1.7340 -1.7312 -0.3183
13472TIP3   OH261906   2.985   5.263   6.407 -0.3334  0.2116  0.0505
13472TIP3    H161907   3.067   5.233   6.445 -1.3772 -0.3059  1.9663
13472TIP3    H261908   2.924   5.190   6.421 -1.1610  0.6227 -1.2593
13473TIP3   OH261909   1.602   3.338  16.461 -0.2646  0.6010 -0.3410
13473TIP3    H161910   1.619   3.290  16.542  0.7618 -0.4131 -1.1273
13473TIP3    H261911   1.590   3.270  16.395  1.0179  1.4110 -1.4424
13474TIP3   OH261912   6.134   2.080   3.252 -0.3497  0.5044 -0.2979
13474TIP3    H161913   6.070   2.097   3.321  1.3586  0.9287  1.2179
13474TIP3    H261914   6.128   2.156   3.194 -2.4829 -0.3073 -1.2089
13475TIP3   OH261915   5.676   0.288  13.765 -0.1132  0.2677 -0.2763
13475TIP3    H161916   5.622   0.314  13.839 -0.9741  1.0989 -1.1936
13475TIP3    H261917   5.636   0.207  13.734  0.0496  0.1007 -0.0613
13476TIP3   OH261918   2.464   1.503  11.697 -0.3383 -0.7860  0.3767
13476TIP3    H161919   2.462   1.591  11.734  1.0055 -1.4570  2.1473
13476TIP3    H261920   2.456   1.516  11.603  1.8164  1.3841  0.4406
13477TIP3   OH261921   3.775   3.273   2.877  0.1862 -0.2112  0.2131
13477TIP3    H161922   3.867   3.248   2.878  1.2627  3.3884  0.6649
13477TIP3    H261923   3.757   3.292   2.784  0.4435  0.7944  0.3597
13478TIP3   OH261924   4.786   4.475   0.098 -0.0396  0.3301 -0.0732
13478TIP3    H161925   4.768   4.521   0.016 -1.0146 -0.6781 -0.4307
13478TIP3    H261926   4.882   4.470   0.102 -0.0051 -0.9181 -1.8959
13479TIP3   OH261927   6.346   6.589   1.477  0.0559  0.1457 -0.2590
13479TIP3    H161928   6.265   6.588   1.427 -0.1822  0.5292  0.1196
13479TIP3    H261929   6.389   6.506   1.455 -2.0121 -1.6460  2.1307
13480TIP3   OH261930   2.298   6.604  13.374  0.1271  0.3161  0.0829
13480TIP3    H161931   2.204   6.591  13.363  0.2849  0.2188 -1.3516
13480TIP3    H261932   2.331   6.613  13.284  1.8897 -2.4034  0.3997
13481TIP3   OH261933   2.751   1.153   1.859  0.0267  0.7225  0.1594
13481TIP3    H161934   2.765   1.059   1.850  1.3705  1.0469 -1.3333
13481TIP3    H261935   2.663   1.169   1.822  0.1372  0.1734 -0.3348
13482TIP3   OH261936   6.695   4.299  12.862 -0.2877 -0.5873 -0.2177
13482TIP3    H161937   6.765   4.355  12.897  0.0544 -1.0253 -0.1939
13482TIP3    H261938   6.624   4.360  12.840 -0.2252 -0.2281  0.5505
13483TIP3   OH261939   6.210   4.297  14.108  0.0473  0.0877 -0.2743
13483TIP3    H161940   6.154   4.291  14.031  0.9021 -0.8493 -0.8274
13483TIP3    H261941   6.231   4.391  14.115  0.0433  0.1619 -1.2337
13484TIP3   OH261942   3.628   3.294  13.892 -0.1775 -0.0367  0.4422
13484TIP3    H161943   3.600   3.360  13.954  2.4128  0.8276  0.7276
13484TIP3    H261944   3.670   3.226  13.945  1.8511  0.6016 -0.2983
13485TIP3   OH261945   3.231   3.626  12.043 -0.0353 -0.3734  0.2318
13485TIP3    H161946   3.303   3.661  12.095  1.8873 -2.2028 -1.1146
13485TIP3    H261947   3.246   3.662  11.955 -1.2107 -0.1603  0.1135
13486TIP3   OH261948   6.040   5.496  17.090 -0.4119 -0.2618 -0.1038
13486TIP3    H161949   6.131   5.509  17.116 -0.7976  0.0860  1.0877
13486TIP3    H261950   5.992   5.489  17.172 -1.3823 -1.0613 -0.7161
13487TIP3   OH261951   5.609   0.349  13.453  0.5535 -0.1460 -0.3223
13487TIP3    H161952   5.633   0.281  13.389 -0.5110 -0.5016 -0.3567
13487TIP3    H261953   5.626   0.308  13.538  3.1157  0.7479 -0.3503
13488TIP3   OH261954   3.762   3.448  17.238 -0.5327  0.0622  0.3916
13488TIP3    H161955   3.814   3.384  17.190 -1.0463 -0.3376  0.3763
13488TIP3    H261956   3.745   3.408  17.323  0.8277  0.9898  1.1168
13489TIP3   OH261957   4.767   0.255  13.852 -0.6799  0.4869 -0.1250
13489TIP3    H161958   4.704   0.219  13.914 -1.6986  1.2238 -0.7149
13489TIP3    H261959   4.809   0.327  13.900  0.4455 -0.6455  0.6114
13490TIP3   OH261960   1.118   4.828  14.789 -0.2473  0.1920 -0.0499
13490TIP3    H161961   1.063   4.780  14.727 -0.5836  0.9380 -0.3360
13490TIP3    H261962   1.147   4.906  14.741  0.6639  0.0473  0.2579
13491TIP3   OH261963   3.651   1.273   0.780 -0.1131 -0.6225 -0.4151
13491TIP3    H161964   3.626   1.275   0.872  0.6808  0.1355 -0.2086
13491TIP3    H261965   3.569   1.287   0.732 -0.1271  1.7274  0.2503
13492TIP3   OH261966   6.214   5.398   2.089  0.1683  0.2650  0.1543
13492TIP3    H161967   6.235   5.308   2.115 -0.3317 -0.6367 -2.4168
13492TIP3    H261968   6.193   5.443   2.171  0.3159 -1.9848  1.4574
13493TIP3   OH261969   4.394   0.160   3.649  0.6762 -0.0122 -0.2019
13493TIP3    H161970   4.373   0.250   3.673 -0.9679 -0.8371  1.6143
13493TIP3    H261971   4.473   0.140   3.699  0.8288  0.2921 -0.3169
13494TIP3   OH261972   6.680   6.130   4.086 -0.0397  0.5053  0.0211
13494TIP3    H161973   6.586   6.142   4.070 -0.1849 -0.1127  0.3760
13494TIP3    H261974   6.708   6.212   4.125 -0.0400  1.3835 -1.8182
13495TIP3   OH261975   0.518   6.312  16.132 -0.2220 -0.1981  0.2491
13495TIP3    H161976   0.566   6.236  16.100  1.8422  0.7831  0.9237
13495TIP3    H261977   0.509   6.369  16.056 -1.3501 -0.8822 -0.1431
13496TIP3   OH261978   0.574   3.946  14.676  0.3026  0.5363  0.3076
13496TIP3    H161979   0.576   3.982  14.587 -0.9111 -0.5548 -0.1735
13496TIP3    H261980   0.592   3.852  14.664 -0.9924  0.1781  1.0990
13497TIP3   OH261981   6.288   4.231  12.605  0.0714  0.1652 -0.4303
13497TIP3    H161982   6.287   4.145  12.646 -1.2388  0.8954  1.1067
13497TIP3    H261983   6.348   4.283  12.658  0.0674  0.4872 -0.7363
13498TIP3   OH261984   3.741   3.219  15.126  0.6880 -0.0149 -0.1923
13498TIP3    H161985   3.677   3.207  15.056 -0.5446 -1.5352  1.1575
13498TIP3    H261986   3.820   3.177  15.093  0.4804  0.3314 -1.1560
13499TIP3   OH261987   6.424   0.333   4.338  0.5440  0.3047  0.4268
13499TIP3    H161988   6.487   0.265   4.365 -1.3765 -1.6019  0.2343
13499TIP3    H261989   6.367   0.344   4.414 -1.2795 -0.8335 -0.7339
13500TIP3   OH261990   6.168   5.203  16.890 -0.2975 -0.2583  0.5047
13500TIP3    H161991   6.236   5.247  16.940  0.3198  0.6975 -1.1460
13500TIP3    H261992   6.194   5.111  16.890  0.8912  0.0647  0.0983
13501TIP3   OH261993   6.083   1.328  14.235 -0.0574  0.5281  0.0838
13501TIP3    H161994   5.999   1.289  14.261  0.4442 -1.2878 -0.9615
13501TIP3    H261995   6.067   1.362  14.147 -0.1281  1.5977  0.5011
13502TIP3   OH261996   4.248   0.085  17.174 -0.2159 -0.3372  1.0541
13502TIP3    H161997   4.262   0.175  17.142 -1.7442 -1.1594 -2.0927
13502TIP3    H261998   4.334   0.043  17.165  0.6264  0.8914  2.9871
13503TIP3   OH261999   6.474   6.575   2.529  0.2760  0.1252 -0.1654
13503TIP3    H162000   6.390   6.614   2.553  0.0826 -0.5557  0.2846
13503TIP3    H262001   6.540   6.631   2.571 -0.0161 -0.3269  0.9130
13504TIP3   OH262002   4.967   1.479   5.831  0.0785 -0.0007  0.5780
13504TIP3    H162003   4.931   1.547   5.773  2.7104  1.9955  1.1884
13504TIP3    H262004   4.932   1.500   5.918 -1.2228 -1.0417  0.3276
13505TIP3   OH262005   3.653   3.425   5.067  0.1100 -0.2305  0.8800
13505TIP3    H162006   3.647   3.371   5.146  2.2039 -0.1989  1.0850
13505TIP3    H262007   3.642   3.515   5.099  2.8291 -0.0493  1.4629
13506TIP3   OH262008   3.172   4.033  12.640  1.2735  0.2308  0.4545
13506TIP3    H162009   3.124   3.956  12.608 -0.9803  1.0923  1.6368
13506TIP3    H262010   3.195   4.081  12.560 -0.9984  0.4417 -0.1370
13507TIP3   OH262011   5.928   3.824   3.053  0.7716  0.2717 -0.1515
13507TIP3    H162012   5.847   3.821   3.002  1.2850  0.4591 -0.9891
13507TIP3    H262013   5.944   3.734   3.078 -0.3357  0.3835  1.0536
13508TIP3   OH262014   0.416   1.489  12.570 -0.0126  0.0495 -0.3234
13508TIP3    H162015   0.438   1.455  12.656 -1.2694 -0.6374 -0.2515
13508TIP3    H262016   0.416   1.584  12.580 -4.7678 -0.0188  1.6988
13509TIP3   OH262017   6.439   5.715  15.483 -0.0360 -0.0337 -0.5069
13509TIP3    H162018   6.361   5.680  15.527 -0.2224  0.1532 -0.6947
13509TIP3    H262019   6.497   5.740  15.555 -0.0200 -0.4586 -0.3688
13510TIP3   OH262020   0.543   1.406  13.993 -0.0437 -0.1265  0.2917
13510TIP3    H162021   0.456   1.393  14.031 -0.8956 -0.2684 -1.6621
13510TIP3    H262022   0.569   1.494  14.021 -0.5609 -0.3109  1.3592
13511TIP3   OH262023   4.173   5.559   4.786 -0.2517 -0.6650 -0.5736
13511TIP3    H162024   4.170   5.466   4.767  0.6639 -0.7427 -0.3590
13511TIP3    H262025   4.228   5.596   4.717 -0.6907 -0.2617 -0.7167
13512TIP3   OH262026   2.158   2.164   1.781 -0.2920 -0.3815 -0.0631
13512TIP3    H162027   2.167   2.249   1.738 -0.2178 -0.5032 -0.2874
13512TIP3    H262028   2.087   2.121   1.733  0.3949 -0.8771 -0.6464
13513TIP3   OH262029   6.103   2.882  11.324  0.6499 -0.3834  0.1612
13513TIP3    H162030   6.011   2.895  11.347  1.1069 -1.3581  2.6915
13513TIP3    H262031   6.108   2.907  11.232 -2.2178 -0.6811 -0.1255
13514TIP3   OH262032   0.310   1.118   3.147 -0.5055  0.2906 -0.0556
13514TIP3    H162033   0.337   1.086   3.233 -1.4904  1.2915  0.6419
13514TIP3    H262034   0.377   1.084   3.087  1.3281  1.2773  1.3727
13515TIP3   OH262035   3.109   3.578  13.226  0.8448 -0.0680  0.6424
13515TIP3    H162036   3.166   3.537  13.290  0.7508  1.5566  1.8029
13515TIP3    H262037   3.168   3.621  13.164  0.9135 -0.5232  0.3908
13516TIP3   OH262038   0.282   3.433   4.694 -0.3554  0.0806 -0.6707
13516TIP3    H162039   0.284   3.339   4.713  0.1780 -0.3000 -2.4851
13516TIP3    H262040   0.374   3.457   4.684 -0.4448  0.9848  0.6176
13517TIP3   OH262041   3.293   6.010   4.648  0.1302  0.2720 -0.1887
13517TIP3    H162042   3.215   5.968   4.612  0.1550  0.0743 -0.0179
13517TIP3    H262043   3.281   6.103   4.632  0.4604  0.1224 -1.3178
13518TIP3   OH262044   6.800   4.107  12.067 -0.1987  0.1818 -0.0689
13518TIP3    H162045   6.737   4.097  12.139 -0.5066  0.7392 -0.2600
13518TIP3    H262046   6.750   4.150  11.998  0.1260 -0.2729 -0.5847
13519TIP3   OH262047   6.173   2.822   4.623 -0.0930  0.0448 -0.2325
13519TIP3    H162048   6.182   2.791   4.713 -2.7195  2.0046  0.7468
13519TIP3    H262049   6.122   2.754   4.579  1.5858 -1.1395 -0.4097
13520TIP3   OH262050   4.934   0.043  12.421  0.4558  0.1515  0.3422
13520TIP3    H162051   4.979  -0.030  12.379 -0.8556  0.3359 -1.4529
13520TIP3    H262052   4.917   0.013  12.510  0.9397 -1.2978 -0.0462
13521TIP3   OH262053   3.664   4.649   0.611 -0.6586 -0.1647  0.0393
13521TIP3    H162054   3.639   4.611   0.695 -1.3636 -0.2758 -0.2146
13521TIP3    H262055   3.749   4.689   0.627 -0.6337 -0.4829  0.7174
13522TIP3   OH262056   3.856   3.475  12.366 -0.5005 -0.2706  0.6528
13522TIP3    H162057   3.891   3.466  12.455 -2.5330  1.6541  1.6617
13522TIP3    H262058   3.775   3.424  12.367 -0.4053 -0.4416 -0.1707
13523TIP3   OH262059   2.427   5.671   4.846  0.2164  0.8572 -0.7279
13523TIP3    H162060   2.412   5.581   4.817  0.0152  0.4982  0.4259
13523TIP3    H262061   2.353   5.720   4.812 -0.3936  0.3064 -0.2261
13524TIP3   OH262062   1.073   4.780   0.358 -0.2465  0.0767  0.0921
13524TIP3    H162063   0.995   4.728   0.376 -0.4417  0.4521  0.3522
13524TIP3    H262064   1.144   4.731   0.398 -0.4300  0.0128  0.3465
13525TIP3   OH262065   6.339   3.926  11.875  0.1608 -0.3385 -0.0947
13525TIP3    H162066   6.265   3.887  11.829  1.5647 -2.9182 -0.2423
13525TIP3    H262067   6.375   3.990  11.814  0.0997 -1.5054 -1.3777
13526TIP3   OH262068   2.808   5.862   0.799  0.5278  0.5385  0.1177
13526TIP3    H162069   2.774   5.903   0.879  1.8189 -1.8694  1.9569
13526TIP3    H262070   2.743   5.796   0.776  2.2477 -1.8242  1.7838
13527TIP3   OH262071   0.401   0.092   4.375  0.1782  0.2045 -0.1268
13527TIP3    H162072   0.409   0.170   4.321 -0.0561 -0.3398 -0.9529
13527TIP3    H262073   0.315   0.057   4.353  0.0384  0.0350  0.6749
13528TIP3   OH262074   0.402   3.903   2.487 -0.3585 -0.0446  0.4751
13528TIP3    H162075   0.490   3.914   2.453 -0.9496 -0.3911 -1.1843
13528TIP3    H262076   0.408   3.930   2.579  1.3767  0.2823  0.2688
13529TIP3   OH262077   1.016   2.099   2.103  0.0820 -0.3696  0.0642
13529TIP3    H162078   0.935   2.131   2.144 -1.0410 -1.7068 -1.0619
13529TIP3    H262079   1.075   2.174   2.106 -2.4289  1.8194 -2.3275
13530TIP3   OH262080   5.583   2.531  13.752  0.0520 -0.6727 -0.2225
13530TIP3    H162081   5.520   2.471  13.710 -1.2035 -0.6005  1.5039
13530TIP3    H262082   5.530   2.606  13.778  1.0205 -0.2498  0.5380
13531TIP3   OH262083   4.803   6.060   0.974  0.1967  0.1910  0.0337
13531TIP3    H162084   4.891   6.097   0.969  0.5795 -0.9257 -1.9497
13531TIP3    H262085   4.763   6.081   0.889 -0.8142 -0.8661  0.2376
13532TIP3   OH262086   5.593   0.725   2.048 -0.7359 -0.1279 -0.4890
13532TIP3    H162087   5.647   0.729   2.127  0.8311  0.3252 -1.5457
13532TIP3    H262088   5.607   0.810   2.005 -2.3643  0.0221 -0.7488
13533TIP3   OH262089   0.733   5.764  13.765 -0.2280  0.2126  0.0889
13533TIP3    H162090   0.827   5.756  13.780 -0.3203  1.3676  1.3529
13533TIP3    H262091   0.725   5.834  13.700 -0.1665 -0.6825 -0.9050
13534TIP3   OH262092   2.283   4.037  13.977  0.4820  0.2022  0.4436
13534TIP3    H162093   2.279   4.130  13.954 -1.3675 -0.0487 -0.3656
13534TIP3    H262094   2.218   3.995  13.919  0.0111 -1.3339  2.0229
13535TIP3   OH262095   5.293   3.195   5.146 -0.2507  0.0238  0.4395
13535TIP3    H162096   5.353   3.132   5.106 -1.4209 -1.9539  1.6835
13535TIP3    H262097   5.274   3.158   5.232 -0.0182  2.7374  1.7229
13536TIP3   OH262098   0.220   4.439  15.350  0.1114  0.4155  0.3820
13536TIP3    H162099   0.250   4.361  15.397  0.7246  1.5162  1.8120
13536TIP3    H262100   0.236   4.512  15.409  2.8987  2.1125 -2.3129
13537TIP3   OH262101   3.866   3.704  16.334  0.2904 -0.2641  0.8587
13537TIP3    H162102   3.858   3.799  16.329  0.1237 -0.1885  2.2490
13537TIP3    H262103   3.915   3.689  16.415  1.7162 -1.3093 -0.1780
13538TIP3   OH262104   3.100   4.514  12.881  0.4778  0.2256 -0.5395
13538TIP3    H162105   3.040   4.583  12.852 -0.5200 -0.0422  0.8226
13538TIP3    H262106   3.107   4.455  12.806  1.0769  1.6264 -1.5960
13539TIP3   OH262107   5.787   2.343   0.204 -0.5151  0.0006 -0.5780
13539TIP3    H162108   5.740   2.349   0.120 -0.8147  1.2722 -0.3300
13539TIP3    H262109   5.820   2.253   0.206 -0.9659 -0.2108 -1.8165
13540TIP3   OH262110   1.957   5.011  13.786  0.4390 -0.4021  0.8074
13540TIP3    H162111   1.985   5.052  13.704 -0.4189  0.5924  1.0062
13540TIP3    H262112   1.962   5.081  13.851  2.5980 -1.5520  1.9525
13541TIP3   OH262113   2.705   5.469  10.999 -0.0552  0.1156 -0.6089
13541TIP3    H162114   2.730   5.494  10.910 -0.5484  1.2850 -0.4238
13541TIP3    H262115   2.621   5.514  11.013 -0.4708 -0.8637  0.0828
13542TIP3   OH262116   1.554   5.226   4.990  0.2592  0.3411  0.0836
13542TIP3    H162117   1.566   5.319   4.968 -0.3651  0.0926 -1.3740
13542TIP3    H262118   1.613   5.180   4.931  0.5437 -0.2058  0.7826
13543TIP3   OH262119   4.463   2.674   5.408  0.0397 -0.7150 -0.2511
13543TIP3    H162120   4.419   2.759   5.402  0.2909 -0.5688 -0.0278
13543TIP3    H262121   4.518   2.670   5.330 -0.3425 -0.8834 -0.5125
13544TIP3   OH262122   0.830   4.187  13.537 -0.1653 -0.1329 -0.5792
13544TIP3    H162123   0.922   4.171  13.556 -0.9668 -2.2889  1.8032
13544TIP3    H262124   0.794   4.224  13.618 -1.3676  0.8318 -1.5289
13545TIP3   OH262125   0.051   2.687   0.651  0.9146  0.2128  0.2043
13545TIP3    H162126   0.113   2.642   0.593  1.2544 -0.2512  0.9224
13545TIP3    H262127   0.102   2.707   0.729 -0.0699 -0.9937  1.1754
13546TIP3   OH262128   0.330   4.139   4.591 -0.3993  0.1211  0.5858
13546TIP3    H162129   0.306   4.071   4.527  1.7802  0.8667 -1.1144
13546TIP3    H262130   0.345   4.091   4.672  0.8074 -1.4415 -0.5223
13547TIP3   OH262131   0.101   4.586   0.059  0.2257 -0.3251 -0.1805
13547TIP3    H162132   0.029   4.645   0.035  0.4683  0.3947  0.8597
13547TIP3    H262133   0.098   4.517  -0.007 -0.2723  0.6723 -1.2073
13548TIP3   OH262134   0.560   3.453  15.173 -0.6598  0.0405  0.0240
13548TIP3    H162135   0.504   3.510  15.227 -1.3057 -0.7848  0.2433
13548TIP3    H262136   0.628   3.423  15.233 -0.3881  0.4852 -0.0601
13549TIP3   OH262137   2.750   0.851  14.636  0.0651  0.1867 -0.2009
13549TIP3    H162138   2.817   0.800  14.590  0.3806  0.1070  0.3393
13549TIP3    H262139   2.795   0.931  14.662  0.0433  0.0073  0.4210
13550TIP3   OH262140   2.467   6.720  14.716 -0.8523  0.3701  0.6452
13550TIP3    H162141   2.461   6.702  14.810  0.3236  1.2083  0.9007
13550TIP3    H262142   2.556   6.693  14.693 -1.5707 -1.0816 -0.5220
13551TIP3   OH262143   2.225   0.648  12.990 -0.5139 -0.1232  0.2671
13551TIP3    H162144   2.306   0.656  12.939  0.6973 -0.7661  2.0318
13551TIP3    H262145   2.199   0.738  13.006  0.0911  0.0975  0.0534
13552TIP3   OH262146   4.518   4.766   2.446 -0.0388  0.3439  0.6300
13552TIP3    H162147   4.586   4.731   2.389 -0.7858 -0.5934  0.3048
13552TIP3    H262148   4.554   4.760   2.534 -0.0080 -0.9056  0.5408
13553TIP3   OH262149   0.666   2.745  16.959 -0.0115  0.5392  0.0956
13553TIP3    H162150   0.608   2.707  16.892 -0.0002 -0.8039  0.8403
13553TIP3    H262151   0.735   2.680  16.970 -1.5156 -0.5667  3.4610
13554TIP3   OH262152   2.592   5.590  15.037 -0.1705 -0.1806  0.1345
13554TIP3    H162153   2.603   5.502  15.074  2.7831 -0.6290 -1.7019
13554TIP3    H262154   2.666   5.640  15.071 -0.3074  0.8334 -1.0328
13555TIP3   OH262155   0.063   0.326   2.245  0.4548  0.1232  0.7705
13555TIP3    H162156   0.028   0.326   2.156 -1.1813  0.4679  1.3897
13555TIP3    H262157   0.124   0.400   2.248 -0.4825  0.9256  0.3014
13556TIP3   OH262158   5.183   0.095   0.167  0.1392 -0.2211 -0.3876
13556TIP3    H162159   5.134   0.013   0.158 -1.1492  0.5919 -1.0292
13556TIP3    H262160   5.195   0.106   0.261 -1.1991 -0.2719 -0.2059
13557TIP3   OH262161   1.881   3.574   0.306 -0.6387 -0.5580  0.5396
13557TIP3    H162162   1.951   3.523   0.267  0.0267  0.3504  0.5434
13557TIP3    H262163   1.832   3.511   0.359 -1.0097 -1.6102 -1.0221
13558TIP3   OH262164   5.519   5.479  16.153 -0.0972  0.4741  0.1900
13558TIP3    H162165   5.603   5.511  16.184  2.6081 -1.7751 -4.2146
13558TIP3    H262166   5.476   5.555  16.115  1.1814  1.1220  0.0386
13559TIP3   OH262167   1.314   0.229   6.207  0.3676  0.0858 -0.6984
13559TIP3    H162168   1.219   0.220   6.200  0.3337  0.3655 -0.6255
13559TIP3    H262169   1.348   0.183   6.130  0.1152  0.9647 -1.3462
13560TIP3   OH262170   6.523   4.757  16.070 -0.2296  1.0574  0.2933
13560TIP3    H162171   6.592   4.746  16.005 -0.2767  0.8949  0.2718
13560TIP3    H262172   6.464   4.684  16.055  0.0636  0.6891  0.9010
13561TIP3   OH262173   5.802   0.028  12.344  0.3210  0.2212  0.2732
13561TIP3    H162174   5.846   0.082  12.410  0.4055 -0.4466  0.7693
13561TIP3    H262175   5.856   0.036  12.266 -0.0756  1.4633  0.1009
13562TIP3   OH262176   6.153   0.177   6.074 -0.2927 -0.1491 -0.6520
13562TIP3    H162177   6.148   0.088   6.040  0.6425  0.0653 -1.3597
13562TIP3    H262178   6.072   0.218   6.044 -1.0236 -0.9458  0.2148
13563TIP3   OH262179   0.415   1.616   4.649 -0.4182 -0.4321 -0.1738
13563TIP3    H162180   0.497   1.655   4.621 -0.0957 -0.0570  1.2527
13563TIP3    H262181   0.402   1.542   4.590 -0.1854  0.8193 -1.8149
13564TIP3   OH262182   3.026   1.247   1.896 -0.1470 -0.6059  0.3399
13564TIP3    H162183   3.068   1.186   1.955  0.9672 -1.3398 -1.1911
13564TIP3    H262184   2.941   1.208   1.877 -1.6991  0.9843  3.6004
13565TIP3   OH262185   3.385   4.895   0.742 -0.2174 -0.2443 -0.8951
13565TIP3    H162186   3.333   4.954   0.797 -0.5802 -0.7507 -0.6900
13565TIP3    H262187   3.475   4.916   0.765 -0.3676 -0.5387 -0.0090
13566TIP3   OH262188   3.802   0.400   2.214  0.0176  0.1025  0.4686
13566TIP3    H162189   3.805   0.495   2.203 -1.0791  0.1001  0.1300
13566TIP3    H262190   3.785   0.388   2.307  0.9103  0.2160  0.6585
13567TIP3   OH262191   2.941   4.507  17.279  0.2959  0.3786 -0.0337
13567TIP3    H162192   2.957   4.478  17.190  0.2262 -0.3083  0.1743
13567TIP3    H262193   2.852   4.479  17.298  0.3777  0.3581  0.3207
13568TIP3   OH262194   6.789   4.014   0.353  0.1881 -0.3441 -0.3219
13568TIP3    H162195   6.845   3.936   0.347 -1.1794 -1.2784 -1.3622
13568TIP3    H262196   6.784   4.033   0.446 -1.4406 -3.0332  0.1983
13569TIP3   OH262197   4.854   2.603  10.707 -0.4822  0.0981  0.3463
13569TIP3    H162198   4.850   2.674  10.771 -1.1809 -0.5087  0.9947
13569TIP3    H262199   4.771   2.556  10.718  1.1166 -2.5042  1.8996
13570TIP3   OH262200   2.504   3.549   4.745 -0.0680  0.2680 -0.1539
13570TIP3    H162201   2.506   3.453   4.737  0.5196  0.2078  0.6627
13570TIP3    H262202   2.480   3.579   4.658  0.3397 -0.6043 -0.5826
13571TIP3   OH262203   3.176   6.347  10.966  0.9749 -0.4487  0.0426
13571TIP3    H162204   3.160   6.419  10.905  0.7896  0.2679  0.9262
13571TIP3    H262205   3.267   6.321  10.949  1.2559  0.4265  0.1698
13572TIP3   OH262206   2.619   4.537   3.154  0.0076  0.6762  0.2118
13572TIP3    H162207   2.532   4.574   3.170  0.0920  0.5811  0.8954
13572TIP3    H262208   2.652   4.587   3.079 -0.6281  0.7218 -0.0406
13573TIP3   OH262209   1.164   2.091   1.023 -0.3769  0.4174 -0.2100
13573TIP3    H162210   1.105   2.026   0.985  1.3693 -1.1203 -0.3479
13573TIP3    H262211   1.201   2.048   1.100 -0.2015  1.7530  0.4804
13574TIP3   OH262212   6.784   3.874   5.172  0.0494  0.4734  0.1804
13574TIP3    H162213   6.760   3.911   5.257  1.3758  1.6953  0.0302
13574TIP3    H262214   6.795   3.949   5.115  0.9180 -0.2484 -0.6180
13575TIP3   OH262215   2.372   4.866  15.262  0.3762  0.2563  0.7251
13575TIP3    H162216   2.461   4.898  15.247  0.9096 -0.5597  2.0103
13575TIP3    H262217   2.332   4.864  15.176  1.9380 -0.3155 -0.0060
13576TIP3   OH262218   6.245   1.704   6.306 -0.5037  0.4850  0.4028
13576TIP3    H162219   6.241   1.732   6.397 -1.8763 -0.7286  0.7320
13576TIP3    H262220   6.177   1.754   6.262 -0.7331  0.0966  0.3154
13577TIP3   OH262221   3.456   5.211   2.530  0.6971  0.0700 -0.0292
13577TIP3    H162222   3.407   5.291   2.512  0.4646 -0.2299 -0.7619
13577TIP3    H262223   3.461   5.207   2.625  1.5610  1.4617  0.0001
13578TIP3   OH262224   5.463   2.878  12.259 -0.3614 -0.3300 -0.2545
13578TIP3    H162225   5.401   2.835  12.319  0.1140 -1.6751 -0.7048
13578TIP3    H262226   5.506   2.805  12.214 -1.7589  0.6518 -3.3147
13579TIP3   OH262227   1.773   3.340   0.422  0.0995 -0.2125 -0.3307
13579TIP3    H162228   1.718   3.368   0.495  2.1408  0.8956  0.8169
13579TIP3    H262229   1.801   3.251   0.446 -0.7258 -0.5669 -0.6595
13580TIP3   OH262230   0.661   2.899   6.278  0.1496  0.2211 -0.1058
13580TIP3    H162231   0.663   2.808   6.307 -0.9813  0.2058 -0.0413
13580TIP3    H262232   0.600   2.942   6.339  1.9568  1.4026  0.9167
13581TIP3   OH262233   3.531   0.058  13.710  0.4101 -0.0046  0.4198
13581TIP3    H162234   3.551   0.125  13.776  0.1973  1.2814 -0.8051
13581TIP3    H262235   3.578   0.087  13.632  0.0140 -1.0915 -0.2286
13582TIP3   OH262236   4.392   1.758   1.656 -0.4872  0.8505  0.1066
13582TIP3    H162237   4.340   1.837   1.645 -1.0770  0.0928 -2.9535
13582TIP3    H262238   4.333   1.695   1.697 -1.2782  0.7356 -1.1937
13583TIP3   OH262239   0.914   1.845   3.877  0.1163  0.4078  0.3665
13583TIP3    H162240   0.891   1.894   3.956  0.0080 -0.6793  1.0263
13583TIP3    H262241   0.952   1.910   3.818  1.4413  0.9985  1.8323
13584TIP3   OH262242   3.578   5.878  13.055  0.0692  0.3417 -0.2146
13584TIP3    H162243   3.517   5.812  13.021  0.4308  0.4454 -1.0790
13584TIP3    H262244   3.637   5.895  12.982  0.8892  0.5357  0.4902
13585TIP3   OH262245   6.715   2.865  10.568 -0.0685  1.1225  0.3102
13585TIP3    H162246   6.724   2.926  10.495  0.1349 -0.0528 -0.6550
13585TIP3    H262247   6.623   2.872  10.594 -0.5159  0.4740 -1.0288
13586TIP3   OH262248   0.532   1.157  15.585 -0.4648  0.1741  0.1857
13586TIP3    H162249   0.593   1.230  15.599 -0.9245  0.5233  0.3761
13586TIP3    H262250   0.471   1.189  15.519  0.8814 -0.9865 -1.6574
13587TIP3   OH262251   0.040   2.257  12.242 -0.5961  0.3360 -0.0324
13587TIP3    H162252   0.051   2.313  12.165 -1.9821  2.2501  1.1108
13587TIP3    H262253  -0.003   2.178  12.207  1.6316 -0.1812 -1.7089
13588TIP3   OH262254   0.148   2.278   5.750  0.1282 -0.0605 -0.3790
13588TIP3    H162255   0.220   2.332   5.719  0.2954 -0.2818 -0.3775
13588TIP3    H262256   0.110   2.327   5.823 -0.4974  0.6342 -1.1631
13589TIP3   OH262257   6.788   2.548   2.124  1.1601 -0.0363  0.4771
13589TIP3    H162258   6.692   2.546   2.119  1.1810 -1.7663  0.3833
13589TIP3    H262259   6.815   2.461   2.094  2.6711 -0.2736  2.4373
13590TIP3   OH262260   1.775   5.989   2.344 -0.4355  0.0453  0.6878
13590TIP3    H162261   1.762   5.900   2.376 -3.4549  0.1057 -0.2228
13590TIP3    H262262   1.718   6.043   2.399 -0.7957  1.0024 -0.5963
13591TIP3   OH262263   2.916   0.879  17.173  0.8129  0.2803  0.0700
13591TIP3    H162264   2.956   0.901  17.258  1.5988 -0.8580  0.0107
13591TIP3    H262265   2.825   0.860  17.194  0.9893  0.0558  0.6538
13592TIP3   OH262266   3.511   2.976   2.218  0.3758  0.1838 -0.0439
13592TIP3    H162267   3.447   2.936   2.277  0.5653 -0.7860 -0.4934
13592TIP3    H262268   3.554   3.042   2.272 -0.7637  0.6080  0.3606
13593TIP3   OH262269   5.578   0.134   1.234 -0.1029 -0.4665 -0.2036
13593TIP3    H162270   5.650   0.148   1.173  0.9050 -0.1422  1.0504
13593TIP3    H262271   5.516   0.079   1.186  1.2501 -1.2493 -1.0631
13594TIP3   OH262272   6.527   5.116   1.384  0.7542  0.4606 -0.5133
13594TIP3    H162273   6.586   5.044   1.405 -0.7828 -1.0265 -1.1660
13594TIP3    H262274   6.585   5.192   1.374  2.5500 -0.9431 -1.1161
13595TIP3   OH262275   2.293   3.054   4.914 -0.4715 -0.2835 -0.2748
13595TIP3    H162276   2.283   3.013   5.000  0.1476 -0.4945 -0.3008
13595TIP3    H262277   2.331   2.985   4.859  2.3173  0.8481  0.1430
13596TIP3   OH262278   4.643   1.633   5.815 -0.0851  0.1530  0.5748
13596TIP3    H162279   4.641   1.624   5.911  1.8786  0.1558  0.6441
13596TIP3    H262280   4.595   1.557   5.782  0.7887 -0.8257  1.5238
13597TIP3   OH262281   3.858   4.471  12.311  0.0597  0.2801  0.0529
13597TIP3    H162282   3.924   4.401  12.303  0.3783  0.7376 -1.5744
13597TIP3    H262283   3.902   4.539  12.363  0.8356  0.5178 -0.8897
13598TIP3   OH262284   4.665   6.427  13.563 -0.5425 -0.1351  0.1602
13598TIP3    H162285   4.622   6.427  13.478 -2.2759  2.2909  0.9859
13598TIP3    H262286   4.730   6.497  13.556  1.1441 -1.6801 -0.0149
13599TIP3   OH262287   2.960   3.534  16.255 -0.2267  0.0939 -0.6867
13599TIP3    H162288   2.897   3.476  16.297  0.3496 -0.8585 -1.1271
13599TIP3    H262289   2.950   3.617  16.301  1.2242 -1.2395  2.1589
13600TIP3   OH262290   1.942   4.476  15.564  0.1566  0.1457 -0.5031
13600TIP3    H162291   1.948   4.389  15.603  2.0638 -0.4513 -2.0405
13600TIP3    H262292   1.885   4.464  15.488 -0.7427  0.5506  0.1081
13601TIP3   OH262293   2.186   2.894  11.609  0.1154  0.0644  0.6186
13601TIP3    H162294   2.154   2.813  11.646  1.6492 -0.9550 -0.2156
13601TIP3    H262295   2.111   2.953  11.609 -0.3639 -0.5253  3.5358
13602TIP3   OH262296   0.344   5.990   3.291 -0.0930 -0.2597  0.0863
13602TIP3    H162297   0.287   6.042   3.348 -1.9277 -0.4069 -1.5721
13602TIP3    H262298   0.428   6.037   3.291 -1.0192  1.4164  0.4599
13603TIP3   OH262299   0.973   4.912  11.953  0.0726  0.0560  0.1390
13603TIP3    H162300   1.012   4.963  11.881  0.5774  1.1063  1.1416
13603TIP3    H262301   0.977   4.821  11.923 -1.1493  0.6269 -1.8253
13604TIP3   OH262302   3.423   3.887   0.228 -0.2013  0.3038 -0.5265
13604TIP3    H162303   3.405   3.904   0.320 -1.8895  0.1097 -0.8077
13604TIP3    H262304   3.423   3.792   0.220 -2.1184  0.3439 -1.1090
13605TIP3   OH262305   6.116   3.591  16.208 -0.5918  0.3861  0.4335
13605TIP3    H162306   6.158   3.671  16.238 -0.3750 -0.4319  2.4338
13605TIP3    H262307   6.167   3.520  16.248 -1.9469 -0.6882  0.3334
13606TIP3   OH262308   0.870   3.221   5.724 -0.1495 -0.0166 -0.2644
13606TIP3    H162309   0.886   3.316   5.729  1.9141 -0.2532 -1.6400
13606TIP3    H262310   0.809   3.203   5.795  0.4784  2.1477  0.8711
13607TIP3   OH262311   2.997   0.031  11.758  0.8697  0.0934 -0.5524
13607TIP3    H162312   2.941   0.008  11.684 -0.1747 -0.2481  0.3367
13607TIP3    H262313   2.936   0.052  11.829  1.8478 -1.2773  0.7320
13608TIP3   OH262314   0.945   4.264   1.119 -0.4634 -0.1236 -0.3864
13608TIP3    H162315   0.969   4.211   1.043  0.7040 -0.3760  0.1360
13608TIP3    H262316   0.999   4.342   1.112 -0.0567 -0.3262  0.3804
13609TIP3   OH262317   5.572   3.372  14.456 -0.1644  0.0849  0.0052
13609TIP3    H162318   5.581   3.278  14.474  0.7402  0.4359  1.4307
13609TIP3    H262319   5.558   3.377  14.361  1.8249 -1.3510 -0.3907
13610TIP3   OH262320   4.159   6.488   3.436 -0.2089 -0.1556 -0.0430
13610TIP3    H162321   4.254   6.477   3.439 -0.2630 -0.5689  0.1634
13610TIP3    H262322   4.142   6.568   3.486  0.1036  0.3891 -0.7961
13611TIP3   OH262323   0.796   2.625  15.599  0.2815  0.0470  0.8808
13611TIP3    H162324   0.750   2.614  15.683  0.5801 -1.3355  0.8718
13611TIP3    H262325   0.764   2.553  15.545 -1.0918  1.8175 -0.7636
13612TIP3   OH262326   6.235   3.512  13.124  1.0829 -0.7490  0.5132
13612TIP3    H162327   6.324   3.547  13.111  2.4768 -4.1821  0.3460
13612TIP3    H262328   6.240   3.464  13.206 -0.8628 -0.3732  0.8679
13613TIP3   OH262329   4.115   4.229  13.779  0.2883  0.4580  0.2612
13613TIP3    H162330   4.131   4.322  13.761  1.4670  0.3304  0.6432
13613TIP3    H262331   4.025   4.215  13.750  0.4966  1.4409 -0.9052
13614TIP3   OH262332   1.066   0.934  12.785 -0.4472  0.4245  0.0637
13614TIP3    H162333   1.086   0.843  12.804 -2.1163 -0.2269 -1.1621
13614TIP3    H262334   0.971   0.941  12.799 -0.5087  1.6982 -0.8989
13615TIP3   OH262335   3.213   5.100  13.870 -0.0087  0.3904 -0.1831
13615TIP3    H162336   3.219   5.124  13.962  0.1235  0.1827 -0.1376
13615TIP3    H262337   3.165   5.173  13.830 -0.4072  0.3005  0.1210
13616TIP3   OH262338   4.672   0.640   0.494 -0.4841  0.4452  0.2603
13616TIP3    H162339   4.596   0.582   0.490 -0.6680  0.6167  1.1278
13616TIP3    H262340   4.727   0.604   0.563  1.0341 -0.6218 -1.4689
13617TIP3   OH262341   0.189   5.434   3.951  0.4216  0.5499  0.0983
13617TIP3    H162342   0.236   5.517   3.941 -0.5985  1.1811  0.4806
13617TIP3    H262343   0.254   5.374   3.987  1.4700  0.8828 -1.2118
13618TIP3   OH262344   1.849   5.512  13.396 -0.5923 -0.1332 -0.4403
13618TIP3    H162345   1.847   5.524  13.301  0.4817  0.8069 -0.3509
13618TIP3    H262346   1.888   5.593  13.430 -0.0060 -0.8927  0.7354
13619TIP3   OH262347   3.631   5.948  11.528 -0.0905 -0.1948  0.1642
13619TIP3    H162348   3.555   5.930  11.583 -0.7287  2.2049  0.1361
13619TIP3    H262349   3.706   5.921  11.581 -0.7884  0.6242  1.6184
13620TIP3   OH262350   4.114   2.549  13.832 -0.1517  0.3267  0.2212
13620TIP3    H162351   4.110   2.589  13.919 -0.9477 -0.2691  0.4618
13620TIP3    H262352   4.083   2.459  13.845 -0.5521  0.3189 -0.7246
13621TIP3   OH262353   5.533   0.955   0.040 -0.1035 -0.3491 -0.2733
13621TIP3    H162354   5.507   1.046   0.024 -0.9342 -0.1921  1.7702
13621TIP3    H262355   5.616   0.945  -0.006  0.3287  1.6507  0.0196
13622TIP3   OH262356   1.017   1.929   1.820 -0.6504  0.1629  0.0448
13622TIP3    H162357   1.036   1.990   1.892  1.1440  0.5328 -0.7180
13622TIP3    H262358   1.019   1.983   1.741 -2.3255 -0.2961 -0.3120
13623TIP3   OH262359   6.275   5.319   4.702 -0.0734 -0.2141  0.1272
13623TIP3    H162360   6.210   5.384   4.729 -0.4174 -1.1258  1.5485
13623TIP3    H262361   6.278   5.257   4.774  1.0769 -1.1698 -0.7239
13624TIP3   OH262362   2.133   6.716  14.066 -0.2210 -0.0707 -0.0433
13624TIP3    H162363   2.185   6.675  14.135 -0.3606 -1.1515 -0.5870
13624TIP3    H262364   2.061   6.655  14.050 -1.3646  1.1483  0.3154
13625TIP3   OH262365   1.192   5.106   2.005 -0.0939  0.0174 -0.5437
13625TIP3    H162366   1.098   5.098   2.022  0.4528 -1.3879  2.0682
13625TIP3    H262367   1.211   5.034   1.945 -0.5788 -0.0357 -0.6385
13626TIP3   OH262368   5.672   4.961   4.907 -0.1610  0.3120  0.1868
13626TIP3    H162369   5.642   5.051   4.922  1.2488  0.6923  0.7484
13626TIP3    H262370   5.717   4.964   4.823  1.0542  0.4271  0.8338
13627TIP3   OH262371   5.910   6.734   3.481 -0.8221  0.3179  0.8561
13627TIP3    H162372   5.936   6.642   3.479 -0.2156  0.5034 -0.7994
13627TIP3    H262373   5.820   6.733   3.513 -0.2762 -0.6979  2.4539
13628TIP3   OH262374   4.927   0.773  12.611  0.6539 -0.1455 -0.1985
13628TIP3    H162375   4.896   0.728  12.690  2.3244 -2.0026 -0.5764
13628TIP3    H262376   5.015   0.803  12.634  0.8425 -0.0031 -1.1171
13629TIP3   OH262377   4.674   6.008  15.131  0.1340 -0.3550  0.5264
13629TIP3    H162378   4.677   5.975  15.041 -2.6387 -0.6960  0.4979
13629TIP3    H262379   4.607   6.077  15.129  0.1637 -0.2423  2.2880
13630TIP3   OH262380   1.552   3.515   4.763  0.2956 -0.6458 -0.1879
13630TIP3    H162381   1.539   3.569   4.841  0.9293  1.3422 -1.4462
13630TIP3    H262382   1.571   3.428   4.798 -0.0278  0.0815  1.8729
13631TIP3   OH262383   6.080   1.826  11.079 -0.0568 -0.2147  0.1792
13631TIP3    H162384   6.172   1.849  11.065 -0.2316  0.1520 -0.4078
13631TIP3    H262385   6.039   1.840  10.994 -0.3279 -1.9653  0.0116
13632TIP3   OH262386   4.007   3.870  16.087 -0.2002  0.5488  0.0976
13632TIP3    H162387   4.070   3.937  16.115  0.3827  0.8634 -1.8864
13632TIP3    H262388   3.923   3.902  16.120  0.2766  1.5668  0.3636
13633TIP3   OH262389   0.765   0.634  10.870  0.1850  0.0640  0.5488
13633TIP3    H162390   0.758   0.565  10.804 -0.3498  0.3858  0.2652
13633TIP3    H262391   0.675   0.664  10.882  0.5244  1.3058  0.0330
13634TIP3   OH262392   1.837   2.310   1.823 -0.0079 -0.0170  0.3449
13634TIP3    H162393   1.747   2.277   1.826 -0.3480  0.7492 -0.7563
13634TIP3    H262394   1.874   2.289   1.908 -1.1370 -0.6275  0.6920
13635TIP3   OH262395   1.472   1.410  17.132  0.0394 -0.2447 -0.7228
13635TIP3    H162396   1.514   1.329  17.159  2.1465  0.7606 -0.8627
13635TIP3    H262397   1.421   1.437  17.208  0.8539 -0.7162  0.0062
13636TIP3   OH262398   5.355   6.177  13.669  0.1548 -0.1061  0.2387
13636TIP3    H162399   5.366   6.114  13.598 -0.4765 -0.4920  0.4787
13636TIP3    H262400   5.358   6.263  13.626 -0.2245 -0.3358 -0.2525
13637TIP3   OH262401   6.189   5.971   4.671 -0.1457 -0.2937  0.5771
13637TIP3    H162402   6.242   5.963   4.750 -1.0074 -1.4431  1.0545
13637TIP3    H262403   6.247   6.014   4.607 -0.0625  2.4472  2.3860
13638TIP3   OH262404   1.112   2.217  15.811  0.6929  0.2369  0.3952
13638TIP3    H162405   1.025   2.187  15.785  1.1825  0.9304 -2.1471
13638TIP3    H262406   1.155   2.240  15.729  3.9543 -1.8290  1.4436
13639TIP3   OH262407   4.364   4.735   0.572 -0.5335  0.0852 -0.0383
13639TIP3    H162408   4.359   4.641   0.585  0.2350 -0.0593 -0.7587
13639TIP3    H262409   4.392   4.770   0.657  1.5160 -0.5608 -0.4320
13640TIP3   OH262410   2.776   1.934  15.604  0.1957 -0.3467 -0.4509
13640TIP3    H162411   2.857   1.883  15.606 -0.4890 -1.6215 -2.7596
13640TIP3    H262412   2.706   1.868  15.602 -0.7180  0.6174 -3.0307
13641TIP3   OH262413   1.751   6.089   4.130  0.0325 -0.3958  0.4510
13641TIP3    H162414   1.828   6.132   4.092 -0.0378 -2.1488 -1.8597
13641TIP3    H262415   1.785   6.043   4.207  1.1970 -0.5970 -0.1581
13642TIP3   OH262416   4.641   6.025   1.752  0.3046  0.3108  0.5911
13642TIP3    H162417   4.603   6.110   1.772 -0.6352  0.4161 -1.4973
13642TIP3    H262418   4.659   5.986   1.837 -3.2565  0.8257  1.6650
13643TIP3   OH262419   4.704   4.810  12.706  0.0974 -0.5435 -0.0120
13643TIP3    H162420   4.706   4.881  12.770  0.9945  0.9098 -1.6009
13643TIP3    H262421   4.795   4.801  12.678 -0.3050 -1.0527 -1.1809
13644TIP3   OH262422   4.847   4.117   2.535  0.6776 -0.2296 -0.0274
13644TIP3    H162423   4.753   4.113   2.553 -0.0440 -0.9376 -3.5739
13644TIP3    H262424   4.885   4.047   2.590 -1.1916 -1.5351 -0.3441
13645TIP3   OH262425   3.268   1.944  16.692 -0.4363 -0.4680 -0.1086
13645TIP3    H162426   3.313   2.028  16.699  2.0149 -1.5833 -1.7307
13645TIP3    H262427   3.178   1.967  16.669  0.5737  1.6825 -2.0990
13646TIP3   OH262428   6.571   3.351  13.025  0.4549  0.3065 -0.8441
13646TIP3    H162429   6.662   3.354  12.994  0.7031  1.4155 -0.0450
13646TIP3    H262430   6.573   3.290  13.099  1.2958  2.9847  1.4383
13647TIP3   OH262431   3.160   1.866   4.122  0.1328  0.3449  0.7406
13647TIP3    H162432   3.065   1.877   4.114  0.2124  0.1368 -0.4810
13647TIP3    H262433   3.197   1.933   4.066  0.7093  0.1192  0.8472
13648TIP3   OH262434   5.786   1.685  13.027 -0.3249  0.1928  0.1844
13648TIP3    H162435   5.860   1.674  13.087 -0.6327 -0.2166  0.4895
13648TIP3    H262436   5.783   1.604  12.976 -2.7204 -1.3153  2.5784
13649TIP3   OH262437   4.055   6.628  12.170 -0.0121  0.2388 -0.4402
13649TIP3    H162438   4.030   6.593  12.085  0.3801 -0.2157 -0.3674
13649TIP3    H262439   4.136   6.676  12.154  0.9048 -1.1392 -0.0463
13650TIP3   OH262440   5.972   0.075  16.187  0.0322 -0.0676  0.2819
13650TIP3    H162441   6.039   0.044  16.248  0.3246 -1.7248 -0.8805
13650TIP3    H262442   5.948   0.162  16.221  2.3665  0.3282  1.0142
13651TIP3   OH262443   3.807   2.384   1.594 -0.9101  0.6763 -0.1047
13651TIP3    H162444   3.768   2.329   1.662  0.1908  0.6475  0.5160
13651TIP3    H262445   3.831   2.465   1.639 -0.9912  1.0067 -0.6552
13652TIP3   OH262446   6.537   3.105   4.749 -0.5240  0.0808 -0.1271
13652TIP3    H162447   6.517   3.034   4.810 -0.8844  1.4235  1.3795
13652TIP3    H262448   6.500   3.183   4.792  2.6110  1.6728 -0.2140
13653TIP3   OH262449   0.739   2.179  16.631  0.0465 -0.0559 -0.3961
13653TIP3    H162450   0.685   2.257  16.636  0.7176  0.3702  0.4374
13653TIP3    H262451   0.789   2.189  16.550 -0.2024  0.1614 -0.5195
13654TIP3   OH262452   1.694   3.341  14.667 -0.1827 -0.1982 -0.9556
13654TIP3    H162453   1.635   3.391  14.722 -0.7141 -0.2089 -1.5086
13654TIP3    H262454   1.767   3.317  14.725 -1.4776 -1.5242  0.1527
13655TIP3   OH262455   3.715   6.396   1.122 -0.4394 -0.1181 -0.0283
13655TIP3    H162456   3.809   6.375   1.127 -0.3929 -0.3729 -1.7860
13655TIP3    H262457   3.676   6.319   1.081 -1.5389 -0.3002  1.3090
13656TIP3   OH262458   1.005   5.455   1.451 -0.6543 -1.0096 -0.0692
13656TIP3    H162459   1.075   5.390   1.441 -1.3291 -1.7189 -0.2734
13656TIP3    H262460   0.957   5.426   1.529 -0.3423 -0.1592  0.4518
13657TIP3   OH262461   4.586   2.959   1.488 -0.2731  0.1239 -0.7767
13657TIP3    H162462   4.676   2.937   1.511 -0.9019  0.0335  1.7704
13657TIP3    H262463   4.569   2.912   1.407  1.3760 -1.3499 -0.2911
13658TIP3   OH262464   5.876   5.711  13.032 -0.5152  0.4869  0.2808
13658TIP3    H162465   5.957   5.693  13.078  0.3725  1.6154 -0.8000
13658TIP3    H262466   5.873   5.645  12.962 -1.2023 -0.3818  1.1105
13659TIP3   OH262467   5.642   6.820  13.946  0.0543 -0.1848 -0.2223
13659TIP3    H162468   5.599   6.858  14.023 -0.3521  1.3506 -1.1785
13659TIP3    H262469   5.725   6.866  13.940  0.8976 -1.6094  0.3514
13660TIP3   OH262470   6.630   4.512   1.679  0.6246 -0.1179  0.2769
13660TIP3    H162471   6.671   4.426   1.676  2.0990  0.5725  0.2345
13660TIP3    H262472   6.695   4.568   1.721 -0.3855  0.9442  0.4457
13661TIP3   OH262473   0.016   0.816   5.453  0.2497  0.2100  0.0603
13661TIP3    H162474   0.100   0.836   5.413 -0.4167 -0.4659 -1.6947
13661TIP3    H262475   0.008   0.880   5.524  0.7990  2.3821 -1.7709
13662TIP3   OH262476   2.477   0.277   2.920 -0.2221  0.5113 -0.2329
13662TIP3    H162477   2.476   0.183   2.903  1.4140  0.8197 -2.2169
13662TIP3    H262478   2.531   0.287   2.998  0.7605 -0.0870 -0.8283
13663TIP3   OH262479   6.760   5.846   6.085 -0.2151  0.0881 -0.7081
13663TIP3    H162480   6.682   5.803   6.049  2.1630 -3.0034 -2.4729
13663TIP3    H262481   6.781   5.914   6.021  0.2690 -1.1535 -1.9129
13664TIP3   OH262482   4.952   1.268  14.084  0.1429 -0.2364  0.0314
13664TIP3    H162483   5.000   1.198  14.129  0.1937  0.0573  0.4349
13664TIP3    H262484   5.006   1.345  14.095  0.1533 -0.1565 -0.5369
13665TIP3   OH262485   3.276   6.077  16.789 -0.6527  0.1263 -0.3857
13665TIP3    H162486   3.210   6.135  16.751  0.7163  1.7083 -0.3898
13665TIP3    H262487   3.348   6.135  16.812  0.8760 -1.6415 -0.6656
13666TIP3   OH262488   4.823   2.280   3.477 -0.4414 -0.1016  0.2087
13666TIP3    H162489   4.874   2.344   3.527 -1.1448  1.8696 -1.5007
13666TIP3    H262490   4.806   2.324   3.393 -2.4781 -1.8443 -0.3313
13667TIP3   OH262491   4.785   2.688  14.844  0.1550 -0.9314  0.8232
13667TIP3    H162492   4.745   2.611  14.885 -1.6500  0.1619  1.1616
13667TIP3    H262493   4.712   2.747  14.826  1.3211  0.0642 -0.8693
13668TIP3   OH262494   3.349   1.726  15.426  0.9054 -0.0262 -0.4451
13668TIP3    H162495   3.331   1.814  15.457  1.9933 -0.1252  0.5118
13668TIP3    H262496   3.274   1.674  15.454  1.8158 -0.0978  1.9957
13669TIP3   OH262497   2.029   3.526   4.457  0.1359  0.1744  0.7046
13669TIP3    H162498   2.044   3.488   4.371  0.6669 -0.8216  1.2316
13669TIP3    H262499   1.941   3.497   4.481  0.2974 -0.2226  0.8335
13670TIP3   OH262500   1.253   1.485   4.363 -0.1848  0.3942  0.2415
13670TIP3    H162501   1.292   1.561   4.408  1.6752  0.6378 -1.7343
13670TIP3    H262502   1.326   1.427   4.344 -1.8097 -3.0056  3.5817
13671TIP3   OH262503   0.987   3.077   3.282  0.0014 -0.0534  0.3547
13671TIP3    H162504   1.015   3.167   3.296 -0.8732  0.1124  1.0946
13671TIP3    H262505   0.954   3.074   3.192  2.8967 -0.3860 -0.7367
13672TIP3   OH262506   0.447   6.516  12.435  0.0976  0.0538 -0.1709
13672TIP3    H162507   0.356   6.488  12.423  0.3203  0.5150 -3.4737
13672TIP3    H262508   0.441   6.608  12.458 -0.3036 -0.1930  0.7281
13673TIP3   OH262509   2.035   5.216   2.586  0.4385 -0.5605  0.1351
13673TIP3    H162510   2.008   5.283   2.649 -1.8063 -1.2088 -0.0995
13673TIP3    H262511   2.095   5.160   2.635  0.9165  0.5715  0.8614
13674TIP3   OH262512   1.686   1.434   6.210 -0.2945  0.0636 -0.6318
13674TIP3    H162513   1.680   1.516   6.160  0.9125 -0.7039 -2.0520
13674TIP3    H262514   1.657   1.458   6.298 -1.9317  1.5671 -1.5305
13675TIP3   OH262515   3.322   1.749  14.564 -0.2849  0.2593  0.4800
13675TIP3    H162516   3.267   1.698  14.623 -1.4414  0.1617 -0.6517
13675TIP3    H262517   3.324   1.698  14.483  1.8430  0.0492  0.6468
13676TIP3   OH262518   3.199   2.877   0.632 -0.2980 -0.5121 -0.3088
13676TIP3    H162519   3.210   2.898   0.539  1.4989 -0.9624 -0.2150
13676TIP3    H262520   3.287   2.888   0.669 -0.6153 -2.1302  0.9597
13677TIP3   OH262521   4.407   3.875  14.206 -0.3460 -0.3644 -0.3216
13677TIP3    H162522   4.398   3.789  14.246  0.8079  0.3769  1.6272
13677TIP3    H262523   4.496   3.875  14.170 -0.0854  0.2354  0.3031
13678TIP3   OH262524   3.084   5.605   1.095  0.4390  0.6348 -0.1386
13678TIP3    H162525   3.059   5.649   1.014 -0.8723  2.2129  1.1021
13678TIP3    H262526   3.146   5.665   1.137  0.6446  0.1005  0.3359
13679TIP3   OH262527   5.141   5.845  13.960 -0.1147  0.0333 -0.4885
13679TIP3    H162528   5.152   5.751  13.973 -1.6099 -0.0740  0.0504
13679TIP3    H262529   5.164   5.884  14.044  0.7701  0.1920 -0.7901
13680TIP3   OH262530   5.943   1.675  13.290 -0.8478  0.3823 -0.5478
13680TIP3    H162531   5.971   1.584  13.284  1.4995  1.0818 -0.4481
13680TIP3    H262532   5.885   1.677  13.367 -2.0399 -1.2763 -1.3599
13681TIP3   OH262533   0.368   6.324  12.660 -0.2283 -0.4363  0.0824
13681TIP3    H162534   0.307   6.370  12.717  0.5407  0.8305 -0.1040
13681TIP3    H262535   0.418   6.393  12.617 -0.1807 -1.4127 -1.4488
13682TIP3   OH262536   3.563   3.595   0.564 -0.4966 -0.3411 -0.3514
13682TIP3    H162537   3.584   3.519   0.618 -0.6166  0.2195  0.4907
13682TIP3    H262538   3.607   3.578   0.481 -0.4249 -1.2759 -0.1285
13683TIP3   OH262539   0.820   0.057  17.136  0.5495 -0.2160 -0.3719
13683TIP3    H162540   0.800   0.125  17.072 -0.7600 -0.2495 -0.0114
13683TIP3    H262541   0.901   0.087  17.179 -0.2910  1.3602  0.1354
13684TIP3   OH262542   3.030   4.159   5.511  0.0542  0.0125  0.2534
13684TIP3    H162543   2.970   4.092   5.543 -0.7990  0.3883 -0.5108
13684TIP3    H262544   3.044   4.217   5.586 -0.2925 -0.2558  0.5261
13685TIP3   OH262545   2.935   1.802   5.809 -0.0833  0.0378  0.2189
13685TIP3    H162546   3.000   1.788   5.878 -1.1216  1.0807  1.4245
13685TIP3    H262547   2.937   1.721   5.758  1.6408 -0.2258  0.6588
13686TIP3   OH262548   0.173   1.093   0.780  0.1515  0.9136  0.5053
13686TIP3    H162549   0.233   1.168   0.775  3.2866 -1.2071  3.7009
13686TIP3    H262550   0.146   1.089   0.871  0.1645 -1.8614  0.4577
13687TIP3   OH262551   1.913   5.556   3.469  0.1308  0.0168 -0.0198
13687TIP3    H162552   1.820   5.536   3.478  0.1457  0.5507  1.6361
13687TIP3    H262553   1.958   5.482   3.510  0.3410  0.9319  1.4375
13688TIP3   OH262554   2.753   3.969  11.918  0.1158 -0.3362 -0.6662
13688TIP3    H162555   2.755   3.938  12.009 -2.8751 -0.2641 -0.5270
13688TIP3    H262556   2.726   4.061  11.925  1.8375  0.2519 -1.5307
13689TIP3   OH262557   1.436   3.268   5.956 -0.3757 -0.0667 -0.8980
13689TIP3    H162558   1.463   3.295   5.869 -0.7477  0.8642 -0.7309
13689TIP3    H262559   1.495   3.196   5.979 -0.5645 -0.6120 -2.0900
13690TIP3   OH262560   6.430   3.334  14.384 -0.3969  0.3389  0.0840
13690TIP3    H162561   6.509   3.354  14.334 -1.1590  2.4531 -0.3121
13690TIP3    H262562   6.432   3.239  14.393  0.8352  0.1036 -2.1700
13691TIP3   OH262563   4.533   5.404   0.601  0.8458 -0.5600  0.3320
13691TIP3    H162564   4.551   5.498   0.605 -0.0659 -0.3449 -0.4524
13691TIP3    H262565   4.496   5.390   0.514 -0.5094 -1.3832  1.0306
13692TIP3   OH262566   1.947   5.042   0.964  0.1164 -0.3333 -0.2358
13692TIP3    H162567   2.021   4.987   0.939 -0.3857 -0.4285 -1.5693
13692TIP3    H262568   1.986   5.128   0.980  0.7702 -0.8348  0.9085
13693TIP3   OH262569   6.578   4.311  14.322 -0.2406 -0.5122  0.2535
13693TIP3    H162570   6.625   4.394  14.326 -0.8513 -0.1745  0.6439
13693TIP3    H262571   6.598   4.268  14.405  0.2341 -0.8491 -0.0319
13694TIP3   OH262572   3.844   3.664   3.145 -0.0929 -0.4089 -0.8099
13694TIP3    H162573   3.914   3.680   3.081 -1.5805  1.0156 -2.1385
13694TIP3    H262574   3.795   3.590   3.109  0.9192 -1.6273  0.2936
13695TIP3   OH262575   2.551   4.585  15.263  0.2471  0.4088 -0.4002
13695TIP3    H162576   2.542   4.503  15.214 -1.1557  1.3151 -1.7226
13695TIP3    H262577   2.466   4.596  15.307 -0.1459  1.9225 -1.4896
13696TIP3   OH262578   4.312   2.259   0.943 -0.5278 -0.8159 -0.3929
13696TIP3    H162579   4.337   2.307   0.865 -1.7021 -0.1245 -0.3698
13696TIP3    H262580   4.328   2.320   1.015  1.6868 -1.8820  0.0345
13697TIP3   OH262581   3.748   5.371   5.070  0.7627  0.3538 -0.8313
13697TIP3    H162582   3.667   5.413   5.043 -0.0350  0.0295  0.9803
13697TIP3    H262583   3.773   5.316   4.996 -1.9774 -1.4252 -0.5097
13698TIP3   OH262584   2.530   0.537   0.128  0.2703 -0.2114  0.0972
13698TIP3    H162585   2.441   0.542   0.093  0.6248 -2.1375 -1.1063
13698TIP3    H262586   2.537   0.448   0.164  2.6446 -1.1169 -2.4360
13699TIP3   OH262587   1.442   4.699   4.520  0.2903  0.2066 -0.1716
13699TIP3    H162588   1.396   4.631   4.470  0.6811  0.5542 -1.0108
13699TIP3    H262589   1.377   4.730   4.583 -0.6714  0.7826 -1.4350
13700TIP3   OH262590   3.542   0.427  12.147 -0.9345 -0.6896  0.5512
13700TIP3    H162591   3.544   0.521  12.131  3.0930 -1.1340 -2.4090
13700TIP3    H262592   3.602   0.414  12.220 -0.3021 -1.0432 -0.0171
13701TIP3   OH262593   1.585   6.128   5.723  0.3110 -0.2082  0.0304
13701TIP3    H162594   1.563   6.040   5.754  2.7953 -1.4725 -1.6291
13701TIP3    H262595   1.540   6.187   5.783 -0.6327 -2.6029  1.7343
13702TIP3   OH262596   4.364   5.178  16.623  0.5135  0.2707 -0.1438
13702TIP3    H162597   4.388   5.138  16.706 -0.7649 -0.5924 -0.1796
13702TIP3    H262598   4.343   5.269  16.645 -1.0553 -0.2766  0.6911
13703TIP3   OH262599   4.387   6.750   0.684  0.0887 -0.0521  0.5611
13703TIP3    H162600   4.296   6.752   0.715 -0.4306 -1.0388 -0.8177
13703TIP3    H262601   4.426   6.675   0.728 -0.2944 -0.7156 -0.2187
13704TIP3   OH262602   2.728   1.689  12.574  0.1135  0.1542  0.0495
13704TIP3    H162603   2.746   1.635  12.652 -1.3461 -0.8887 -0.3315
13704TIP3    H262604   2.776   1.645  12.504  0.6903  0.5889  0.1628
13705TIP3   OH262605   2.155   3.896   0.696 -0.3694  0.2252  0.0622
13705TIP3    H162606   2.161   3.962   0.628 -0.8428  1.3828  1.1249
13705TIP3    H262607   2.077   3.920   0.747  0.4060 -0.1643  1.4728
13706TIP3   OH262608   3.811   6.352   2.260  0.1770 -0.1977 -0.0463
13706TIP3    H162609   3.752   6.402   2.203 -0.8478  0.0473  1.2165
13706TIP3    H262610   3.761   6.337   2.340  1.3077 -1.2661  0.4758
13707TIP3   OH262611   3.506   2.961  15.353  0.5033  0.4026 -0.2276
13707TIP3    H162612   3.593   2.956  15.313  0.7392  0.5112  0.2795
13707TIP3    H262613   3.448   2.917  15.290  1.0437 -0.3434 -0.1968
13708TIP3   OH262614   2.153   6.559  16.055  0.2537 -0.1171 -0.3420
13708TIP3    H162615   2.210   6.581  15.981  0.5237  0.2787 -0.0166
13708TIP3    H262616   2.158   6.635  16.113 -1.6724  0.4836 -0.9451
13709TIP3   OH262617   4.590   2.424   4.217 -0.2903 -0.2758  0.6341
13709TIP3    H162618   4.633   2.406   4.134 -0.8848  1.1426 -0.0118
13709TIP3    H262619   4.508   2.375   4.213  0.3226 -1.3554  1.0101
13710TIP3   OH262620   0.203   6.007  15.020 -0.2086 -0.1674 -0.0170
13710TIP3    H162621   0.122   6.023  15.067 -0.3281 -2.1972  0.5036
13710TIP3    H262622   0.187   5.927  14.970  0.4281  1.1033 -2.3311
13711TIP3   OH262623   6.240   5.587  14.838  0.1160  0.2664  0.7255
13711TIP3    H162624   6.208   5.526  14.772  0.2395  0.1979  0.7302
13711TIP3    H262625   6.267   5.664  14.788  2.0469 -0.5286  0.5124
13712TIP3   OH262626   6.380   0.041  14.851  0.1671 -0.1682 -0.4991
13712TIP3    H162627   6.337   0.048  14.765 -1.6019  1.8796  0.5024
13712TIP3    H262628   6.308   0.041  14.914  1.5187  0.5933  1.0888
13713TIP3   OH262629   0.588   2.624   5.954  0.0532  0.2549  0.3666
13713TIP3    H162630   0.617   2.589   6.039 -0.8760 -1.1402  0.1110
13713TIP3    H262631   0.668   2.630   5.902  0.7191  1.6147  1.4946
13714TIP3   OH262632   6.354   4.587  16.992 -0.0319  0.3405  0.1412
13714TIP3    H162633   6.357   4.648  17.066  2.4813  0.6285 -0.1733
13714TIP3    H262634   6.339   4.502  17.032  0.1179  0.6622  0.8878
13715TIP3   OH262635   5.022   1.199   2.487  0.3839  0.3059  0.7813
13715TIP3    H162636   5.084   1.142   2.532  0.4746  1.8371  2.6417
13715TIP3    H262637   5.076   1.269   2.450  0.3081 -0.8874 -1.7247
13716TIP3   OH262638   2.346   6.747   1.959  0.4276  0.0418  0.0338
13716TIP3    H162639   2.311   6.831   1.987  0.0726 -0.6438  1.6966
13716TIP3    H262640   2.420   6.769   1.902  0.2981  1.4718  0.4199
13717TIP3   OH262641   4.849   1.355  12.742 -0.2011 -0.1954 -0.5789
13717TIP3    H162642   4.788   1.424  12.716 -0.2359 -0.3921 -1.0317
13717TIP3    H262643   4.794   1.285  12.777 -0.2978 -0.6468 -1.6039
13718TIP3   OH262644   3.539   3.119   4.443  0.6521 -0.1114 -0.2542
13718TIP3    H162645   3.581   3.172   4.510 -0.7465 -0.0084  0.5460
13718TIP3    H262646   3.572   3.030   4.458  0.4229 -0.0690  0.5047
13719TIP3   OH262647   1.716   5.460  14.570  0.4923  0.9403  0.2119
13719TIP3    H162648   1.693   5.499  14.654 -0.6825  1.5194 -0.3599
13719TIP3    H262649   1.757   5.532  14.521  0.4522  0.8220  0.0050
13720TIP3   OH262650   6.373   6.452   3.966 -0.0747 -0.0558  0.4768
13720TIP3    H162651   6.432   6.468   3.893 -0.9318 -0.2381 -0.2743
13720TIP3    H262652   6.286   6.471   3.931 -0.5109 -0.2819  1.4076
13721TIP3   OH262653   5.964   2.719   0.044  0.0450  0.0785 -0.1196
13721TIP3    H162654   5.917   2.801   0.055 -0.2021 -0.1847  0.8478
13721TIP3    H262655   6.012   2.729  -0.038  0.3548  1.3504  0.2104
13722TIP3   OH262656   5.221   3.289  17.131 -0.0238  0.1766 -0.6496
13722TIP3    H162657   5.268   3.307  17.049  1.1627 -0.6663 -0.1680
13722TIP3    H262658   5.258   3.206  17.162 -0.5526  0.4284  0.6735
13723TIP3   OH262659   0.270   1.071  15.352  0.1504  0.1941  0.0786
13723TIP3    H162660   0.218   1.118  15.287  0.2813  2.4042  1.5450
13723TIP3    H262661   0.226   0.986  15.360 -0.2341  0.1234 -2.4059
13724TIP3   OH262662   2.044   1.476   3.837 -0.0604  0.2102  0.1652
13724TIP3    H162663   2.019   1.487   3.929 -0.7869  0.6781 -0.0838
13724TIP3    H262664   2.135   1.447   3.840 -0.5800 -1.3978  1.1005
13725TIP3   OH262665   0.666   2.017   2.030  0.2296  0.2246  0.0198
13725TIP3    H162666   0.689   1.924   2.029 -1.0459 -0.1095  0.4947
13725TIP3    H262667   0.602   2.026   1.960  0.3776  0.7508 -0.0480
13726TIP3   OH262668   3.310   3.726   1.873 -0.6958 -0.6040 -0.0368
13726TIP3    H162669   3.310   3.631   1.866 -0.7102 -0.6762  0.9218
13726TIP3    H262670   3.403   3.750   1.875 -0.5925 -0.3118 -3.7477
13727TIP3   OH262671   1.413   0.372   1.601 -0.2927  0.2990  0.1061
13727TIP3    H162672   1.504   0.351   1.621  0.3705  0.7533 -2.2684
13727TIP3    H262673   1.390   0.440   1.665  0.2885 -1.4118  2.1783
13728TIP3   OH262674   6.807   1.427  16.200 -0.4321 -0.3377  0.4268
13728TIP3    H162675   6.809   1.357  16.265 -0.1264 -0.2345  0.5294
13728TIP3    H262676   6.756   1.391  16.128 -2.0060  0.0620  1.3090
13729TIP3   OH262677   4.336   3.949   2.826 -0.6409  0.1078 -0.5676
13729TIP3    H162678   4.349   3.859   2.855 -2.1430 -0.4384 -1.5679
13729TIP3    H262679   4.422   3.990   2.838  0.2092 -1.5899 -0.6389
13730TIP3   OH262680   6.143   5.368  15.198 -0.2792  0.2076 -0.2772
13730TIP3    H162681   6.179   5.292  15.243 -0.5892  0.3554  0.2227
13730TIP3    H262682   6.197   5.441  15.229 -1.3451  0.5165  0.9049
13731TIP3   OH262683   6.280   3.300   2.962 -0.6544  0.1629  0.0815
13731TIP3    H162684   6.275   3.378   3.018  1.5497 -1.0563  2.0463
13731TIP3    H262685   6.193   3.262   2.966 -0.6178  0.2714  2.4827
13732TIP3   OH262686   1.281   4.932  16.119  0.2282  0.3225  0.1120
13732TIP3    H162687   1.318   4.953  16.205  1.4065  1.4538 -0.6612
13732TIP3    H262688   1.356   4.933  16.059 -0.5066 -0.8926 -0.8692
13733TIP3   OH262689   1.057   3.133  17.060  0.0888  0.0169 -0.2849
13733TIP3    H162690   1.100   3.136  16.974 -0.2457  0.0088 -0.4538
13733TIP3    H262691   0.982   3.074  17.047 -0.5506  0.8205 -0.2544
13734TIP3   OH262692   6.093   3.523  11.509 -0.5472 -0.0031  0.7057
13734TIP3    H162693   6.172   3.518  11.564  0.6894 -2.9250 -1.2185
13734TIP3    H262694   6.021   3.533  11.571  1.1923  0.9977  2.6124
13735TIP3   OH262695   0.210   0.198   3.730  0.0600  0.2843 -0.4352
13735TIP3    H162696   0.282   0.250   3.765  1.2432  0.1179 -2.5135
13735TIP3    H262697   0.211   0.118   3.782  1.0538  0.5132 -0.0887
13736TIP3   OH262698   4.082   5.500  13.766  0.1356 -0.4913  0.3525
13736TIP3    H162699   3.990   5.503  13.740  0.2002 -0.1755  0.1558
13736TIP3    H262700   4.128   5.474  13.686  0.5851  2.7472 -0.5069
13737TIP3   OH262701   3.516   1.306  10.422  0.2859  0.1579  0.4451
13737TIP3    H162702   3.463   1.386  10.415  0.2369  0.1068  0.2439
13737TIP3    H262703   3.596   1.335  10.466  0.4419  0.3997  0.0021
13738TIP3   OH262704   1.882   2.729  14.396  0.4734  0.0746 -0.5009
13738TIP3    H162705   1.833   2.811  14.391  0.2541 -0.1686 -2.5599
13738TIP3    H262706   1.899   2.718  14.490  0.8817  2.6705 -0.2333
13739TIP3   OH262707   0.670   3.006  13.651  0.1739 -0.2811 -0.5407
13739TIP3    H162708   0.711   3.084  13.614  1.0623 -0.5781 -0.2020
13739TIP3    H262709   0.635   2.959  13.575 -1.3305  0.9796 -0.6421
13740TIP3   OH262710   5.856   2.459   4.774 -0.3987  0.1758  0.5199
13740TIP3    H162711   5.792   2.482   4.706  0.7397  1.3891 -0.1601
13740TIP3    H262712   5.882   2.369   4.752  0.5038  0.8148 -1.0832
13741TIP3   OH262713   2.623   6.533   1.539 -0.4891  0.0011  0.0991
13741TIP3    H162714   2.680   6.599   1.500 -0.8245  0.7826  0.9175
13741TIP3    H262715   2.656   6.450   1.504 -0.0294  0.5823 -0.8983
13742TIP3   OH262716   6.597   4.837   5.625  0.4391 -0.2128 -0.1131
13742TIP3    H162717   6.655   4.830   5.549  0.4062 -0.4562 -0.1143
13742TIP3    H262718   6.656   4.857   5.697  0.2667  2.0924 -0.5535
13743TIP3   OH262719   1.716   4.778   3.421  0.1436 -0.2518 -0.3406
13743TIP3    H162720   1.798   4.736   3.444 -0.6424 -1.7976 -0.3262
13743TIP3    H262721   1.649   4.727   3.466 -0.6609  2.4962  1.7269
13744TIP3   OH262722   5.722   3.636   6.363 -0.8590 -0.5028 -0.0168
13744TIP3    H162723   5.802   3.688   6.355 -0.2004 -1.7440 -1.7711
13744TIP3    H262724   5.657   3.697   6.398  0.3560  1.0168 -0.3622
13745TIP3   OH262725   4.647   4.993  13.259  0.4932  0.5335 -0.8325
13745TIP3    H162726   4.701   5.030  13.329 -0.5963  0.8203 -0.1264
13745TIP3    H262727   4.700   5.004  13.179  1.2138  1.3653 -0.2505
13746TIP3   OH262728   5.946   3.503   4.458 -0.1924  0.0360 -0.0580
13746TIP3    H162729   6.011   3.479   4.392 -0.7208 -0.4723 -0.3914
13746TIP3    H262730   5.894   3.424   4.471 -1.2553  0.6710 -0.3813
13747TIP3   OH262731   4.559   6.409  15.166  0.4517  0.6972  0.2039
13747TIP3    H162732   4.494   6.343  15.142  1.6008 -0.6798  0.8061
13747TIP3    H262733   4.558   6.470  15.092  1.3768 -1.5386 -1.7327
13748TIP3   OH262734   6.104   5.309  16.608 -0.2754  0.3610 -0.1092
13748TIP3    H162735   6.147   5.335  16.689  0.4493 -0.1566 -0.3208
13748TIP3    H262736   6.092   5.214  16.617  1.5218 -0.0218 -1.3854
13749TIP3   OH262737   0.776   4.202   0.070  0.3272 -0.1136  0.2516
13749TIP3    H162738   0.741   4.148  -0.000  0.9055  1.6704 -1.4553
13749TIP3    H262739   0.827   4.141   0.124  1.4566 -1.1888 -1.9458
13750TIP3   OH262740   2.075   3.577  16.085  0.5492  0.4015  0.1690
13750TIP3    H162741   2.034   3.601  16.168 -0.6518 -0.6784 -0.0974
13750TIP3    H262742   2.133   3.504  16.107  1.2995  1.0288  0.2968
13751TIP3   OH262743   0.704   5.589   3.955  0.4632  0.2058  0.0029
13751TIP3    H162744   0.764   5.636   3.897  1.1489 -1.9442 -1.0877
13751TIP3    H262745   0.755   5.516   3.989 -0.3140  0.7279  2.4090
13752TIP3   OH262746   2.763   4.305  13.701  0.2640  0.6029  0.1625
13752TIP3    H162747   2.736   4.343  13.618 -2.2755  0.8019  1.0254
13752TIP3    H262748   2.788   4.379  13.756  0.5990  0.5815  0.0401
13753TIP3   OH262749   5.869   1.874   5.527 -0.0148  0.0005 -0.1671
13753TIP3    H162750   5.788   1.862   5.477 -0.0988 -0.4389  0.0733
13753TIP3    H262751   5.849   1.839   5.614 -0.5727  2.7496  0.8592
13754TIP3   OH262752   0.010   4.533  11.469 -0.3488 -0.5534 -0.0884
13754TIP3    H162753  -0.044   4.605  11.436 -0.5120 -0.6225  0.0236
13754TIP3    H262754   0.099   4.567  11.468 -0.3786 -0.4860 -0.4088
13755TIP3   OH262755   6.533   5.080   4.360  1.0530  0.2200  0.4535
13755TIP3    H162756   6.555   5.047   4.273  0.7314 -1.3369  0.9462
13755TIP3    H262757   6.448   5.124   4.349  1.7792  1.4417 -0.3321
13756TIP3   OH262758   0.351   0.290  13.733  0.1969  0.5783 -0.4799
13756TIP3    H162759   0.300   0.346  13.791  2.6328  0.2757  2.0474
13756TIP3    H262760   0.395   0.351  13.674  2.1433  1.3560  1.6947
13757TIP3   OH262761   2.713   5.256   0.500  0.0781  0.0331 -0.2419
13757TIP3    H162762   2.777   5.296   0.440  0.1459 -0.1225 -0.2743
13757TIP3    H262763   2.748   5.168   0.517  0.8615  0.6169  1.2400
13758TIP3   OH262764   2.187   1.769  12.664 -0.0592  0.1638  0.0132
13758TIP3    H162765   2.191   1.689  12.612  0.2763  0.7815 -0.9387
13758TIP3    H262766   2.098   1.771  12.699  0.3320 -1.2909  1.1501
13759TIP3   OH262767   3.753   1.845  10.959  0.3378 -0.0173 -0.0849
13759TIP3    H162768   3.673   1.844  11.012  0.7437  1.8543  0.6335
13759TIP3    H262769   3.737   1.912  10.893  2.2729  2.4009  1.7468
13760TIP3   OH262770   2.551   1.957  11.967  0.0815  0.1115  0.0937
13760TIP3    H162771   2.639   1.941  12.001  0.5506  3.0698  0.3446
13760TIP3    H262772   2.493   1.933  12.040  0.6771 -1.2174  0.1528
13761TIP3   OH262773   6.015   2.946   3.048  0.3837 -0.2797  0.2608
13761TIP3    H162774   5.966   2.864   3.042  0.9864 -0.7489  1.6939
13761TIP3    H262775   6.095   2.929   2.998 -0.5085  0.2147 -1.3809
13762TIP3   OH262776   4.646   6.677  14.458 -0.1440  0.2697  0.5697
13762TIP3    H162777   4.638   6.584  14.477  1.0084  0.6145  2.9284
13762TIP3    H262778   4.719   6.683  14.396  0.4072 -0.2975  1.1616
13763TIP3   OH262779   0.955   4.191   4.526  0.6291 -0.0696 -0.1299
13763TIP3    H162780   0.874   4.182   4.475  1.2572 -1.4286 -0.8997
13763TIP3    H262781   0.928   4.239   4.604 -0.5619  1.1250 -1.2296
13764TIP3   OH262782   3.741   6.778   6.382 -0.2836 -0.6370 -0.5258
13764TIP3    H162783   3.648   6.774   6.362 -0.3812  0.3567 -0.2774
13764TIP3    H262784   3.748   6.744   6.471 -0.6595  1.1737  0.2069
13765TIP3   OH262785   3.001   4.770   0.718  0.4164  0.3265 -0.2171
13765TIP3    H162786   3.094   4.746   0.718  0.4309  0.3327  1.4431
13765TIP3    H262787   2.963   4.720   0.645  1.5722 -0.2417 -0.4391
13766TIP3   OH262788   0.147   5.514  16.690  0.2127  0.2041 -0.0373
13766TIP3    H162789   0.228   5.492  16.736  0.0561 -2.3721 -0.8769
13766TIP3    H262790   0.103   5.430  16.679 -0.8962  1.0759 -2.7096
13767TIP3   OH262791   2.190   2.635  14.513 -0.0466  0.2096 -0.9029
13767TIP3    H162792   2.174   2.714  14.564 -1.6755  1.0772 -2.7013
13767TIP3    H262793   2.157   2.564  14.569  2.9486  0.5527  1.4299
13768TIP3   OH262794   4.559   6.146   2.294 -0.4892  0.0092  0.0747
13768TIP3    H162795   4.645   6.142   2.251 -1.0734 -1.6285 -0.9781
13768TIP3    H262796   4.497   6.121   2.226 -1.5514 -1.4111  1.5344
13769TIP3   OH262797   6.097   1.864  13.864 -0.0889 -0.2518  0.0748
13769TIP3    H162798   6.070   1.918  13.790  0.8393  1.6202  1.0733
13769TIP3    H262799   6.173   1.815  13.832  1.9245  2.4692  0.5162
13770TIP3   OH262800   1.038   1.814   4.208 -0.2681  0.3178 -0.7171
13770TIP3    H162801   0.957   1.862   4.196 -2.8639 -2.7626  3.2513
13770TIP3    H262802   1.068   1.839   4.296  1.4905 -0.8282 -0.9571
13771TIP3   OH262803   5.373   2.475  12.788 -0.1225 -0.1888  0.3384
13771TIP3    H162804   5.429   2.550  12.767 -1.2051  0.4358 -0.3524
13771TIP3    H262805   5.427   2.398  12.768  0.0654  0.4021 -1.4945
13772TIP3   OH262806   0.843   3.076   2.715  0.3947 -0.1349  0.0200
13772TIP3    H162807   0.890   2.998   2.686 -0.6132 -1.0311  0.8068
13772TIP3    H262808   0.755   3.067   2.677  0.3047  0.6702  0.0287
13773TIP3   OH262809   6.187   0.765   0.050  0.3412 -0.0214 -0.0766
13773TIP3    H162810   6.245   0.689   0.051  0.5723  0.1505 -0.5940
13773TIP3    H262811   6.243   0.838   0.024 -0.0800  0.1650 -0.4583
13774TIP3   OH262812   5.243   2.681   1.433  0.4387 -0.4800 -0.2616
13774TIP3    H162813   5.165   2.630   1.454  0.5294 -0.2414  0.6533
13774TIP3    H262814   5.269   2.650   1.345 -1.1590  0.0477 -0.9237
13775TIP3   OH262815   0.628   1.227  16.400  0.0577 -0.3767 -0.0003
13775TIP3    H162816   0.675   1.290  16.454 -0.8588  0.1183  0.2336
13775TIP3    H262817   0.535   1.249  16.412 -0.3708 -2.5638  1.1121
13776TIP3   OH262818   5.634   3.769  14.853 -0.6166 -0.0284 -0.4208
13776TIP3    H162819   5.605   3.831  14.919 -0.5894 -1.2075  0.7130
13776TIP3    H262820   5.704   3.719  14.895 -0.6424 -0.8326 -1.3088
13777TIP3   OH262821   3.437   6.770   1.356 -0.0834  0.0940  0.1776
13777TIP3    H162822   3.488   6.760   1.275 -2.5812 -1.2677 -1.2751
13777TIP3    H262823   3.454   6.689   1.405 -1.6870 -0.8880 -0.8342
13778TIP3   OH262824   0.745   4.877   5.487  0.8661 -0.6358 -0.4302
13778TIP3    H162825   0.654   4.882   5.456  1.2811  0.3143 -1.5307
13778TIP3    H262826   0.748   4.938   5.561 -0.4150 -3.7421  2.3424
13779TIP3   OH262827   4.775   2.368   2.194  0.7259  0.1944 -0.0793
13779TIP3    H162828   4.861   2.410   2.192  0.4571  0.6917 -2.2907
13779TIP3    H262829   4.717   2.429   2.149 -0.9564  0.1429  1.8981
13780TIP3   OH262830   5.501   6.403   3.663 -0.0093  0.0392 -0.3368
13780TIP3    H162831   5.407   6.408   3.643  0.0139  0.0385 -0.4474
13780TIP3    H262832   5.506   6.417   3.757 -0.3349 -2.2649  0.0656
13781TIP3   OH262833   3.552   4.284   6.741  0.5536 -0.0689 -0.2003
13781TIP3    H162834   3.463   4.296   6.708 -0.4863 -0.3296  2.4204
13781TIP3    H262835   3.604   4.345   6.690 -1.2494  0.6843 -1.2036
13782TIP3   OH262836   5.628   0.008  14.498  0.3176  0.3690 -0.2979
13782TIP3    H162837   5.718   0.017  14.528  0.4938  0.5809 -0.8813
13782TIP3    H262838   5.583   0.086  14.530 -0.0396 -0.4625  1.3054
13783TIP3   OH262839   4.668   0.832   5.274  0.5129  0.0545 -0.6696
13783TIP3    H162840   4.595   0.800   5.328  1.6842 -0.2311  0.7767
13783TIP3    H262841   4.632   0.907   5.228 -0.2690  0.8562  1.1875
13784TIP3   OH262842   6.231   0.943   0.817  0.8072  0.2751  0.1384
13784TIP3    H162843   6.223   1.010   0.885 -0.9554 -0.9248  1.1468
13784TIP3    H262844   6.170   0.969   0.749 -0.7912 -0.9263  1.0827
13785TIP3   OH262845   1.847   6.007  16.551 -0.7163  0.2758 -0.1586
13785TIP3    H162846   1.771   5.951  16.539 -0.5248  0.1292 -0.7301
13785TIP3    H262847   1.817   6.094  16.528 -0.3082 -0.0297 -1.9549
13786TIP3   OH262848   6.321   2.416  15.584  0.0237  0.0454  0.2867
13786TIP3    H162849   6.284   2.491  15.631 -1.0282 -0.6029  0.5130
13786TIP3    H262850   6.271   2.341  15.617  0.6063 -0.6630 -0.4407
13787TIP3   OH262851   5.540   4.698  12.037  0.3475 -0.2916 -0.5126
13787TIP3    H162852   5.620   4.649  12.053  0.4874  0.8211  2.5369
13787TIP3    H262853   5.481   4.635  11.996  1.8473 -1.8704 -0.3025
13788TIP3   OH262854   5.414   2.845   2.934  0.1346 -0.2185 -1.0200
13788TIP3    H162855   5.352   2.880   2.870 -1.3417 -0.1797  0.3986
13788TIP3    H262856   5.362   2.832   3.013  1.8394 -0.6551  0.0572
13789TIP3   OH262857   3.741   5.862  12.826  0.2325 -0.5873  0.1545
13789TIP3    H162858   3.724   5.936  12.767  2.9738  0.1622  0.2011
13789TIP3    H262859   3.763   5.790  12.767  0.4020 -0.5517  0.1722
13790TIP3   OH262860   5.641   4.954  11.921 -0.5785 -0.3362  0.3165
13790TIP3    H162861   5.730   4.940  11.953 -0.4397 -2.1511 -0.7974
13790TIP3    H262862   5.591   4.880  11.956 -1.2131 -0.3832 -0.6626
13791TIP3   OH262863   5.772   0.611   0.977  0.1893  0.3984 -0.2236
13791TIP3    H162864   5.845   0.618   0.915  0.8266 -0.5218  0.4049
13791TIP3    H262865   5.814   0.593   1.061 -0.7874 -0.4110  0.0974
13792TIP3   OH262866   2.173   1.101  15.071 -0.5115  0.2948 -0.3522
13792TIP3    H162867   2.197   1.116  14.980 -2.1265  3.0810 -0.3818
13792TIP3    H262868   2.241   1.044  15.105  1.0189  0.5630 -2.8528
13793TIP3   OH262869   5.574   4.039   0.252  0.5502 -0.1327  0.2284
13793TIP3    H162870   5.618   4.056   0.169  1.5167  0.1694  0.7862
13793TIP3    H262871   5.555   3.945   0.250  2.3892 -0.5477  0.4966
13794TIP3   OH262872   1.628   4.267  11.946 -0.1816 -0.0018 -0.2267
13794TIP3    H162873   1.589   4.307  11.868  0.8196  1.9547  0.2564
13794TIP3    H262874   1.673   4.189  11.914  0.1564  0.7535 -1.5785
13795TIP3   OH262875   6.546   3.240   3.014 -0.0273  0.1143  0.5251
13795TIP3    H162876   6.556   3.210   3.105 -0.9988 -2.2151 -0.0854
13795TIP3    H262877   6.451   3.239   3.000  0.1453 -0.0999 -0.6746
13796TIP3   OH262878   4.225   1.937   0.584  0.0385  0.2375  0.1873
13796TIP3    H162879   4.161   1.947   0.654 -0.4048 -0.1471 -0.1645
13796TIP3    H262880   4.225   1.843   0.564 -1.6095  0.6556 -1.9959
13797TIP3   OH262881   6.239   3.399   5.166 -0.0608  0.3024 -0.1850
13797TIP3    H162882   6.192   3.477   5.137  0.3583  0.5686 -0.1547
13797TIP3    H262883   6.331   3.418   5.147  0.0164 -0.2860 -0.4144
13798TIP3   OH262884   4.287   2.266   4.569 -0.1154  0.1029 -0.2683
13798TIP3    H162885   4.368   2.287   4.522  1.6706 -0.6463  2.3652
13798TIP3    H262886   4.233   2.344   4.560  1.3101  0.9930 -1.2229
13799TIP3   OH262887   4.497   5.138  17.278  0.3748 -0.1193  0.2887
13799TIP3    H162888   4.411   5.177  17.295  0.7434  0.8719 -0.0286
13799TIP3    H262889   4.514   5.082  17.353 -0.1184  0.4588  0.8386
13800TIP3   OH262890   0.087   6.303  14.598 -0.2412 -0.0736 -0.3019
13800TIP3    H162891   0.012   6.245  14.583 -0.0357 -0.4218  0.0069
13800TIP3    H262892   0.056   6.366  14.663  0.1695 -1.0589  0.8552
13801TIP3   OH262893   2.740   2.523   2.925 -0.7902  0.3995 -0.0735
13801TIP3    H162894   2.687   2.511   3.004 -2.9532 -0.1002 -1.5562
13801TIP3    H262895   2.677   2.515   2.853  1.1528  0.8237 -1.8453
13802TIP3   OH262896   6.577   1.375  13.432 -0.1792  0.1638 -0.1603
13802TIP3    H162897   6.497   1.325  13.415 -1.3332  1.5771  0.9624
13802TIP3    H262898   6.575   1.392  13.526  1.6120 -0.0419 -0.0664
13803TIP3   OH262899   4.503   3.794  12.643 -0.4204  0.0434 -0.4624
13803TIP3    H162900   4.522   3.884  12.616 -0.4502 -0.3039 -1.6582
13803TIP3    H262901   4.497   3.799  12.739  1.6352  0.9202 -0.3506
13804TIP3   OH262902   5.221   0.491  16.797  0.4419  0.1673 -0.7300
13804TIP3    H162903   5.198   0.581  16.772 -0.0537  0.2547  0.0136
13804TIP3    H262904   5.138   0.451  16.823  0.7370 -0.3423 -0.5517
13805TIP3   OH262905   6.122   5.005   5.971  0.3561  0.3485 -0.0642
13805TIP3    H162906   6.191   4.957   6.017  0.2999 -1.4037 -1.7581
13805TIP3    H262907   6.168   5.081   5.933  0.8092  0.6399  1.0423
13806TIP3   OH262908   5.947   0.116  13.695  0.3015 -0.3639 -0.3128
13806TIP3    H162909   5.905   0.034  13.669  1.4127 -0.6673 -1.1927
13806TIP3    H262910   5.939   0.118  13.790 -2.2060 -0.1373 -0.4901
13807TIP3   OH262911   1.249   5.242   3.100 -0.0486  0.2123  0.0733
13807TIP3    H162912   1.324   5.191   3.132 -0.2297 -0.3940 -0.4492
13807TIP3    H262913   1.287   5.322   3.065  0.4878 -0.5905 -1.2327
13808TIP3   OH262914   3.576   4.310   0.817  0.0598 -0.2317  0.0478
13808TIP3    H162915   3.544   4.392   0.779  0.0740 -0.5920 -0.7429
13808TIP3    H262916   3.670   4.323   0.826 -0.1882  0.5293  1.6372
13809TIP3   OH262917   1.483   5.681   1.210  0.2654  0.4339  0.3769
13809TIP3    H162918   1.424   5.621   1.164 -0.6379  0.6130  1.2755
13809TIP3    H262919   1.427   5.755   1.235  0.8914  0.6452  1.1618
13810TIP3   OH262920   5.157   6.206   3.146  0.0315 -0.1666 -0.3060
13810TIP3    H162921   5.114   6.238   3.226 -0.2191 -2.5612  0.5674
13810TIP3    H262922   5.247   6.236   3.153  0.1460 -0.8148  1.1596
13811TIP3   OH262923   6.219   0.670   0.854  0.0887  0.3071 -0.0629
13811TIP3    H162924   6.202   0.762   0.835 -0.6469 -0.2352 -2.2552
13811TIP3    H262925   6.133   0.628   0.851 -0.0134  0.0412  4.2053
13812TIP3   OH262926   5.378   0.730   3.119 -0.6609 -0.1414 -0.3191
13812TIP3    H162927   5.354   0.704   3.030  1.3709 -1.2317 -0.5744
13812TIP3    H262928   5.316   0.799   3.141 -2.8800 -1.6933 -1.5735
13813TIP3   OH262929   0.028   3.249   4.147 -0.6981  0.2359  0.2306
13813TIP3    H162930  -0.019   3.237   4.230 -1.0457 -0.5842 -0.0838
13813TIP3    H262931  -0.028   3.208   4.082 -0.0533  0.2069 -0.3054
13814TIP3   OH262932   5.948   5.448   1.165 -0.3470 -0.4561 -0.3125
13814TIP3    H162933   5.930   5.364   1.206 -1.7600 -0.0681 -0.0993
13814TIP3    H262934   6.024   5.433   1.109  1.6520 -1.0027  2.4662
13815TIP3   OH262935   5.811   0.786   4.054 -0.2103  0.7305  0.3667
13815TIP3    H162936   5.756   0.743   4.119 -1.2908 -1.3602 -1.8654
13815TIP3    H262937   5.749   0.825   3.992  0.8077  0.5468 -0.7831
13816TIP3   OH262938   1.068   3.650  12.738  0.3492 -0.1349 -0.2624
13816TIP3    H162939   1.008   3.700  12.684 -0.0021 -1.1951 -0.8793
13816TIP3    H262940   1.053   3.559  12.712 -1.5240 -0.9258  3.3117
13817TIP3   OH262941   6.060   3.503   2.861  0.7448  0.2177  0.0783
13817TIP3    H162942   6.027   3.477   2.947 -0.9780  1.5504 -0.1414
13817TIP3    H262943   6.052   3.599   2.861  1.5165  0.2855 -1.2562
13818TIP3   OH262944   3.103   1.501   4.436  0.2464 -0.5086  0.1725
13818TIP3    H162945   3.012   1.531   4.435 -0.1680 -1.7192  1.0173
13818TIP3    H262946   3.098   1.408   4.459  1.5788 -1.0044 -1.4334
13819TIP3   OH262947   6.304   2.567   4.445  0.2934  0.2491  0.2996
13819TIP3    H162948   6.232   2.505   4.462  0.1154  0.1563 -0.7546
13819TIP3    H262949   6.261   2.644   4.408  0.5632  0.8596  1.2417
13820TIP3   OH262950   2.969   0.423  16.324 -0.6866 -0.3174 -0.1490
13820TIP3    H162951   2.927   0.346  16.364  0.6158  0.5661  2.9778
13820TIP3    H262952   2.961   0.492  16.389  2.1851  0.9602 -1.0778
13821TIP3   OH262953   0.535   6.303   1.073 -0.1217  0.3213 -0.0411
13821TIP3    H162954   0.546   6.229   1.132  0.4589 -0.1248 -0.6994
13821TIP3    H262955   0.485   6.267   0.999  0.8501  0.3753 -0.7391
13822TIP3   OH262956   3.748   1.779  15.385 -0.0092  0.3298 -0.3410
13822TIP3    H162957   3.714   1.691  15.404  0.2637  0.2223 -0.3417
13822TIP3    H262958   3.699   1.837  15.442 -1.3688  0.3773 -1.5384
13823TIP3   OH262959   4.873   4.433  15.784  0.7912  0.1774  0.4677
13823TIP3    H162960   4.830   4.499  15.839  0.5379  0.8436 -0.5192
13823TIP3    H262961   4.902   4.482  15.707  2.7517 -0.3721  0.8106
13824TIP3   OH262962   2.649   0.929  15.504  0.3898 -0.1622 -0.7196
13824TIP3    H162963   2.705   0.903  15.577  0.2732 -0.2876 -0.6740
13824TIP3    H262964   2.625   0.847  15.462 -1.7350 -0.3254  0.7187
13825TIP3   OH262965   1.621   1.985  17.214  0.3146 -0.3775  0.3920
13825TIP3    H162966   1.641   2.048  17.145 -0.8074  0.9487  1.2343
13825TIP3    H262967   1.703   1.940  17.231  0.1335 -2.3830 -3.4035
13826TIP3   OH262968   6.797   4.332  11.303  0.1281 -0.3240  0.0468
13826TIP3    H162969   6.743   4.375  11.236 -0.0260  1.1528  1.0846
13826TIP3    H262970   6.802   4.396  11.374  1.3543 -1.3620  0.9194
13827TIP3   OH262971   2.009   3.778  17.003 -0.8347 -0.4630 -0.8503
13827TIP3    H162972   2.011   3.841  16.931 -0.5603 -0.2847 -0.6917
13827TIP3    H262973   1.916   3.771  17.026 -0.8247  0.1965 -0.5999
13828TIP3   OH262974   3.119   0.201   5.119 -0.0587 -0.1791  0.7402
13828TIP3    H162975   3.101   0.161   5.205 -0.2965 -0.3728  0.5996
13828TIP3    H262976   3.109   0.129   5.057 -1.3372  0.2916  0.3900
13829TIP3   OH262977   6.133   6.614  13.077 -0.4627  0.4465 -0.2539
13829TIP3    H162978   6.083   6.690  13.046  0.5751  0.4887 -1.8896
13829TIP3    H262979   6.222   6.647  13.090 -0.6787  0.2090  1.9664
13830TIP3   OH262980   5.463   0.732  13.402  0.5127 -0.5424  0.2300
13830TIP3    H162981   5.495   0.806  13.454 -2.6422  1.4755 -0.5581
13830TIP3    H262982   5.395   0.692  13.457 -0.6141 -0.3334 -0.9847
13831TIP3   OH262983   6.449   6.074  14.650  0.0744 -0.0243  0.2313
13831TIP3    H162984   6.480   6.101  14.736  0.1438  1.6640 -0.3009
13831TIP3    H262985   6.365   6.118  14.640  0.1806 -0.0198 -0.6563
13832TIP3   OH262986   1.814   0.497  13.116 -0.2248  0.1559  0.2358
13832TIP3    H162987   1.836   0.427  13.177 -3.0213 -0.5978  0.4508
13832TIP3    H262988   1.867   0.571  13.144  0.3502 -0.9139  2.0608
13833TIP3   OH262989   2.869   3.987  13.139  0.3033  0.1810  0.9757
13833TIP3    H162990   2.859   4.064  13.083 -0.8315 -0.5116  0.2196
13833TIP3    H262991   2.827   4.012  13.221  0.2607  0.4891  0.8626
13834TIP3   OH262992   2.601   3.951   1.257 -0.2285 -0.3376 -0.6873
13834TIP3    H162993   2.598   3.855   1.259  0.7222 -0.3641  0.7588
13834TIP3    H262994   2.546   3.978   1.330  0.3249  0.1868 -0.4574
13835TIP3   OH262995   0.709   4.719   4.592  0.0123 -0.0958  0.3782
13835TIP3    H162996   0.617   4.714   4.618  0.4618  2.5945  2.7695
13835TIP3    H262997   0.758   4.705   4.673  1.7526 -2.4284 -1.0411
13836TIP3   OH262998   2.328   3.192  13.271 -0.2410 -0.3593  0.0093
13836TIP3    H162999   2.279   3.268  13.304  1.1422  1.2819 -1.6165
13836TIP3    H263000   2.333   3.206  13.176  2.6885 -0.8734  0.0453
13837TIP3   OH263001   4.544   0.623  10.659  0.4915  0.3784 -0.6238
13837TIP3    H163002   4.526   0.630  10.565  1.3339  1.8433 -0.6899
13837TIP3    H263003   4.558   0.713  10.688 -0.2372 -0.0212  1.0138
13838TIP3   OH263004   1.548   0.207   2.750 -1.0752 -0.3017  0.1615
13838TIP3    H163005   1.482   0.240   2.810  2.1853  2.6710  2.2640
13838TIP3    H263006   1.585   0.285   2.708  1.2881 -1.8337 -0.7663
13839TIP3   OH263007   5.815   0.909   0.002  0.3147  0.4324 -0.2079
13839TIP3    H163008   5.840   0.846   0.069  0.2694  0.9367  0.2896
13839TIP3    H263009   5.830   0.995   0.043  0.1102  0.7392 -0.7732
13840TIP3   OH263010   1.196   6.328   0.768  0.3464 -0.9447 -0.8379
13840TIP3    H163011   1.215   6.383   0.844  0.1234 -0.8701 -0.8365
13840TIP3    H263012   1.238   6.244   0.788 -0.9212 -1.3896  0.0121
13841TIP3   OH263013   2.502   2.880   0.740 -0.2386  0.4150  0.5184
13841TIP3    H163014   2.526   2.960   0.786  0.1516  1.1198 -0.8807
13841TIP3    H263015   2.489   2.908   0.649 -0.5640 -1.0274  0.1129
13842TIP3   OH263016   2.346   2.376   4.288 -0.1554  0.2949  0.4049
13842TIP3    H163017   2.335   2.368   4.383 -2.5713 -1.3028  0.0357
13842TIP3    H263018   2.391   2.295   4.263 -1.4033 -0.2503 -0.0786
13843TIP3   OH263019   0.509   0.188   0.081  0.3545  0.0731  0.0860
13843TIP3    H163020   0.422   0.213   0.051  0.1621  1.1334  1.4561
13843TIP3    H263021   0.529   0.251   0.150  1.7638 -0.8165  0.5084
13844TIP3   OH263022   6.154   6.404  10.938 -0.4970  0.0651 -0.2300
13844TIP3    H163023   6.100   6.363  10.871 -1.9932  1.4886  0.0727
13844TIP3    H263024   6.243   6.376  10.917 -1.1843 -1.2183 -1.5368
13845TIP3   OH263025   1.742   4.364   1.441  0.5957 -0.3966  0.5666
13845TIP3    H163026   1.767   4.308   1.515  3.3674  0.0173 -0.0219
13845TIP3    H263027   1.777   4.319   1.364  0.5616  0.8386 -0.1728
13846TIP3   OH263028   6.019   4.670   5.554  0.0251  0.2941 -0.0729
13846TIP3    H163029   6.100   4.713   5.580  1.0458 -0.9819 -1.0671
13846TIP3    H263030   6.014   4.593   5.611 -1.0247  0.9261  0.6952
13847TIP3   OH263031   5.892   0.366  16.619 -0.3675  0.4171  0.8135
13847TIP3    H163032   5.861   0.301  16.682 -1.6004  0.3407  0.1533
13847TIP3    H263033   5.975   0.330  16.587 -1.1104 -0.9235  0.3455
13848TIP3   OH263034   2.190   2.376  12.120  0.1660  0.3242 -0.8384
13848TIP3    H163035   2.259   2.438  12.093  0.3493  2.7577  4.6151
13848TIP3    H263036   2.109   2.425  12.109  0.1148  0.7434  1.2692
13849TIP3   OH263037   2.503   3.868   2.924 -0.0361 -0.5771 -0.2062
13849TIP3    H163038   2.555   3.943   2.894 -0.1885  0.0175  0.9903
13849TIP3    H263039   2.481   3.821   2.844 -0.8775  1.2753 -1.0918
13850TIP3   OH263040   6.353   1.819   0.019  0.0907 -0.5820  0.1886
13850TIP3    H163041   6.332   1.912   0.014 -2.2572 -1.2132 -3.3032
13850TIP3    H263042   6.335   1.795   0.110 -1.2443  1.9143  0.6086
13851TIP3   OH263043   6.287   0.690  16.597  0.1364  0.1434  0.6629
13851TIP3    H163044   6.307   0.597  16.596  1.0188  0.3233 -0.0105
13851TIP3    H263045   6.302   0.719  16.507 -2.5217  0.4656  0.2949
13852TIP3   OH263046   6.719   1.995   6.817 -0.1151  0.2698  0.2813
13852TIP3    H163047   6.669   1.917   6.840 -0.7250  0.9774  1.3987
13852TIP3    H263048   6.786   1.964   6.756 -1.1440 -0.9003 -0.2661
13853TIP3   OH263049   0.630   4.675   0.888  0.0655 -0.5486  0.2950
13853TIP3    H163050   0.697   4.703   0.826  1.5281  0.0592  2.0929
13853TIP3    H263051   0.664   4.594   0.927 -0.9835 -1.1067  0.0903
13854TIP3   OH263052   4.276   0.498  15.405 -0.4613 -0.4714  0.7223
13854TIP3    H163053   4.260   0.448  15.485  0.3864 -0.4759  0.8908
13854TIP3    H263054   4.312   0.434  15.344 -0.0090 -0.2220  0.7210
13855TIP3   OH263055   3.997   3.526  15.180  0.2346 -0.7046  0.0158
13855TIP3    H163056   3.917   3.525  15.233  1.3892 -1.2977  1.7763
13855TIP3    H263057   4.058   3.581  15.229  1.3906 -1.4376 -0.5950
13856TIP3   OH263058   2.273   5.090   0.212 -0.4933  0.2040  0.3488
13856TIP3    H163059   2.331   5.071   0.139  0.5771  0.2776  1.1605
13856TIP3    H263060   2.197   5.132   0.173 -1.5911 -3.0467 -1.1649
13857TIP3   OH263061   5.312   4.901  11.886  0.1306  0.7161  0.0466
13857TIP3    H163062   5.227   4.882  11.847  0.7709 -0.4551 -0.8102
13857TIP3    H263063   5.324   4.832  11.952  0.8915  0.2358 -0.5852
13858TIP3   OH263064   4.044   0.912  14.759  0.4732  0.2603 -0.0361
13858TIP3    H163065   4.089   0.994  14.737  0.4307  0.1560 -0.5146
13858TIP3    H263066   4.101   0.843  14.724  0.7842  0.0612  0.8534
13859TIP3   OH263067   1.451   5.252   0.237  0.2635  0.7554  0.7649
13859TIP3    H163068   1.491   5.238   0.322 -0.4076  3.1732  1.5330
13859TIP3    H263069   1.376   5.192   0.235  3.0033 -2.7607 -0.1108
13860TIP3   OH263070   0.067   1.129  11.607 -0.0469 -0.7479 -0.0412
13860TIP3    H163071   0.104   1.053  11.652 -1.5474 -1.5814 -0.1653
13860TIP3    H263072   0.007   1.168  11.671 -0.3280 -0.4896 -0.4605
13861TIP3   OH263073   5.900   0.270   5.998 -0.3626  0.0216 -0.1210
13861TIP3    H163074   5.846   0.251   6.075 -0.1493 -1.1069 -0.2459
13861TIP3    H263075   5.849   0.334   5.948 -1.0309 -0.1228  0.3745
13862TIP3   OH263076   4.474   5.914  16.436  0.3646 -0.4830  0.2080
13862TIP3    H163077   4.435   5.827  16.440  0.9953 -0.7119  2.0671
13862TIP3    H263078   4.455   5.952  16.522 -0.3697  1.4330 -0.7689
13863TIP3   OH263079   4.698   4.721   5.556 -0.7377 -1.2594  0.3016
13863TIP3    H163080   4.783   4.680   5.539  0.5852  2.0972 -1.6781
13863TIP3    H263081   4.640   4.686   5.488  0.3101 -0.0961 -1.2145
13864TIP3   OH263082   4.078   2.926  11.511 -0.1803 -0.3356 -0.5646
13864TIP3    H163083   4.107   2.972  11.432  0.3505  0.1677 -0.0817
13864TIP3    H263084   4.159   2.898  11.553 -0.4467 -0.1790  0.0523
13865TIP3   OH263085   0.926   3.477   1.670  0.1139  0.0705 -0.5378
13865TIP3    H163086   0.909   3.559   1.623 -2.0986 -0.8567 -1.4194
13865TIP3    H263087   0.980   3.426   1.610 -0.5844 -0.0932 -1.0355
13866TIP3   OH263088   0.228   6.370   2.762  0.4470 -0.0327  0.5854
13866TIP3    H163089   0.276   6.401   2.839  0.9368  0.1134  0.2235
13866TIP3    H263090   0.169   6.302   2.796 -0.3650  1.0229  1.3248
13867TIP3   OH263091   5.768   2.014  15.823  0.4792  0.0376  0.1872
13867TIP3    H163092   5.722   2.053  15.897  0.5463  0.8480 -0.1972
13867TIP3    H263093   5.707   2.021  15.749  0.6332 -0.2450  0.0327
13868TIP3   OH263094   0.331   1.722   1.450  0.2458 -0.1391  0.4483
13868TIP3    H163095   0.348   1.628   1.440  0.5406  0.0002 -0.3496
13868TIP3    H263096   0.374   1.763   1.375 -0.1435  0.6080  0.6272
13869TIP3   OH263097   6.293   5.721   0.849 -0.0283  0.0976 -0.3707
13869TIP3    H163098   6.327   5.709   0.760  1.6904  0.4018  0.2096
13869TIP3    H263099   6.216   5.666   0.853  0.6287 -0.9518 -1.6359
13870TIP3   OH263100   1.642   2.006  12.906  0.1161 -0.1058 -0.1623
13870TIP3    H163101   1.711   2.067  12.880  0.6504 -0.0398  1.3589
13870TIP3    H263102   1.608   2.042  12.988 -0.9077 -0.7892 -0.2852
13871TIP3   OH263103   5.834   3.671  12.610  0.1111 -0.2426  0.0081
13871TIP3    H163104   5.791   3.586  12.609 -1.1530  0.3893 -1.9925
13871TIP3    H263105   5.846   3.693  12.518  2.7663  0.5991  0.5157
13872TIP3   OH263106   3.128   3.932   0.262 -0.6043  0.1995 -0.7953
13872TIP3    H163107   3.224   3.929   0.263 -0.6182 -1.0692 -1.1748
13872TIP3    H263108   3.104   3.961   0.349  0.1355  1.0549 -0.8619
13873TIP3   OH263109   3.859   6.662  13.695  0.0123 -0.1324  0.9723
13873TIP3    H163110   3.820   6.695  13.776 -0.4564 -1.1371  1.1661
13873TIP3    H263111   3.790   6.609  13.655  1.1211 -1.8388  1.2581
13874TIP3   OH263112   5.041   4.396   0.116  0.1735 -0.2123  0.4525
13874TIP3    H163113   5.104   4.364   0.052  0.1152 -0.7950  0.6864
13874TIP3    H263114   5.092   4.404   0.197  0.5170  1.5882  0.0724
13875TIP3   OH263115   3.575   3.824   5.571 -0.9070 -0.0605  0.4270
13875TIP3    H163116   3.557   3.826   5.665  2.4399 -0.6377  1.1670
13875TIP3    H263117   3.525   3.897   5.535 -2.0845  0.2921  2.6730
13876TIP3   OH263118   2.719   4.357   6.036  0.1654 -0.6684  0.7652
13876TIP3    H163119   2.671   4.359   6.119 -1.6720  1.7255 -0.2646
13876TIP3    H263120   2.727   4.449   6.011  4.8379 -1.0290  0.5455
13877TIP3   OH263121   2.770   0.694  14.879 -0.1318 -0.1921 -0.0898
13877TIP3    H163122   2.745   0.603  14.891 -1.8254  0.1112 -1.1794
13877TIP3    H263123   2.775   0.705  14.784  1.0056  0.6001  0.0572
13878TIP3   OH263124   0.221   6.164   4.396 -0.4788 -0.3243  0.3932
13878TIP3    H163125   0.197   6.126   4.311 -0.2776 -0.3629  0.3546
13878TIP3    H263126   0.151   6.135   4.455 -1.0711  0.4097  0.0596
13879TIP3   OH263127   3.602   6.080  17.206  0.0466  0.3782 -0.3441
13879TIP3    H163128   3.621   6.061  17.114 -1.5540  0.8518 -0.7944
13879TIP3    H263129   3.657   6.019  17.255  0.5700 -0.2022 -1.6280
13880TIP3   OH263130   1.460   6.367   2.975 -0.4557  0.0048  0.7889
13880TIP3    H163131   1.452   6.404   2.887  0.4286 -0.8593  0.3382
13880TIP3    H263132   1.380   6.316   2.988  0.4638 -1.7664 -0.4253
13881TIP3   OH263133   0.895   1.229  11.750 -0.2566 -0.5221  0.1563
13881TIP3    H163134   0.936   1.310  11.781 -0.8053 -0.3997  0.5792
13881TIP3    H263135   0.902   1.233  11.655 -0.5280  0.1544  0.1660
13882TIP3   OH263136   5.291   3.944   2.356  0.0589 -0.5182 -0.0204
13882TIP3    H163137   5.315   3.858   2.392 -0.7692  0.2150  2.3709
13882TIP3    H263138   5.235   3.983   2.423 -0.4916  1.4423 -1.5890
13883TIP3   OH263139   3.664   4.431  15.331 -0.1047  0.5723 -0.6340
13883TIP3    H163140   3.639   4.402  15.243 -0.0832  0.9820 -0.7750
13883TIP3    H263141   3.754   4.461  15.322  0.5973 -1.2752 -0.0441
13884TIP3   OH263142   2.409   6.230  14.048  0.6849 -0.0467 -0.0223
13884TIP3    H163143   2.428   6.177  14.126 -1.0292  0.9257  1.0862
13884TIP3    H263144   2.331   6.188  14.010  0.0308  0.9696  0.1949
13885TIP3   OH263145   3.376   4.944  14.394  0.1688  0.1781 -1.1624
13885TIP3    H163146   3.369   4.879  14.324  0.0213  0.5491 -1.4935
13885TIP3    H263147   3.426   5.016  14.355  1.4969 -0.3046 -0.3845
13886TIP3   OH263148   0.756   6.325   5.979  0.6285  0.0459  0.0749
13886TIP3    H163149   0.773   6.384   5.906 -1.2367 -0.7530 -1.0317
13886TIP3    H263150   0.710   6.378   6.043 -0.6373 -0.0610 -0.7258
13887TIP3   OH263151   2.873   0.198   3.685  0.6784  0.5057 -0.1714
13887TIP3    H163152   2.788   0.240   3.669  0.0417 -0.3004  0.9931
13887TIP3    H263153   2.923   0.263   3.733  1.0421  1.3119 -1.6238
13888TIP3   OH263154   1.265   1.211   2.805  0.0356 -0.0674 -0.1030
13888TIP3    H163155   1.301   1.266   2.874 -1.3775  0.0617  0.5589
13888TIP3    H263156   1.179   1.250   2.787 -0.3165 -1.1300 -0.7138
13889TIP3   OH263157   1.955   5.944   5.959 -0.1931  0.0575  0.6912
13889TIP3    H163158   2.044   5.927   5.930 -0.9823  0.9762 -2.5707
13889TIP3    H263159   1.933   5.870   6.016  2.2236 -0.7638  0.6115
13890TIP3   OH263160   4.389   3.876  14.760  0.1647  0.4370 -0.5302
13890TIP3    H163161   4.323   3.944  14.771 -0.3293 -0.1613  0.2568
13890TIP3    H263162   4.339   3.797  14.738  0.6847  0.1850 -0.8225
13891TIP3   OH263163   6.795   1.123  11.257 -0.2180  0.3592  0.5028
13891TIP3    H163164   6.801   1.199  11.314  0.1138 -0.3516  1.4266
13891TIP3    H263165   6.870   1.069  11.281 -1.1928 -0.8963  0.7962
13892TIP3   OH263166   2.251   1.286   5.761 -0.2468 -0.0067  0.2481
13892TIP3    H163167   2.191   1.238   5.817 -1.0761  0.7471  0.0131
13892TIP3    H263168   2.223   1.377   5.767  0.9328  0.3744  0.2157
13893TIP3   OH263169   0.682   0.024  12.091 -0.7255 -0.1830  0.3570
13893TIP3    H163170   0.696  -0.045  12.157 -0.4806 -0.2838  0.1986
13893TIP3    H263171   0.629   0.089  12.137 -1.6526 -0.8521  0.2604
13894TIP3   OH263172   0.332   0.624   3.291  0.3374  0.5350 -0.1412
13894TIP3    H163173   0.277   0.639   3.367 -0.0237  1.0088 -0.4994
13894TIP3    H263174   0.422   0.636   3.323  0.2195  0.0844  0.3610
13895TIP3   OH263175   6.692   0.502  16.773  0.3590 -0.7531  0.2278
13895TIP3    H163176   6.664   0.456  16.852  2.0554 -1.9708  0.1389
13895TIP3    H263177   6.741   0.437  16.722  0.5409  0.4181 -1.1414
13896TIP3   OH263178   1.551   2.312   2.971 -0.1304 -0.3202  0.6239
13896TIP3    H163179   1.643   2.323   2.992 -0.2711  2.1905  0.1231
13896TIP3    H263180   1.506   2.323   3.055 -0.1292  1.1333  0.4469
13897TIP3   OH263181   3.311   4.390  16.901 -0.3963 -0.2693 -0.8689
13897TIP3    H163182   3.253   4.366  16.829 -0.8625  1.9498 -1.2802
13897TIP3    H263183   3.376   4.447  16.861  0.5515 -0.6747  0.0849
13898TIP3   OH263184   4.071   4.571  13.253  0.3577  0.2078 -0.1730
13898TIP3    H163185   4.083   4.479  13.279  1.7076  0.4872  0.2273
13898TIP3    H263186   4.004   4.568  13.185  1.6700 -1.2792 -1.4385
13899TIP3   OH263187   4.310   0.694   4.871  0.1512  0.2158 -0.0658
13899TIP3    H163188   4.220   0.666   4.891  0.1285  0.0015 -0.4614
13899TIP3    H263189   4.361   0.613   4.870 -0.3548 -0.1409 -3.5679
13900TIP3   OH263190   1.033   6.552   2.575 -0.2982 -0.0117 -0.2556
13900TIP3    H163191   1.069   6.633   2.611  0.6098  0.5512 -2.3233
13900TIP3    H263192   1.110   6.498   2.555 -0.8380 -0.8157 -0.2051
13901TIP3   OH263193   1.793   3.468   3.123 -0.1101  0.7832  0.4946
13901TIP3    H163194   1.795   3.531   3.195  0.5845 -1.6347  2.6727
13901TIP3    H263195   1.712   3.419   3.135  0.2289  0.0562 -0.1318
13902TIP3   OH263196   3.737   4.897   4.781  0.4158  0.1798  0.5266
13902TIP3    H163197   3.806   4.832   4.798 -0.4885 -0.7679  0.6257
13902TIP3    H263198   3.739   4.910   4.687  1.0425  0.5077  0.5829
13903TIP3   OH263199   5.112   3.311   4.569  0.0170 -0.2117 -0.0721
13903TIP3    H163200   5.094   3.341   4.658  1.0855  0.7349 -0.1589
13903TIP3    H263201   5.208   3.307   4.564  0.0322  1.5508 -1.7417
13904TIP3   OH263202   1.245   5.514   6.065  0.3646 -0.0649  0.6575
13904TIP3    H163203   1.211   5.435   6.107  0.6373 -0.6582 -0.2303
13904TIP3    H263204   1.320   5.540   6.119 -0.5284  0.3579  1.7149
13905TIP3   OH263205   1.766   2.455   3.852 -0.3824 -0.5878 -0.3041
13905TIP3    H163206   1.848   2.429   3.893  0.4581  1.8891 -0.2825
13905TIP3    H263207   1.712   2.376   3.851  1.9501 -2.2147 -0.1963
13906TIP3   OH263208   5.666   1.763  11.476  0.1148 -0.0318 -0.2337
13906TIP3    H163209   5.596   1.826  11.460  0.6516  1.0897  1.6081
13906TIP3    H263210   5.741   1.798  11.427 -0.1379 -0.3394 -0.8493
13907TIP3   OH263211   0.809   3.660   6.071  0.2791  0.1409  0.4296
13907TIP3    H163212   0.822   3.748   6.036  2.1577 -0.8306 -1.3889
13907TIP3    H263213   0.747   3.619   6.011  1.9987 -0.8670 -0.7103
13908TIP3   OH263214   1.006   5.583  14.481  0.5795  0.0540  0.2931
13908TIP3    H163215   0.943   5.634  14.532  0.8386  0.1618  0.5053
13908TIP3    H263216   0.984   5.491  14.500  0.1536  0.0827 -0.0420
13909TIP3   OH263217   5.831   1.800   5.001 -0.4249  0.0635 -0.7680
13909TIP3    H163218   5.749   1.837   5.035 -0.0617 -0.4869  0.7258
13909TIP3    H263219   5.894   1.871   5.010 -0.1677 -0.3079  0.3493
13910TIP3   OH263220   4.518   4.392   4.743  0.1894 -0.2270 -0.2740
13910TIP3    H163221   4.559   4.424   4.824 -0.2671 -0.0354 -0.1203
13910TIP3    H263222   4.449   4.333   4.773 -0.0202 -0.1096 -0.5219
13911TIP3   OH263223   3.009   1.727  11.753 -0.8234 -0.1024  0.8803
13911TIP3    H163224   3.018   1.753  11.844  2.1371  0.2171  0.5528
13911TIP3    H263225   3.094   1.689  11.730 -1.5000 -0.1571 -1.7536
13912TIP3   OH263226   0.337   2.293  15.856 -0.5854 -0.1881  0.1225
13912TIP3    H163227   0.317   2.200  15.842 -3.1538  0.2360  0.7008
13912TIP3    H263228   0.365   2.324  15.770  0.2188 -1.4684 -0.0986
13913TIP3   OH263229   4.152   1.631   5.225 -0.8475  0.3697  0.1826
13913TIP3    H163230   4.216   1.669   5.165 -1.2682  1.0368  0.1573
13913TIP3    H263231   4.101   1.705   5.257 -0.0839  0.1371  2.0406
13914TIP3   OH263232   1.231   1.798   2.206  0.2195  0.3737  0.7573
13914TIP3    H163233   1.288   1.870   2.177  2.4152 -2.3128 -1.8473
13914TIP3    H263234   1.271   1.766   2.287 -0.1843  1.3686  1.3666
13915TIP3   OH263235   6.513   4.774   6.222  0.2844 -0.4697  0.1715
13915TIP3    H163236   6.495   4.681   6.211  0.4832 -0.5161  0.2335
13915TIP3    H263237   6.609   4.781   6.215  0.2489 -0.2350 -0.0962
13916TIP3   OH263238   0.005   4.877  16.001 -0.1233 -0.1555 -0.3120
13916TIP3    H163239   0.024   4.968  15.981 -0.4653  0.1197  0.6012
13916TIP3    H263240  -0.014   4.838  15.916  0.3486  0.5454 -0.7432
13917TIP3   OH263241   5.977   3.152  13.963  0.1709 -0.5355 -0.1213
13917TIP3    H163242   5.998   3.094  14.036  1.7686  0.3075  0.1208
13917TIP3    H263243   6.062   3.169  13.921 -0.6698 -0.7097 -1.9443
13918TIP3   OH263244   6.413   3.469  12.843 -0.3414 -0.1964  0.5813
13918TIP3    H163245   6.348   3.399  12.840  0.1829 -0.7391  1.5296
13918TIP3    H263246   6.439   3.474  12.935 -1.7405  2.5280  0.8799
13919TIP3   OH263247   6.466   4.026  15.101  0.4639  0.1471  0.5278
13919TIP3    H163248   6.481   3.999  15.011  0.8222  0.4622  0.4951
13919TIP3    H263249   6.540   3.990  15.150  0.3399  0.0897  0.6734
13920TIP3   OH263250   3.142   2.368   4.711 -0.2165 -0.0854 -0.0700
13920TIP3    H163251   3.144   2.282   4.754 -0.5900  0.4094  0.9570
13920TIP3    H263252   3.055   2.402   4.732  0.7188  1.4732  1.4006
13921TIP3   OH263253   5.759   4.041  12.721  0.3567 -0.4001  0.4759
13921TIP3    H163254   5.760   4.111  12.655  0.9211 -0.9277 -0.0907
13921TIP3    H263255   5.702   3.974  12.683 -0.4208 -0.1089  1.1519
13922TIP3   OH263256   1.681   2.072   2.872 -0.3483 -0.0586 -0.4415
13922TIP3    H163257   1.690   2.018   2.950 -0.5442 -0.0925 -0.4425
13922TIP3    H263258   1.610   2.133   2.892 -1.6097 -1.2388 -1.2612
13923TIP3   OH263259   4.094   5.780   1.238 -0.1546 -0.7647  0.1689
13923TIP3    H163260   4.095   5.771   1.143 -0.1119  0.7510  0.0177
13923TIP3    H263261   4.012   5.738   1.265  0.2771 -2.0363 -0.4278
13924TIP3   OH263262   0.713   5.989  15.191 -0.1856 -0.3148 -0.1890
13924TIP3    H163263   0.717   6.011  15.098  1.3176 -2.0204 -0.5524
13924TIP3    H263264   0.624   6.014  15.217 -0.5913  0.2903 -2.0447
13925TIP3   OH263265   4.315   4.517  13.764  0.0229  0.0828 -0.5419
13925TIP3    H163266   4.328   4.483  13.675 -0.1443 -1.0839 -0.1333
13925TIP3    H263267   4.382   4.472  13.817  0.0004  0.6285 -0.0445
13926TIP3   OH263268   4.325   4.445   3.876  0.8023  0.1251 -0.2077
13926TIP3    H163269   4.322   4.391   3.955 -1.0636  0.5437  0.0127
13926TIP3    H263270   4.364   4.527   3.904  0.1839  0.2550  0.2617
13927TIP3   OH263271   6.456   3.555  13.817 -0.1655  0.0732  0.3326
13927TIP3    H163272   6.369   3.586  13.844  0.2860  1.3312  0.3670
13927TIP3    H263273   6.517   3.617  13.855  0.6433  0.2426 -1.1976
13928TIP3   OH263274   3.142   3.969  16.977 -0.2678 -0.5117 -0.0989
13928TIP3    H163275   3.141   3.884  16.934 -0.1316 -2.1783  3.0999
13928TIP3    H263276   3.235   3.993  16.980 -0.2727 -0.4163 -0.6614
13929TIP3   OH263277   0.357   6.459   0.711  0.5425 -0.8097  0.4589
13929TIP3    H163278   0.384   6.521   0.779  0.0870  0.8774 -0.8574
13929TIP3    H263279   0.435   6.407   0.692  1.3054  0.2673  0.6417
13930TIP3   OH263280   0.542   2.118  14.991 -0.2423  0.0565 -0.1041
13930TIP3    H163281   0.622   2.156  14.956  0.2589 -1.0101 -0.1413
13930TIP3    H263282   0.493   2.192  15.026  0.5355  0.7730 -0.5328
13931TIP3   OH263283   0.311   0.601  15.365  0.4649 -0.1019  0.0717
13931TIP3    H163284   0.331   0.608  15.272 -0.3763  0.1484 -0.0908
13931TIP3    H263285   0.220   0.629  15.372  0.1515 -1.2810  0.8032
13932TIP3   OH263286   2.066   2.758   2.939  0.0178 -0.3472 -1.1436
13932TIP3    H163287   2.087   2.711   3.019 -0.8309  0.7792 -0.2431
13932TIP3    H263288   2.105   2.845   2.951  0.7265 -0.4879 -2.3611
13933TIP3   OH263289   2.379   4.309  11.592 -0.4295  0.0849  0.0043
13933TIP3    H163290   2.353   4.355  11.513  0.4718 -1.7550 -1.3942
13933TIP3    H263291   2.471   4.332  11.604 -0.2185 -0.6597 -0.1966
13934TIP3   OH263292   0.575   0.518  11.777  0.2454  0.3871  0.1997
13934TIP3    H163293   0.544   0.442  11.728  0.6728 -0.6729  1.5244
13934TIP3    H263294   0.511   0.528  11.848  0.0785  1.3944 -0.0911
13935TIP3   OH263295   2.420   1.093   6.617  0.2833 -0.2890 -0.0494
13935TIP3    H163296   2.404   1.002   6.593 -2.5668  0.0619  0.3348
13935TIP3    H263297   2.481   1.125   6.550  0.4607 -2.1697 -0.8100
13936TIP3   OH263298   5.940   2.310   1.292  0.0519  0.1696  0.1919
13936TIP3    H163299   6.010   2.266   1.340 -1.5132 -2.4525  0.1580
13936TIP3    H263300   5.891   2.358   1.358  0.5831  0.2362  0.5366
13937TIP3   OH263301   6.735   3.075  13.297 -0.5010 -0.2091  0.1341
13937TIP3    H163302   6.734   3.027  13.380 -0.6433 -0.7542 -0.1797
13937TIP3    H263303   6.774   3.159  13.318 -0.2338 -0.4726  0.6904
13938TIP3   OH263304   3.140   3.264  10.571 -0.1133 -0.4845 -0.1785
13938TIP3    H163305   3.149   3.352  10.536 -2.1520 -0.8155 -1.6903
13938TIP3    H263306   3.219   3.218  10.543  1.5596  1.1875  1.7218
13939TIP3   OH263307   4.110   5.280  15.050 -0.6523 -0.1896 -0.0348
13939TIP3    H163308   4.095   5.347  15.117 -0.1522 -0.4476  0.3334
13939TIP3    H263309   4.059   5.310  14.975  2.0586  2.2450 -0.9800
13940TIP3   OH263310   3.582   2.273  11.546 -0.0192  0.5942  0.0018
13940TIP3    H163311   3.543   2.347  11.499  0.3256  0.3673 -0.6457
13940TIP3    H263312   3.544   2.278  11.634 -0.4156  1.2168 -0.2007
13941TIP3   OH263313   2.822   0.120  11.950 -0.3397 -0.2754 -0.3083
13941TIP3    H163314   2.740   0.115  12.000  0.3909 -0.5684  0.8722
13941TIP3    H263315   2.889   0.134  12.016  0.6908 -1.0616 -1.1855
13942TIP3   OH263316   2.200   0.951  12.445  0.1021  0.7711 -0.4934
13942TIP3    H163317   2.217   0.860  12.467  0.0582  0.3866 -1.9856
13942TIP3    H263318   2.282   0.983  12.408  1.3983  2.5232  3.6172
13943TIP3   OH263319   1.249   2.175  12.659 -0.3731  0.2484  0.1387
13943TIP3    H163320   1.262   2.110  12.728 -1.2720  1.4798  1.5118
13943TIP3    H263321   1.223   2.124  12.582 -1.5519 -0.9714  1.3179
13944TIP3   OH263322   6.048   1.538  16.552 -0.1285  0.1452 -0.6467
13944TIP3    H163323   6.130   1.510  16.592 -0.8543 -0.4378  0.4278
13944TIP3    H263324   6.004   1.457  16.527 -0.3353  0.4604 -1.3265
13945TIP3   OH263325   5.250   3.040  14.169  0.1894 -0.2924 -0.1087
13945TIP3    H163326   5.252   2.947  14.192 -1.7123 -0.7797 -1.7841
13945TIP3    H263327   5.238   3.084  14.253 -1.4449 -1.7214  0.4485
13946TIP3   OH263328   0.492   0.358   5.755 -0.4068 -0.0420  0.2536
13946TIP3    H163329   0.580   0.395   5.745 -1.1374  1.8211  0.4619
13946TIP3    H263330   0.506   0.275   5.801  1.1150  0.9411  1.6386
13947TIP3   OH263331   2.241   3.798   1.425 -0.7902 -0.0390 -0.8108
13947TIP3    H163332   2.311   3.735   1.411 -1.1359 -0.5148 -0.3955
13947TIP3    H263333   2.228   3.799   1.520 -1.5803 -0.2056 -0.9162
13948TIP3   OH263334   3.982   0.238  12.127 -0.5333 -0.7896  0.4488
13948TIP3    H163335   3.969   0.323  12.171  0.3449  0.2523 -1.2367
13948TIP3    H263336   4.015   0.180  12.195 -0.3288  0.4590  1.4326
13949TIP3   OH263337   0.244   2.744  13.557 -0.4597  0.0090 -0.4675
13949TIP3    H163338   0.261   2.826  13.603 -2.2161 -0.9912  2.0259
13949TIP3    H263339   0.235   2.770  13.465 -0.7111  2.5794  0.2471
13950TIP3   OH263340   3.815   3.796  13.120  0.5010 -0.3248 -0.4121
13950TIP3    H163341   3.756   3.838  13.058 -0.3064  0.3147  0.7619
13950TIP3    H263342   3.813   3.703  13.096 -3.4383 -0.8565  1.4845
13951TIP3   OH263343   1.505   0.265   5.166 -0.2809 -0.0252 -0.3473
13951TIP3    H163344   1.436   0.319   5.128 -0.3908  0.4424  0.4940
13951TIP3    H263345   1.464   0.222   5.241  0.4322  0.5530  0.3874
13952TIP3   OH263346   2.719   0.850  12.149 -0.0490 -0.0787 -0.0941
13952TIP3    H163347   2.628   0.823  12.157 -0.3665  0.9101 -0.3741
13952TIP3    H263348   2.735   0.855  12.055  0.5743 -1.1798 -0.0554
13953TIP3   OH263349   2.697   2.494  11.013  0.3294 -0.4915 -0.2704
13953TIP3    H163350   2.673   2.401  11.005  0.4454 -0.5276 -0.1946
13953TIP3    H263351   2.624   2.540  10.972  0.1836 -0.6069 -0.1459
13954TIP3   OH263352   4.036   1.273  11.778 -0.3186 -0.1805 -0.5559
13954TIP3    H163353   4.031   1.369  11.780  0.9099 -0.1172  0.2976
13954TIP3    H263354   4.112   1.254  11.724  1.8061 -0.5416  2.4146
13955TIP3   OH263355   4.888   2.645  15.630  0.1059  0.8232  0.7378
13955TIP3    H163356   4.934   2.579  15.682  0.0809  0.5414  0.4030
13955TIP3    H263357   4.796   2.622  15.637  0.2171 -0.1535 -0.7081
13956TIP3   OH263358   1.571   6.591   4.503 -0.1257 -0.0886  0.1896
13956TIP3    H163359   1.608   6.644   4.574 -1.3286  0.9649  0.0486
13956TIP3    H263360   1.623   6.616   4.426  0.2166 -0.1364  0.4059
13957TIP3   OH263361   4.035   2.264   6.290 -0.1395  0.2134 -0.2076
13957TIP3    H163362   4.055   2.338   6.233  0.1024 -1.0530 -1.8152
13957TIP3    H263363   3.996   2.303   6.368  1.3240  2.1246 -0.4032
13958TIP3   OH263364   4.770   3.117  13.268  0.3142  0.4215  0.5903
13958TIP3    H163365   4.822   3.178  13.320  0.4985  0.4163  0.4149
13958TIP3    H263366   4.771   3.153  13.180 -0.5450  0.7773  0.7213
13959TIP3   OH263367   0.026   4.048  12.885 -0.0079 -0.1895  0.0739
13959TIP3    H163368   0.107   4.055  12.936 -0.5514  0.3228  0.8858
13959TIP3    H263369  -0.015   4.134  12.895 -1.4354 -0.9735  0.9949
13960TIP3   OH263370   2.724   4.692   1.184  0.8510  0.0090  0.6864
13960TIP3    H163371   2.692   4.653   1.265 -1.9610 -0.0499 -0.4148
13960TIP3    H263372   2.673   4.651   1.114 -0.6442  3.9445 -0.6819
13961TIP3   OH263373   1.461   1.946   4.544  0.0672 -0.3298 -0.0318
13961TIP3    H163374   1.423   2.019   4.495  0.9318  0.4988  0.5232
13961TIP3    H263375   1.532   1.985   4.594 -0.7168 -1.1863  1.7991
13962TIP3   OH263376   2.946   2.668   4.369 -0.6876 -0.5853 -0.1635
13962TIP3    H163377   2.951   2.662   4.274 -1.3036 -2.4947 -0.1036
13962TIP3    H263378   3.010   2.603   4.400 -0.7109 -0.1884  0.7183
13963TIP3   OH263379   5.317   4.257   2.982 -0.1360  0.3952 -0.7142
13963TIP3    H163380   5.307   4.322   3.052  0.0049 -1.3798  0.9865
13963TIP3    H263381   5.406   4.223   2.994 -1.0618 -1.8748 -0.0276
13964TIP3   OH263382   2.052   3.012   4.237  0.1225 -0.5185  0.1133
13964TIP3    H163383   2.144   3.035   4.222  0.6383 -1.7900  1.1793
13964TIP3    H263384   2.046   2.919   4.212 -1.3360  0.0667 -1.8188
13965TIP3   OH263385   0.701   0.411  12.910 -0.6181  0.5271 -0.2778
13965TIP3    H163386   0.763   0.414  12.983  0.3782  0.0299 -1.1042
13965TIP3    H263387   0.632   0.472  12.936  0.0463  0.8382  0.7977
13966TIP3   OH263388   0.866   0.114  14.668  0.5176  0.3084  0.2949
13966TIP3    H163389   0.893   0.023  14.661 -0.2583  0.1952 -1.4397
13966TIP3    H263390   0.924   0.162  14.608  0.9631  0.9725  1.2403
13967TIP3   OH263391   5.061   0.881  15.348  0.0387 -0.4725  0.4849
13967TIP3    H163392   5.031   0.884  15.258  0.5984  1.4884  0.3290
13967TIP3    H263393   4.996   0.828  15.394 -0.9461 -0.4051 -0.8139
13968TIP3   OH263394   2.137   6.259   2.296 -0.2379  0.0993 -0.4592
13968TIP3    H163395   2.126   6.178   2.245  1.2212  0.1957 -0.9361
13968TIP3    H263396   2.072   6.251   2.366 -0.6494 -1.1269 -0.9542
13969TIP3   OH263397   0.673   3.649  12.717 -0.0284 -0.3007  0.6646
13969TIP3    H163398   0.647   3.696  12.796 -1.8866  1.6362 -1.0370
13969TIP3    H263399   0.746   3.700  12.681  0.1268 -0.5824  0.5787
13970TIP3   OH263400   6.029   2.024  16.359 -0.4605  0.3853  0.5440
13970TIP3    H163401   6.025   1.930  16.340 -0.6476  0.3740  0.6321
13970TIP3    H263402   6.109   2.054  16.317  0.5886 -0.1659  2.0929
13971TIP3   OH263403   5.436   3.399  15.118 -0.3433  0.3206 -0.3001
13971TIP3    H163404   5.356   3.378  15.166 -1.2210  0.7278 -1.5578
13971TIP3    H263405   5.451   3.322  15.063 -0.2862  0.5456 -0.5979
13972TIP3   OH263406   2.768   5.468   1.238 -0.4163  0.1913  0.5154
13972TIP3    H163407   2.758   5.379   1.204 -0.4373  0.4102 -0.0555
13972TIP3    H263408   2.863   5.481   1.245 -0.3766  0.6057 -0.6913
13973TIP3   OH263409   2.848   4.504  14.133  0.0133  0.5510  0.6920
13973TIP3    H163410   2.808   4.418  14.117  0.0437  0.5037  0.8676
13973TIP3    H263411   2.858   4.508  14.228 -2.3009  1.7603  0.9423
13974TIP3   OH263412   6.666   0.449   0.242 -0.2505 -0.0766 -0.2499
13974TIP3    H163413   6.739   0.447   0.180 -0.1253 -0.7107 -0.0823
13974TIP3    H263414   6.609   0.378   0.214 -0.0152 -0.5942  0.5870
13975TIP3   OH263415   5.430   4.410   5.384 -0.6464  0.1441 -0.5029
13975TIP3    H163416   5.399   4.436   5.297  1.2234 -2.8246 -2.1596
13975TIP3    H263417   5.352   4.378   5.429 -1.6854  1.9665 -0.9735
13976TIP3   OH263418   3.144   5.644  14.007  0.6632 -0.2493  0.5588
13976TIP3    H163419   3.129   5.703  13.933  2.6684  1.8395  1.7739
13976TIP3    H263420   3.084   5.675  14.075 -1.7934 -2.6898 -0.3840
13977TIP3   OH263421   6.599   1.716   2.523  0.2641 -0.2899 -0.2525
13977TIP3    H163422   6.522   1.702   2.469  0.0255  0.7974 -0.1997
13977TIP3    H263423   6.578   1.794   2.575  0.9352 -0.6675  0.5901
13978TIP3   OH263424   0.461   0.496   5.376  0.0270 -0.6618  0.8688
13978TIP3    H163425   0.520   0.437   5.330 -0.1133  0.0791 -0.2749
13978TIP3    H263426   0.387   0.441   5.401 -0.2072 -0.9315 -0.3873
13979TIP3   OH263427   4.096   5.588  14.984  0.0117 -0.5903  0.3246
13979TIP3    H163428   4.019   5.629  14.945 -0.0631 -0.9505  0.0852
13979TIP3    H263429   4.071   5.572  15.075 -0.8187 -2.2324 -0.1739
13980TIP3   OH263430   3.437   5.996  11.913  0.6486  0.1496  0.4597
13980TIP3    H163431   3.450   5.902  11.902 -1.7606 -0.1544  0.0735
13980TIP3    H263432   3.473   6.015  12.000  1.5223 -1.0343  0.3743
13981TIP3   OH263433   4.184   4.965   3.558 -0.5556  0.5213 -0.3631
13981TIP3    H163434   4.116   4.928   3.503  0.8720 -0.9701 -1.1448
13981TIP3    H263435   4.172   4.922   3.643 -0.7154  0.4250 -0.4344
13982TIP3   OH263436   0.608   0.522   1.089  0.0269  1.0159 -0.0121
13982TIP3    H163437   0.541   0.530   1.021 -0.6049 -1.4289  0.2357
13982TIP3    H263438   0.575   0.451   1.145  2.3272  0.4765  0.7039
13983TIP3   OH263439   3.570   3.872   1.818  0.1874 -0.7503 -0.1492
13983TIP3    H163440   3.585   3.809   1.747 -2.7063 -1.9734  0.2559
13983TIP3    H263441   3.653   3.873   1.867  1.2686 -2.0094 -1.9023
13984TIP3   OH263442   6.236   3.070   2.258  0.2967  0.0999 -0.1339
13984TIP3    H163443   6.288   2.990   2.266 -0.6182 -0.4460  0.3220
13984TIP3    H263444   6.177   3.069   2.333 -1.0210  0.2526 -1.1436
13985TIP3   OH263445   1.603   5.315  12.149  0.1334 -0.1451  0.0876
13985TIP3    H163446   1.664   5.376  12.191  0.9156 -1.8406  1.4678
13985TIP3    H263447   1.517   5.340  12.183  0.6184 -0.7115  1.7973
13986TIP3   OH263448   2.659   4.739  11.790  1.0855  0.1873  0.4935
13986TIP3    H163449   2.733   4.707  11.842  1.7867  0.8960 -0.0549
13986TIP3    H263450   2.687   4.825  11.759  0.8823 -0.4325 -1.4555
13987TIP3   OH263451   0.473   6.101   2.071 -0.0962  0.4312 -0.0541
13987TIP3    H163452   0.444   6.040   2.003  0.1943  0.2659 -0.0282
13987TIP3    H263453   0.492   6.182   2.023  2.8750 -0.5158 -0.6083
13988TIP3   OH263454   3.438   3.996  14.576  0.4733 -0.4234 -0.4315
13988TIP3    H163455   3.435   3.974  14.483  1.4194 -0.9923 -0.3285
13988TIP3    H263456   3.359   3.957  14.613 -0.8462  1.3124 -1.3093
13989TIP3   OH263457   3.340   1.862   5.840 -0.2088 -0.0398  0.2308
13989TIP3    H163458   3.417   1.832   5.888 -0.5463  1.6236  1.8997
13989TIP3    H263459   3.266   1.822   5.885 -0.4469  0.3831  0.2249
13990TIP3   OH263460   1.027   2.713  14.403 -0.5124  0.0623  0.1176
13990TIP3    H163461   0.939   2.704  14.367 -1.2065  2.2156  1.1629
13990TIP3    H263462   1.013   2.734  14.496  1.1066 -0.2258  0.4433
13991TIP3   OH263463   0.449   2.118   1.766 -0.0373 -0.4438  0.2068
13991TIP3    H163464   0.500   2.198   1.776 -1.7188  0.6188  0.3917
13991TIP3    H263465   0.494   2.070   1.696  0.4495  1.0692 -0.5351
13992TIP3   OH263466   3.565   1.747   4.350  0.5402  0.2757 -0.0998
13992TIP3    H163467   3.639   1.691   4.326  0.7775  0.6998 -0.3622
13992TIP3    H263468   3.574   1.760   4.445  0.8110  0.3405 -0.1349
13993TIP3   OH263469   4.223   6.092   4.959  0.4099  0.4214 -0.2353
13993TIP3    H163470   4.212   6.005   4.996  0.2269  1.6998  2.8623
13993TIP3    H263471   4.315   6.113   4.974  0.2476  1.0928 -0.1562
13994TIP3   OH263472   5.748   3.436  16.112  0.1578  0.3253 -0.3558
13994TIP3    H163473   5.662   3.470  16.136  0.8155  0.9880  1.1067
13994TIP3    H263474   5.751   3.445  16.017 -1.2196  0.7109 -0.3746
13995TIP3   OH263475   5.426   6.473  17.138  0.3187 -0.7026  0.1985
13995TIP3    H163476   5.372   6.551  17.149  1.1322 -0.0309 -0.5116
13995TIP3    H263477   5.491   6.478  17.208  0.4332 -0.6964  0.0921
13996TIP3   OH263478   4.697   4.570  17.129 -0.0385 -0.0368 -0.7431
13996TIP3    H163479   4.701   4.497  17.066 -0.2536  0.9983 -1.9730
13996TIP3    H263480   4.748   4.640  17.088 -2.2186  1.5016 -0.9232
13997TIP3   OH263481   2.194   1.403  11.523 -0.7384 -0.0587  0.7295
13997TIP3    H163482   2.111   1.408  11.570 -1.0206 -0.8322  0.3257
13997TIP3    H263483   2.211   1.309  11.515  0.5000  0.1023  1.3638
13998TIP3   OH263484   0.612   2.285   4.998 -0.3158  0.8641 -0.1582
13998TIP3    H163485   0.644   2.298   4.909 -0.3603  1.3081 -0.1097
13998TIP3    H263486   0.661   2.209   5.029  0.0841  1.0228 -0.3827
13999TIP3   OH263487   5.717   5.125   2.314  0.2179 -0.2189  0.8159
13999TIP3    H163488   5.765   5.189   2.366  1.6208 -0.0690 -0.6274
13999TIP3    H263489   5.625   5.152   2.323  0.6890  1.3758  1.0626
14000TIP3   OH263490   6.606   2.658  11.623  0.1437  0.9062 -0.3564
14000TIP3    H163491   6.525   2.607  11.616 -0.9053  2.4089  0.6065
14000TIP3    H263492   6.576   2.750  11.624  1.8131  1.4414  0.7657
14001TIP3   OH263493   5.536   3.289  16.535 -0.3951 -0.3539 -0.5380
14001TIP3    H163494   5.621   3.293  16.579 -0.0152  0.0822 -1.2992
14001TIP3    H263495   5.510   3.198  16.541 -0.0231 -0.4262 -0.0134
14002TIP3   OH263496   2.227   3.738   6.060  0.1351 -0.1045  0.3905
14002TIP3    H163497   2.226   3.683   6.138 -0.2894  0.1617  0.5718
14002TIP3    H263498   2.282   3.813   6.084 -1.2924  0.7824  0.9916
14003TIP3   OH263499   1.443   6.437  11.956  0.1082  0.0194  0.5089
14003TIP3    H163500   1.414   6.513  12.007  1.3117  1.8983 -1.5367
14003TIP3    H263501   1.380   6.368  11.978 -1.3634  1.7621  1.9388
14004TIP3   OH263502   2.353   2.516   1.564  0.2974 -0.0804 -0.3208
14004TIP3    H163503   2.401   2.598   1.575  0.1333  0.2614 -2.0004
14004TIP3    H263504   2.261   2.542   1.565  0.2361 -0.2878 -0.5265
14005TIP3   OH263505   5.560   5.577   3.415 -0.1144 -0.4028  0.1171
14005TIP3    H163506   5.518   5.663   3.425 -0.1891 -0.3794 -0.3946
14005TIP3    H263507   5.543   5.553   3.324  0.6733 -0.5635  0.0108
14006TIP3   OH263508   2.557   2.929  13.093 -0.5657 -0.1043  0.2697
14006TIP3    H163509   2.566   3.023  13.108 -0.7121  0.2670 -1.7868
14006TIP3    H263510   2.463   2.914  13.088 -0.5290 -0.2430 -0.0258
14007TIP3   OH263511   4.460   0.892   1.913 -0.0492  0.1472 -0.0478
14007TIP3    H163512   4.510   0.878   1.993  0.3817  0.9266 -0.1737
14007TIP3    H263513   4.502   0.968   1.871 -1.8589  1.3603  0.2734
14008TIP3   OH263514   0.303   4.236   2.615  0.8529 -0.2927 -0.4512
14008TIP3    H163515   0.246   4.307   2.587 -1.2020 -0.8229  2.1708
14008TIP3    H263516   0.384   4.279   2.642  0.0185  0.9526  0.1140
14009TIP3   OH263517   0.482   4.179   4.191 -0.0402  0.3177 -0.4126
14009TIP3    H163518   0.466   4.095   4.233 -1.1132  1.4787  1.5443
14009TIP3    H263519   0.429   4.177   4.111 -0.7699 -0.4829  0.0944
14010TIP3   OH263520   2.033   3.556  12.895  0.0150 -0.7262  0.3476
14010TIP3    H163521   2.055   3.520  12.809  1.3234 -0.9591  0.7714
14010TIP3    H263522   1.954   3.509  12.922  1.4200 -2.9604  0.6865
14011TIP3   OH263523   1.574   6.244   1.768  0.1572 -0.0281  0.3154
14011TIP3    H163524   1.527   6.270   1.689  0.7950 -0.5878 -0.2530
14011TIP3    H263525   1.532   6.293   1.839 -0.6168  0.2377 -0.3288
14012TIP3   OH263526   5.681   2.679   2.248  0.0693  0.2243 -0.3567
14012TIP3    H163527   5.669   2.742   2.177 -1.3933 -0.2369 -0.5148
14012TIP3    H263528   5.767   2.702   2.285  1.5318 -0.4392 -3.1698
14013TIP3   OH263529   0.961   2.705   6.160  0.3761 -0.2330 -0.1602
14013TIP3    H163530   0.904   2.709   6.236  0.8463 -0.0852  0.1878
14013TIP3    H263531   0.903   2.681   6.087  0.0452 -1.0299  0.3611
14014TIP3   OH263532   6.655   6.689  17.137 -0.9060 -0.3909 -0.2893
14014TIP3    H163533   6.653   6.662  17.045 -1.2998  1.0459 -0.6988
14014TIP3    H263534   6.726   6.753  17.142 -1.7105  0.4656  0.1644
14015TIP3   OH263535   0.991   6.752   3.926 -0.1846 -0.3800 -0.1097
14015TIP3    H163536   1.011   6.662   3.899 -0.2571 -1.0888  2.1018
14015TIP3    H263537   1.077   6.790   3.946 -0.1086  0.2224 -1.5284
14016TIP3   OH263538   5.837   5.161  13.531 -0.2367 -0.0962 -0.4609
14016TIP3    H163539   5.892   5.208  13.468 -0.7591  1.6893  0.3689
14016TIP3    H263540   5.898   5.106  13.580  1.3156  3.8199  2.2457
14017TIP3   OH263541   0.024   3.168   2.535 -0.0243 -0.3603 -0.2449
14017TIP3    H163542   0.018   3.080   2.497  0.1402 -0.9975  1.1881
14017TIP3    H263543  -0.066   3.189   2.559 -0.0150 -0.2743 -0.2887
14018TIP3   OH263544   2.623   3.154  15.659  0.5179 -0.1803  0.1187
14018TIP3    H163545   2.667   3.081  15.703  1.5920 -0.4088 -1.2924
14018TIP3    H263546   2.694   3.205  15.619 -0.3649  0.4602 -0.6689
14019TIP3   OH263547   0.361   2.635  11.368 -0.0635 -0.1311  0.1062
14019TIP3    H163548   0.364   2.541  11.386  0.5248 -0.1827 -0.2480
14019TIP3    H263549   0.335   2.641  11.276  0.4666  0.0355 -0.0350
14020TIP3   OH263550   5.807   2.776  14.160 -0.4959  0.2333 -0.2585
14020TIP3    H163551   5.874   2.773  14.091  0.9376  0.2191  1.1062
14020TIP3    H263552   5.779   2.685  14.170  1.4256 -0.2287  1.1937
14021TIP3   OH263553   2.627   5.921  16.932  0.2540 -0.3482  0.0948
14021TIP3    H163554   2.655   5.947  16.844  2.9486  0.1656  1.0719
14021TIP3    H263555   2.611   6.004  16.977 -0.1675 -0.5987  0.4106
14022TIP3   OH263556   2.299   6.622  12.542  0.0281  0.0791 -0.3069
14022TIP3    H163557   2.248   6.568  12.602  2.8758 -0.0788  2.1112
14022TIP3    H263558   2.330   6.561  12.475  0.0334 -0.5154  0.2351
14023TIP3   OH263559   5.003   2.540   3.442 -0.0071  0.1522  0.3768
14023TIP3    H163560   5.044   2.616   3.402 -0.2489 -0.2538 -0.6433
14023TIP3    H263561   5.032   2.466   3.389 -0.6491 -0.3452  0.7120
14024TIP3   OH263562   0.248   3.389  13.962  0.1523  0.0399 -0.5822
14024TIP3    H163563   0.301   3.343  14.027  0.6022  1.8826  0.4061
14024TIP3    H263564   0.236   3.476  13.999 -0.6538  0.7326 -2.4143
14025TIP3   OH263565   2.326   5.859  12.271 -0.2610 -0.0199  0.0005
14025TIP3    H163566   2.408   5.910  12.269 -0.6323  0.5580 -1.0573
14025TIP3    H263567   2.288   5.878  12.356 -0.5095  1.6978 -0.4760
14026TIP3   OH263568   5.635   4.027   2.421  0.0418 -0.5089 -0.2012
14026TIP3    H163569   5.714   3.973   2.430 -1.0870 -1.9752  1.1053
14026TIP3    H263570   5.571   3.987   2.479 -1.2310  1.5460 -0.1261
14027TIP3   OH263571   1.527   5.585  12.626 -0.0726  0.5717 -0.8511
14027TIP3    H163572   1.524   5.661  12.684 -0.9097 -0.2313  0.1869
14027TIP3    H263573   1.558   5.513  12.683  1.4691  0.2933 -1.9972
14028TIP3   OH263574   0.098   5.355  15.103 -0.6141 -0.2256  0.0544
14028TIP3    H163575   0.048   5.336  15.182 -1.3894  2.5879  0.2850
14028TIP3    H263576   0.130   5.445  15.115  0.9257 -0.4547 -1.9542
14029TIP3   OH263577   6.050   4.774  11.527  0.1144  0.0059  0.0460
14029TIP3    H163578   6.043   4.688  11.486 -0.5608  1.2759 -2.6230
14029TIP3    H263579   6.085   4.756  11.615  0.4890 -2.9135 -0.6437
14030TIP3   OH263580   6.656   4.185  11.839 -0.0296 -1.0377 -0.0449
14030TIP3    H163581   6.604   4.251  11.792  1.3460 -0.2742 -0.5173
14030TIP3    H263582   6.638   4.103  11.792  0.9908 -0.3655 -1.6724
14031TIP3   OH263583   6.421   0.647  13.059 -0.2110 -0.3512 -0.3214
14031TIP3    H163584   6.386   0.727  13.021 -1.1065 -0.8044 -0.4570
14031TIP3    H263585   6.363   0.627  13.133 -0.0437 -0.9175 -0.3361
14032TIP3   OH263586   5.917   1.237   4.927 -0.4138 -0.5144  0.2693
14032TIP3    H163587   5.849   1.300   4.905  1.1775  0.3508 -2.3840
14032TIP3    H263588   5.956   1.271   5.007 -0.7591  0.8991 -0.1474
14033TIP3   OH263589   4.757   0.555   4.496  0.4645 -0.1622  0.1479
14033TIP3    H163590   4.678   0.507   4.474  0.0883  0.4885  0.0542
14033TIP3    H263591   4.729   0.621   4.560  0.6591  0.9496 -0.8915
14034TIP3   OH263592   3.001   6.812  12.962 -0.2959  0.2106 -0.6282
14034TIP3    H163593   2.954   6.793  13.043  0.2962  0.6762 -0.1675
14034TIP3    H263594   3.040   6.729  12.936 -0.4676  0.0642 -0.4184
14035TIP3   OH263595   2.843   6.183  16.808 -0.3366  0.0001 -0.7821
14035TIP3    H163596   2.773   6.151  16.750 -2.0894  2.5301 -0.1374
14035TIP3    H263597   2.905   6.226  16.749 -0.6831  0.1020 -1.0769
14036TIP3   OH263598   0.810   3.847  14.379 -0.1351  0.3220  0.1319
14036TIP3    H163599   0.825   3.801  14.296  0.8413 -0.2342  0.6141
14036TIP3    H263600   0.820   3.779  14.446 -2.3560  0.4455  0.6377
14037TIP3   OH263601   2.861   0.670  16.040 -0.5119 -0.0144  0.1529
14037TIP3    H163602   2.915   0.611  16.092  0.5827  0.1676 -0.7442
14037TIP3    H263603   2.904   0.672  15.954 -1.3541  0.9554 -0.2588
14038TIP3   OH263604   1.090   3.772  17.165  0.0529  0.0255  0.4052
14038TIP3    H163605   1.016   3.807  17.115 -3.4748 -2.6616  3.4460
14038TIP3    H263606   1.098   3.681  17.134  1.8202  0.1650  0.4190
14039TIP3   OH263607   6.365   5.440  15.026  0.6948 -0.5405 -0.3553
14039TIP3    H163608   6.301   5.441  15.097  1.9102 -0.5943  0.7470
14039TIP3    H263609   6.319   5.482  14.953 -0.6475 -0.7068  0.3708
14040TIP3   OH263610   4.485   1.341   2.661  0.3978  0.2376  0.3040
14040TIP3    H163611   4.576   1.330   2.635  0.1020 -2.0464  0.1638
14040TIP3    H263612   4.488   1.345   2.757  0.8010  1.9105  0.2356
14041TIP3   OH263613   6.214   5.178  13.532  0.1520 -0.3032 -0.1182
14041TIP3    H163614   6.157   5.254  13.521  0.8470  0.0675 -1.2784
14041TIP3    H263615   6.155   5.108  13.561 -0.3809  0.8259  1.5971
14042TIP3   OH263616   0.543   2.344  13.659 -0.2086  0.3029 -0.3313
14042TIP3    H163617   0.459   2.390  13.656  1.1700  2.9730  0.5815
14042TIP3    H263618   0.550   2.314  13.750 -0.1545  0.1160 -0.3982
14043TIP3   OH263619   4.392   3.744   3.652 -0.6046 -0.0020 -0.1416
14043TIP3    H163620   4.365   3.789   3.732 -2.0439 -0.5854 -0.2824
14043TIP3    H263621   4.313   3.742   3.598 -0.6262 -2.8811 -0.0433
14044TIP3   OH263622   5.589   2.975  14.156 -0.1631  0.1178  0.7139
14044TIP3    H163623   5.540   2.986  14.074 -0.2399  1.5534  0.9440
14044TIP3    H263624   5.620   2.884  14.153 -2.1896 -0.5883  0.2108
14045TIP3   OH263625   6.320   2.014  13.286 -0.0016 -0.3291 -0.6876
14045TIP3    H163626   6.235   1.979  13.312  0.2780 -0.4004  0.1668
14045TIP3    H263627   6.383   1.967  13.341  0.6554 -0.8268 -1.8640
14046TIP3   OH263628   0.297   0.481  14.819 -0.0684  0.1882  0.4102
14046TIP3    H163629   0.353   0.545  14.774 -1.1315 -0.4250 -1.8845
14046TIP3    H263630   0.317   0.493  14.912  1.0190  2.6463 -0.0822
14047TIP3   OH263631   6.247   2.126   2.114  0.1911 -0.4750 -0.1912
14047TIP3    H163632   6.331   2.099   2.076  0.9426  0.3866  0.8194
14047TIP3    H263633   6.187   2.055   2.091  1.0673 -0.8718 -1.3539
14048TIP3   OH263634   1.987   5.422  15.572 -0.5759  0.1791  0.0199
14048TIP3    H163635   2.002   5.336  15.533 -1.2894 -0.1742  0.5132
14048TIP3    H263636   1.909   5.456  15.527 -1.4877 -0.2924  1.2066
14049TIP3   OH263637   1.392   2.558  11.930 -0.7049  0.0577 -0.1788
14049TIP3    H163638   1.439   2.478  11.902 -0.0923 -0.2396  1.6695
14049TIP3    H263639   1.421   2.625  11.867  0.6969 -0.5868 -0.2501
14050TIP3   OH263640   0.495   1.773  11.509 -0.2330 -0.5148  0.6967
14050TIP3    H163641   0.501   1.697  11.567 -0.1757 -0.7718  0.3602
14050TIP3    H263642   0.411   1.813  11.531 -2.4051 -3.2121 -2.1572
14051TIP3   OH263643   5.248   4.455   0.856  0.1693  0.2767 -0.1936
14051TIP3    H163644   5.273   4.444   0.948 -1.1662  1.6367  0.3548
14051TIP3    H263645   5.313   4.514   0.820 -0.0538  0.7734  0.2202
14052TIP3   OH263646   0.910   6.095   5.277 -0.2748  0.2915  0.2186
14052TIP3    H163647   0.905   6.183   5.315 -0.1997  0.1120  0.6516
14052TIP3    H263648   0.950   6.042   5.346 -1.7050 -0.4078  0.5399
14053TIP3   OH263649   5.733   0.633  15.337 -0.1527  0.6255  0.8185
14053TIP3    H163650   5.816   0.677  15.317  0.4233 -1.1034 -0.7449
14053TIP3    H263651   5.743   0.602  15.426  0.5388  1.1799  0.9364
14054TIP3   OH263652   4.284   4.516  13.031  0.0763 -0.4211 -0.0106
14054TIP3    H163653   4.345   4.585  13.055 -0.0174 -0.4442  0.3004
14054TIP3    H263654   4.215   4.520  13.098  1.0394 -2.0352  1.1285
14055TIP3   OH263655   6.638   2.092   0.099  0.2240 -0.1190 -0.1117
14055TIP3    H163656   6.661   2.009   0.058  0.9007  0.0329 -0.0583
14055TIP3    H263657   6.628   2.153   0.026  1.0883  0.0699 -0.0828
14056TIP3   OH263658   3.545   2.987  14.560  0.9926  0.1452  0.3757
14056TIP3    H163659   3.621   2.938  14.530  0.3134 -1.5908  1.4213
14056TIP3    H263660   3.532   3.055  14.494  2.4015 -0.6248 -0.7071
14057TIP3   OH263661   0.543   0.372   1.802 -0.3517 -0.4038  0.2741
14057TIP3    H163662   0.563   0.460   1.770 -1.4024 -0.3476 -0.2762
14057TIP3    H263663   0.618   0.319   1.777  0.7480  0.5430  1.5063
14058TIP3   OH263664   2.406   6.750  12.187 -0.4813  0.0698 -0.0055
14058TIP3    H163665   2.349   6.739  12.110 -3.2547  0.0746  1.9775
14058TIP3    H263666   2.418   6.661  12.221  0.4232  0.1161 -0.1766
14059TIP3   OH263667   4.589   4.901   0.968  0.0619  0.0545 -0.1184
14059TIP3    H163668   4.524   4.972   0.966  0.0866  0.0705 -0.3807
14059TIP3    H263669   4.673   4.946   0.967  0.0892  0.0721  1.4064
14060TIP3   OH263670   1.929   1.467  14.340  0.0502 -0.1042 -0.1391
14060TIP3    H163671   1.878   1.534  14.295  1.0320  1.0240  0.3956
14060TIP3    H263672   1.864   1.406  14.376 -0.9234  1.3672  0.6206
14061TIP3   OH263673   4.938   0.921   5.157 -0.0593 -0.2639 -0.5433
14061TIP3    H163674   4.856   0.880   5.185 -0.3410  1.0525  0.6246
14061TIP3    H263675   4.909   0.999   5.109  0.5119  0.1211 -0.2578
14062TIP3   OH263676   0.370   5.999   2.888  0.1314 -0.1630  0.2603
14062TIP3    H163677   0.412   6.028   2.807  0.4363 -0.3465  0.3526
14062TIP3    H263678   0.325   5.918   2.865  0.7285 -0.5400  0.4238
14063TIP3   OH263679   5.141   3.914  12.639  0.1280  0.0906 -0.0906
14063TIP3    H163680   5.170   4.004  12.657  2.0255 -0.0472 -2.1807
14063TIP3    H263681   5.187   3.861  12.704  0.3419  0.4592  0.0645
14064TIP3   OH263682   1.502   3.233  13.778 -0.5231 -0.2575  0.3852
14064TIP3    H163683   1.582   3.268  13.739 -0.2514 -0.8890  0.3708
14064TIP3    H263684   1.523   3.142  13.798 -0.7314  0.0074  1.8105
14065TIP3   OH263685   0.141   2.631  16.391 -0.6727  0.2810 -0.4038
14065TIP3    H163686   0.193   2.571  16.338  1.4223 -0.2301  2.1506
14065TIP3    H263687   0.072   2.576  16.428 -0.9137  0.2209 -0.9307
14066TIP3   OH263688   4.522   0.379   0.245  0.2087 -0.1112  0.1860
14066TIP3    H163689   4.507   0.317   0.173  1.7883  1.1101 -1.2356
14066TIP3    H263690   4.481   0.460   0.216  0.7636  0.3570  0.7017
14067TIP3   OH263691   1.089   2.313   4.312  0.7168  0.5588 -0.2528
14067TIP3    H163692   0.999   2.283   4.299  0.6835  0.5056  0.0822
14067TIP3    H263693   1.082   2.407   4.326  0.9019  0.8744 -2.1409
14068TIP3   OH263694   1.096   3.698  15.386 -0.1712  0.7576 -0.0532
14068TIP3    H163695   1.102   3.786  15.348  1.0120  0.5210 -0.4460
14068TIP3    H263696   1.104   3.712  15.480  1.0121  0.9982 -0.1797
14069TIP3   OH263697   3.131   0.500   5.722 -0.7287 -0.2830  0.5426
14069TIP3    H163698   3.167   0.421   5.762  0.6614  0.4864  0.8559
14069TIP3    H263699   3.161   0.571   5.779  0.5806  0.7499 -1.3826
14070TIP3   OH263700   3.564   4.616   0.880 -0.4101  0.0432 -0.0247
14070TIP3    H163701   3.591   4.616   0.972  2.3212 -0.3068 -0.7756
14070TIP3    H263702   3.502   4.688   0.873  1.1845  1.6320  1.6148
14071TIP3   OH263703   5.935   4.388  11.693 -0.2834  0.2981  0.2887
14071TIP3    H163704   5.946   4.473  11.651  1.2687  0.3983  0.8632
14071TIP3    H263705   6.014   4.377  11.746  0.1097 -2.0430 -0.7287
14072TIP3   OH263706   2.499   2.687   4.237  0.4326  0.4066 -0.2085
14072TIP3    H163707   2.557   2.733   4.299 -1.2791  1.7587  0.4100
14072TIP3    H263708   2.501   2.741   4.158 -0.0939  0.5262 -0.1386
14073TIP3   OH263709   0.421   3.922  16.481 -0.8004  0.0157  0.0681
14073TIP3    H163710   0.339   3.873  16.482 -2.2210  2.2585 -1.4958
14073TIP3    H263711   0.427   3.958  16.392  0.9185  1.4664  0.7158
14074TIP3   OH263712   6.711   0.639   2.379 -0.0126 -0.3706  0.0666
14074TIP3    H163713   6.782   0.693   2.413  0.4981  0.0528 -1.6507
14074TIP3    H263714   6.747   0.599   2.300 -0.9112 -1.9978  0.4599
14075TIP3   OH263715   2.146   6.079  15.048 -0.0862  0.3835 -0.0271
14075TIP3    H163716   2.076   6.015  15.041  1.3784 -1.2371 -0.1123
14075TIP3    H263717   2.222   6.037  15.008  1.0654  1.9153  0.4849
14076TIP3   OH263718   2.322   5.850   2.465 -0.1795 -0.5528  0.4320
14076TIP3    H163719   2.313   5.859   2.370 -0.3734  1.3734  0.6208
14076TIP3    H263720   2.409   5.812   2.477  0.6246  0.9490 -0.4535
14077TIP3   OH263721   5.740   5.820   1.958  0.5825 -0.0641  0.4406
14077TIP3    H163722   5.756   5.727   1.976  0.2664 -0.1736  0.1705
14077TIP3    H263723   5.791   5.839   1.880  0.3001 -0.1223  0.2424
14078TIP3   OH263724   6.615   4.479  11.134 -0.0404  0.1716 -0.1763
14078TIP3    H163725   6.527   4.517  11.126  0.0421  0.1364 -1.3601
14078TIP3    H263726   6.614   4.405  11.074  0.7160  0.0132  0.0075
14079TIP3   OH263727   1.246   2.552  13.491  0.5203  0.4764  0.3694
14079TIP3    H163728   1.325   2.569  13.542 -0.6184 -0.7373  2.6040
14079TIP3    H263729   1.174   2.567  13.552 -0.9406  0.2223 -1.2409
14080TIP3   OH263730   4.737   0.335   3.754 -0.0661  0.0808 -0.3342
14080TIP3    H163731   4.776   0.255   3.788 -1.4471 -0.2216  0.6026
14080TIP3    H263732   4.748   0.329   3.659  1.7289 -0.1935 -0.1103
14081TIP3   OH263733   0.642   0.003   0.942 -0.1873  0.3745  0.0715
14081TIP3    H163734   0.677   0.042   1.022 -1.3269 -0.0585  0.7870
14081TIP3    H263735   0.714   0.008   0.879  1.2702 -0.8300  1.6167
14082TIP3   OH263736   6.549   5.587   2.468  0.5367 -0.2113  0.0512
14082TIP3    H163737   6.615   5.652   2.446  0.0961  0.8991  1.8901
14082TIP3    H263738   6.598   5.516   2.511  0.8238 -0.4586 -0.6734
14083TIP3   OH263739   6.167   4.736  12.578 -0.5552  0.6531 -0.3277
14083TIP3    H163740   6.219   4.725  12.498  1.2386 -1.0601  1.0276
14083TIP3    H263741   6.221   4.791  12.634 -1.7208  1.6738 -0.1745
14084TIP3   OH263742   3.068   0.427   2.954 -0.5527 -0.0141  0.6080
14084TIP3    H163743   3.108   0.350   2.913 -1.3037 -0.5522  0.8741
14084TIP3    H263744   3.139   0.467   3.004  0.4283  0.7358 -1.3283
14085TIP3   OH263745   5.785   1.292  15.504 -0.6031  0.3572  0.5319
14085TIP3    H163746   5.794   1.383  15.530  0.6771  0.0961  1.0435
14085TIP3    H263747   5.748   1.295  15.416  0.2724  1.3888  0.1966
14086TIP3   OH263748   4.081   4.306   0.424 -0.0885  0.5738 -0.6709
14086TIP3    H163749   4.039   4.380   0.380 -1.1496 -0.3141 -1.1431
14086TIP3    H263750   4.016   4.237   0.424  0.3769  0.1033  1.0905
14087TIP3   OH263751   3.005   3.872  15.307 -0.4218  0.1090 -0.2530
14087TIP3    H163752   3.074   3.808  15.288 -0.5092  0.7079 -2.8628
14087TIP3    H263753   3.050   3.942  15.355 -0.0716 -1.3357  1.5390
14088TIP3   OH263754   3.152   4.402   2.958  0.4401 -0.9860  0.5400
14088TIP3    H163755   3.104   4.459   2.897 -0.4659 -0.4219  1.7706
14088TIP3    H263756   3.128   4.314   2.931  0.9045 -0.7731 -0.6159
14089TIP3   OH263757   0.655   0.886   5.831  0.3536  0.6847 -0.5185
14089TIP3    H163758   0.670   0.825   5.759 -0.6032  1.1074 -1.0840
14089TIP3    H263759   0.735   0.938   5.834  0.6520  0.2553 -0.8746
14090TIP3   OH263760   4.159   5.721  12.929  0.1529 -0.4523  0.1521
14090TIP3    H163761   4.119   5.743  13.014  0.5787 -0.0998  0.2607
14090TIP3    H263762   4.118   5.638  12.904 -0.2559 -0.3615  0.5228
14091TIP3   OH263763   6.235   0.322   3.322  0.3695 -0.4588  0.2278
14091TIP3    H163764   6.250   0.230   3.302  1.6959 -0.5469  1.5647
14091TIP3    H263765   6.148   0.341   3.285  1.5949 -1.2703 -3.2682
14092TIP3   OH263766   2.952   3.769   0.805 -0.3245 -0.2440  0.0768
14092TIP3    H163767   2.924   3.774   0.897  1.5639 -1.9662  0.7706
14092TIP3    H263768   2.910   3.845   0.764 -0.7990  0.8488  2.4662
14093TIP3   OH263769   4.665   3.131  14.690  0.6176 -0.3362  0.5626
14093TIP3    H163770   4.744   3.174  14.724  0.8234 -0.5974  0.4126
14093TIP3    H263771   4.635   3.189  14.620  2.2928 -1.6685 -1.3182
14094TIP3   OH263772   6.738   3.325  16.880 -0.5928 -0.1440  0.3346
14094TIP3    H163773   6.648   3.303  16.905 -1.5160  3.1402  0.0467
14094TIP3    H263774   6.742   3.420  16.883  2.5349 -0.1677 -0.8945
14095TIP3   OH263775   5.607   5.440   5.116 -0.7331 -0.1273  0.2405
14095TIP3    H163776   5.549   5.366   5.135  0.1067 -0.5769  1.0862
14095TIP3    H263777   5.590   5.503   5.186 -1.9000  0.7646 -0.8248
14096TIP3   OH263778   3.950   0.571   0.424 -0.5330 -0.1224  0.0085
14096TIP3    H163779   3.955   0.632   0.351  0.9956 -0.0517  0.1706
14096TIP3    H263780   4.013   0.502   0.403 -1.1644 -0.8803  0.5428
14097TIP3   OH263781   4.347   6.768  13.152  0.0648  0.5670 -0.2464
14097TIP3    H163782   4.354   6.727  13.066  1.2623 -0.1621  0.1844
14097TIP3    H263783   4.435   6.799  13.171 -0.0152  0.0182  1.0653
14098TIP3   OH263784   3.435   0.459   3.802 -0.3467  0.1580 -0.2638
14098TIP3    H163785   3.457   0.467   3.709  0.1882 -1.1098 -0.2547
14098TIP3    H263786   3.498   0.516   3.847  1.0469 -1.1712 -0.4806
14099TIP3   OH263787   1.307   1.405   2.995  0.1458  0.3292 -0.2160
14099TIP3    H163788   1.315   1.493   2.959 -0.5835  0.3266 -0.3955
14099TIP3    H263789   1.361   1.406   3.074 -1.5654  1.5776  0.9582
14100TIP3   OH263790   6.671   5.909   4.985 -0.1238 -0.1121 -0.2523
14100TIP3    H163791   6.594   5.945   4.942  0.9531  0.4721 -1.7262
14100TIP3    H263792   6.707   5.981   5.035  0.1551 -0.0509 -0.5418
14101TIP3   OH263793   4.065   5.848  15.534 -0.5359  0.6490  0.1717
14101TIP3    H163794   3.993   5.834  15.595  0.8120  1.4297  1.9896
14101TIP3    H263795   4.092   5.938  15.550 -0.1567  0.8531 -1.5896
14102TIP3   OH263796   3.685   1.588   2.576 -0.3232 -0.8921 -0.2287
14102TIP3    H163797   3.642   1.503   2.576 -1.9891 -0.0817  0.6614
14102TIP3    H263798   3.612   1.651   2.576  0.8779  0.5296 -1.3398
14103TIP3   OH263799   2.063   3.085  17.112 -0.0655 -0.1170  0.0240
14103TIP3    H163800   2.051   3.142  17.188  0.6911 -0.9135  0.7413
14103TIP3    H263801   2.027   3.136  17.039 -0.0708  0.9767  0.7734
14104TIP3   OH263802   0.099   0.866  11.194 -0.1855 -0.4853  0.2545
14104TIP3    H163803   0.161   0.881  11.266 -0.6342 -0.3236  0.6101
14104TIP3    H263804   0.125   0.928  11.126  0.1377 -0.5238  0.3398
14105TIP3   OH263805   6.587   1.137  13.648  0.1383  0.3699 -0.5734
14105TIP3    H163806   6.636   1.136  13.566  0.7875 -0.1697 -0.1864
14105TIP3    H263807   6.607   1.222  13.687  1.5870 -0.2564  0.0638
14106TIP3   OH263808   4.245   4.881   2.917  0.1699 -0.7943 -0.2889
14106TIP3    H163809   4.244   4.801   2.866  0.2292 -1.0448  0.0981
14106TIP3    H263810   4.183   4.865   2.988 -1.1763  0.1734 -1.2195
14107TIP3   OH263811   0.389   4.824  16.424 -0.1735 -0.0533  0.2470
14107TIP3    H163812   0.300   4.790  16.419 -0.0200 -0.3757 -0.4323
14107TIP3    H263813   0.385   4.910  16.383 -0.0369 -0.3646 -0.4324
14108TIP3   OH263814   4.834   4.336   6.196 -0.2032 -0.0291  0.4067
14108TIP3    H163815   4.886   4.256   6.190  0.5226  0.3728  1.2172
14108TIP3    H263816   4.887   4.395   6.249  0.0257  1.5711 -1.5476
14109TIP3   OH263817   0.077   5.203  14.686 -0.0219  0.0201 -0.2242
14109TIP3    H163818   0.090   5.164  14.772  0.5197  0.9395  0.1172
14109TIP3    H263819   0.165   5.233  14.660 -0.3155  0.4195 -0.7600
14110TIP3   OH263820   6.228   1.176   0.952 -0.7256 -0.4171 -0.0471
14110TIP3    H163821   6.262   1.262   0.976  0.9589 -1.0374 -0.1201
14110TIP3    H263822   6.249   1.120   1.026  0.0807 -1.2318 -0.8816
14111TIP3   OH263823   3.066   4.200   0.722  0.2475 -0.1095  0.6226
14111TIP3    H163824   3.085   4.287   0.755  3.1098  0.6332 -2.6582
14111TIP3    H263825   2.976   4.205   0.690 -0.5047  0.8306  2.7959
14112TIP3   OH263826   4.616   0.067  11.272  0.1174  0.9317 -0.3271
14112TIP3    H163827   4.555   0.095  11.204  0.4080 -1.5010 -1.6431
14112TIP3    H263828   4.700   0.108  11.247 -0.1969  1.5705 -0.3627
14113TIP3   OH263829   2.796   1.279  14.990  0.1365  0.5285  0.0286
14113TIP3    H163830   2.835   1.229  14.919 -0.6029 -0.0859  0.0417
14113TIP3    H263831   2.754   1.354  14.947  0.1758  0.4643 -0.1207
14114TIP3   OH263832   3.365   5.494   0.186  0.4877  0.2731  0.9590
14114TIP3    H163833   3.457   5.482   0.207  0.9485 -0.1917 -1.2369
14114TIP3    H263834   3.363   5.568   0.124 -0.4587 -0.5567 -0.0234
14115TIP3   OH263835   0.746   2.017   6.318  0.0633  0.2929  0.2398
14115TIP3    H163836   0.683   1.964   6.366 -1.8328  0.5263 -1.8675
14115TIP3    H263837   0.752   2.099   6.368  2.3838 -1.5169  3.0406
14116TIP3   OH263838   5.079   0.807  14.463  0.1605  0.0728 -0.6896
14116TIP3    H163839   5.060   0.806  14.557 -0.1137 -0.2423 -0.7491
14116TIP3    H263840   4.994   0.799  14.421  0.2683  0.3858 -0.9676
14117TIP3   OH263841   5.581   3.555  10.996  0.4026 -0.6531  0.0230
14117TIP3    H163842   5.549   3.569  11.085  0.7712  0.0824  0.0425
14117TIP3    H263843   5.527   3.484  10.962 -1.2371  0.5614  0.0556
14118TIP3   OH263844   4.050   0.370   4.722  0.2801  0.1707 -0.1131
14118TIP3    H163845   4.113   0.300   4.736  0.8914  0.7285 -0.0754
14118TIP3    H263846   4.064   0.397   4.631 -0.8761 -0.6588 -0.5626
14119TIP3   OH263847   0.611   5.455  11.256  0.0136 -0.6148 -0.7706
14119TIP3    H163848   0.597   5.517  11.185  0.2578 -1.2373 -1.3614
14119TIP3    H263849   0.703   5.431  11.249  1.1895  2.5939  2.3929
14120TIP3   OH263850   0.988   2.794   4.059 -0.0670  0.0204  0.5491
14120TIP3    H163851   0.895   2.774   4.065 -0.0030 -0.8552 -1.2494
14120TIP3    H263852   0.995   2.854   3.985  1.0526 -1.5767 -0.6597
14121TIP3   OH263853   3.487   5.231   3.506 -0.1334  0.8499 -0.0219
14121TIP3    H163854   3.439   5.313   3.496 -2.7065 -0.7107 -0.6067
14121TIP3    H263855   3.574   5.250   3.470 -0.3158  3.6201  0.8519
14122TIP3   OH263856   6.247   4.562  14.884 -0.2890  0.2147  0.1821
14122TIP3    H163857   6.156   4.572  14.855 -0.1760 -0.4818 -0.4247
14122TIP3    H263858   6.297   4.553  14.804  0.4297  1.4491  0.4864
14123TIP3   OH263859   4.275   2.678   0.203 -0.3014  0.3691 -0.2284
14123TIP3    H163860   4.255   2.605   0.262  0.1556  0.1280 -0.3770
14123TIP3    H263861   4.265   2.641   0.115  2.2806 -0.1538 -0.3187
14124TIP3   OH263862   1.351   6.158  12.216 -0.3137  0.2533  0.0547
14124TIP3    H163863   1.407   6.227  12.252 -0.3031  0.1061  0.3218
14124TIP3    H263864   1.338   6.096  12.288  1.7306 -1.3354 -0.9016
14125TIP3   OH263865   3.822   0.147   1.677  0.1622  0.4591  0.0224
14125TIP3    H163866   3.846   0.061   1.710  0.9894  0.9170  0.6466
14125TIP3    H263867   3.744   0.132   1.624  0.4850 -0.7139 -0.1275
14126TIP3   OH263868   0.030   0.774   1.070 -0.2437  0.1631  0.0205
14126TIP3    H163869   0.055   0.702   1.012 -0.3938  0.5997 -0.5910
14126TIP3    H263870  -0.042   0.738   1.122 -0.6298  0.0176 -0.6090
14127TIP3   OH263871   2.604   2.086   4.001 -0.6018  0.0244 -0.0273
14127TIP3    H163872   2.620   1.994   3.978 -1.4469  0.0407 -0.7197
14127TIP3    H263873   2.517   2.085   4.042  0.4672  0.1386  2.3271
14128TIP3   OH263874   1.413   5.070  15.578  0.1156  0.4073 -0.3919
14128TIP3    H163875   1.396   5.157  15.615 -2.0079  1.4556 -3.6308
14128TIP3    H263876   1.462   5.088  15.497 -1.1983 -1.3453 -1.5958
14129TIP3   OH263877   3.976   0.995  11.748 -0.3795 -0.3863  1.0307
14129TIP3    H163878   3.983   1.007  11.653 -0.1617 -2.1046  0.8070
14129TIP3    H263879   3.978   1.084  11.784  2.9631  0.1745 -0.3427
14130TIP3   OH263880   6.178   5.520   5.812  0.0307 -0.3290  0.2810
14130TIP3    H163881   6.128   5.470   5.747  0.0635 -1.1371  0.8792
14130TIP3    H263882   6.186   5.607   5.773  1.2082 -1.1687 -1.4023
14131TIP3   OH263883   6.553   1.142  14.561  0.3378  0.1544 -0.9405
14131TIP3    H163884   6.459   1.137  14.575  0.4525  0.2997 -0.0547
14131TIP3    H263885   6.591   1.101  14.639  1.0154  1.3971 -0.5988
14132TIP3   OH263886   0.105   6.631  13.387  0.2203 -0.0285 -0.6638
14132TIP3    H163887   0.124   6.564  13.322  0.9266  0.2653 -0.7642
14132TIP3    H263888   0.163   6.612  13.460  0.2474  0.3239 -0.5891
14133TIP3   OH263889   3.431   5.747   2.164  0.3124 -0.4008  0.0208
14133TIP3    H163890   3.416   5.685   2.092 -0.2619 -1.9086  1.4110
14133TIP3    H263891   3.348   5.794   2.173 -0.9353 -2.9041  2.1974
14134TIP3   OH263892   1.394   6.689  12.074  0.3509 -0.3463  0.8094
14134TIP3    H163893   1.332   6.702  12.146  0.7119  0.5816  0.9551
14134TIP3    H263894   1.478   6.720  12.108  0.3087  1.1243 -0.3701
14135TIP3   OH263895   4.906   0.336  11.365 -0.2476 -0.9808 -0.1352
14135TIP3    H163896   4.998   0.321  11.345 -0.0867  1.1106 -1.1528
14135TIP3    H263897   4.859   0.274  11.309  0.4997 -1.2432 -0.4784
14136TIP3   OH263898   1.307   3.825   4.826 -0.5388  0.2232 -0.2398
14136TIP3    H163899   1.342   3.884   4.760 -0.3319 -0.8129 -1.0697
14136TIP3    H263900   1.245   3.770   4.779 -0.6956 -0.2603  0.5100
14137TIP3   OH263901   2.064   1.813   5.412 -0.9279 -0.0399  0.3689
14137TIP3    H163902   2.076   1.768   5.328 -1.3384  0.7338 -0.1135
14137TIP3    H263903   1.973   1.793   5.436 -1.0047  0.2442  0.3205
14138TIP3   OH263904   4.721   4.872  11.056 -0.1133  0.3805  0.2515
14138TIP3    H163905   4.670   4.948  11.082 -0.8604  0.0947 -0.3717
14138TIP3    H263906   4.801   4.908  11.017  0.7998  0.8201  2.4727
14139TIP3   OH263907   6.258   4.276  16.562  0.3176  0.5002 -0.0548
14139TIP3    H163908   6.289   4.239  16.480  1.6861  2.5273 -0.4854
14139TIP3    H263909   6.164   4.289  16.549  0.3341 -0.1845 -0.8944
14140TIP3   OH263910   1.031   3.911  13.340 -0.7496 -0.2904  0.0280
14140TIP3    H163911   1.051   3.821  13.314 -1.3733 -0.1345 -0.9997
14140TIP3    H263912   1.074   3.966  13.275  1.1482  0.2434  1.6529
14141TIP3   OH263913   4.849   2.073   3.080  0.0331  0.4792  0.3997
14141TIP3    H163914   4.789   2.008   3.116 -0.3821  0.8639  0.4039
14141TIP3    H263915   4.792   2.138   3.038  0.4508  0.7545  0.2567
14142TIP3   OH263916   3.595   5.540  12.578 -0.6447 -0.4404  0.0913
14142TIP3    H163917   3.574   5.448  12.596 -1.8011 -0.5458 -1.6878
14142TIP3    H263918   3.676   5.556  12.626  0.0291 -2.6488 -0.2514
14143TIP3   OH263919   3.731   6.605  13.153  0.1270 -0.0052  0.1144
14143TIP3    H163920   3.725   6.701  13.152  1.7667  0.0975 -0.2523
14143TIP3    H263921   3.806   6.586  13.208 -0.5211 -1.1211  0.6347
14144TIP3   OH263922   2.613   6.552   6.110 -0.7456  0.3647 -0.4326
14144TIP3    H163923   2.650   6.541   6.198  0.8682 -0.1567 -1.1702
14144TIP3    H263924   2.661   6.625   6.073 -0.0175 -0.6891 -1.6112
14145TIP3   OH263925   6.480   2.393   4.153 -0.0140 -0.4929  0.0464
14145TIP3    H163926   6.453   2.344   4.076 -0.8018 -1.2032  0.7587
14145TIP3    H263927   6.437   2.348   4.226  0.9037  0.0295  0.9203
14146TIP3   OH263928   5.952   1.547  14.419  0.4361  0.6689  0.0374
14146TIP3    H163929   5.891   1.531  14.347 -0.5063  3.5499  0.1473
14146TIP3    H263930   6.010   1.471  14.418 -1.3745 -0.7463 -1.8925
14147TIP3   OH263931   4.144   1.336   0.037  0.0473 -0.6350  0.5249
14147TIP3    H163932   4.138   1.281  -0.041  2.0438  0.3634 -0.3618
14147TIP3    H263933   4.207   1.404   0.014 -1.5128  1.3726  2.0238
14148TIP3   OH263934   2.161   2.274   0.625 -0.0710  0.3140  0.3405
14148TIP3    H163935   2.163   2.283   0.529 -0.2354  0.4650  0.3504
14148TIP3    H263936   2.164   2.364   0.657  1.3688  0.2100  0.5083
14149TIP3   OH263937   2.914   6.371   2.992 -0.1240 -0.0821  0.0866
14149TIP3    H163938   3.001   6.396   3.021  0.6327 -0.2607 -1.9200
14149TIP3    H263939   2.920   6.277   2.975 -0.4048  0.0884 -1.0320
14150TIP3   OH263940   2.000   4.607  11.116 -0.1392  0.6035  0.1379
14150TIP3    H163941   2.027   4.563  11.035  0.1401 -1.0953  1.1428
14150TIP3    H263942   1.912   4.574  11.133 -1.1346  2.7178 -0.6878
14151TIP3   OH263943   3.271   1.449   5.464 -0.2116  0.2134  0.2737
14151TIP3    H163944   3.274   1.463   5.369 -1.3370 -0.6612  0.0948
14151TIP3    H263945   3.359   1.419   5.486  0.0488  0.3912 -0.5051
14152TIP3   OH263946   6.731   1.087  13.412  0.2546  0.3646 -0.1635
14152TIP3    H163947   6.797   1.017  13.413 -0.4791 -0.3405  0.2801
14152TIP3    H263948   6.660   1.051  13.359 -0.5877  0.3368  0.9697
14153TIP3   OH263949   3.882   3.932   1.625  0.0390 -0.3442  0.0662
14153TIP3    H163950   3.885   4.025   1.646 -1.9561 -0.4090  0.7480
14153TIP3    H263951   3.894   3.888   1.709 -1.7528 -0.6635  0.1664
14154TIP3   OH263952   5.493   2.970   1.554 -0.5544 -0.7218  0.0644
14154TIP3    H163953   5.518   3.058   1.527 -0.4574 -1.0355 -0.8823
14154TIP3    H263954   5.546   2.953   1.632  0.2486 -0.3621 -0.3927
14155TIP3   OH263955   2.371   3.015   6.271 -0.7897 -0.9086  0.3801
14155TIP3    H163956   2.445   3.076   6.279 -0.0822 -1.9788  2.4968
14155TIP3    H263957   2.377   2.982   6.182 -1.1540  2.0414 -0.8064
14156TIP3   OH263958   0.634   6.403   0.565  0.1958  0.2006  0.3032
14156TIP3    H163959   0.679   6.398   0.481  1.6967 -0.9417  1.1535
14156TIP3    H263960   0.654   6.490   0.598  1.1354 -0.0243  0.3260
14157TIP3   OH263961   4.946   5.158   3.834  0.1163 -0.1794  0.0422
14157TIP3    H163962   4.939   5.136   3.741  1.5412  2.1085 -0.6508
14157TIP3    H263963   5.024   5.213   3.840 -0.0576 -0.1477  2.5712
14158TIP3   OH263964   6.720   0.588   6.716 -0.3492  0.1574  0.7924
14158TIP3    H163965   6.634   0.556   6.691 -0.0653  1.0142 -1.3503
14158TIP3    H263966   6.709   0.683   6.720 -0.2113  0.1022  3.3424
14159TIP3   OH263967   4.131   4.042  12.418 -0.3332  0.5122 -0.0652
14159TIP3    H163968   4.159   4.063  12.507 -2.8292 -1.6561  1.2931
14159TIP3    H263969   4.195   3.979  12.387 -0.0914  0.4046  0.6378
14160TIP3   OH263970   6.304   5.701   0.329  0.1749 -0.6974 -0.0833
14160TIP3    H163971   6.374   5.649   0.289 -0.1432 -0.4438 -0.9885
14160TIP3    H263972   6.276   5.760   0.259 -0.3985 -0.2514  0.5241
14161TIP3   OH263973   4.885   6.383   3.129  0.2329  0.4670  0.0469
14161TIP3    H163974   4.829   6.361   3.203 -1.7604  1.9785 -0.9949
14161TIP3    H263975   4.863   6.318   3.062  0.2191  0.6509 -0.1274
14162TIP3   OH263976   2.543   6.335   2.955  0.1402  0.3706 -0.1845
14162TIP3    H163977   2.557   6.321   2.861 -0.1113  0.3049 -0.2139
14162TIP3    H263978   2.459   6.294   2.972  0.3027  0.1655  0.1209
14163TIP3   OH263979   1.158   4.254   5.109  0.2555 -0.0689 -0.0374
14163TIP3    H163980   1.192   4.328   5.059 -0.1629  0.7593  0.8656
14163TIP3    H263981   1.215   4.181   5.087 -0.9075 -0.1650 -2.9995
14164TIP3   OH263982   4.319   2.433   2.294 -0.3133  0.5460 -0.2968
14164TIP3    H163983   4.361   2.514   2.324  1.4741 -0.0778 -1.0696
14164TIP3    H263984   4.255   2.463   2.229  0.4425  1.3299 -0.6933
14165TIP3   OH263985   4.550   6.035  13.107  0.0640  0.0653  0.7853
14165TIP3    H163986   4.488   6.031  13.179 -1.1715 -1.1678 -0.3042
14165TIP3    H263987   4.605   5.958  13.118 -2.0818 -1.8418 -1.2526
14166TIP3   OH263988   4.032   5.864  11.804 -0.0662  0.4266 -0.1884
14166TIP3    H163989   3.965   5.922  11.768  0.6190  0.2824 -1.7268
14166TIP3    H263990   4.093   5.850  11.732 -0.4110 -2.5206  0.0214
14167TIP3   OH263991   4.024   6.520  16.167 -0.0929  0.5153 -0.1452
14167TIP3    H163992   4.099   6.571  16.198 -0.6475  1.3755 -0.2034
14167TIP3    H263993   4.055   6.478  16.087  0.7717 -0.2604  0.5828
14168TIP3   OH263994   5.312   2.407   0.373 -0.6337 -0.0113  0.8304
14168TIP3    H163995   5.321   2.491   0.418 -0.8092  1.5603 -1.9405
14168TIP3    H263996   5.397   2.365   0.382  0.6024  2.0678 -0.7372
14169TIP3   OH263997   3.478   1.769   2.523  0.5666  0.1111  0.0074
14169TIP3    H163998   3.385   1.789   2.520  0.9725  2.0229 -3.2835
14169TIP3    H263999   3.520   1.852   2.546  1.5148 -0.4190  0.2425
14170TIP3   OH264000   1.434   6.477  15.739 -0.0496 -0.3060 -0.4468
14170TIP3    H164001   1.514   6.523  15.766  0.6020 -1.7004  0.0370
14170TIP3    H264002   1.394   6.447  15.820 -0.8861  0.0700 -0.7137
14171TIP3   OH264003   4.452   4.251  11.262 -0.4489  0.5858 -0.8595
14171TIP3    H164004   4.491   4.338  11.268 -1.0336  0.7662  0.5145
14171TIP3    H264005   4.513   4.201  11.208  0.9037  1.3012 -0.0250
14172TIP3   OH264006   1.629   2.692  15.011 -0.0464 -0.3217  0.3523
14172TIP3    H164007   1.582   2.609  15.004  0.4107 -0.6034  0.5868
14172TIP3    H264008   1.722   2.667  15.011  0.1054  0.2427 -0.2486
14173TIP3   OH264009   3.377   3.431  10.727 -0.1638  0.3753 -0.7602
14173TIP3    H164010   3.456   3.438  10.780  0.2441  0.4682 -1.3825
14173TIP3    H264011   3.381   3.343  10.690 -0.1858  0.4969 -1.0529
14174TIP3   OH264012   1.036   3.772  12.075 -0.2491  0.0148  0.2998
14174TIP3    H164013   0.968   3.711  12.048  0.6189 -0.9450  0.2827
14174TIP3    H264014   1.011   3.855  12.034 -0.6240 -0.6733 -0.8840
14175TIP3   OH264015   4.810   0.181   2.286  0.1137 -0.2116  0.2113
14175TIP3    H164016   4.718   0.191   2.264 -0.0065 -0.7104  0.4909
14175TIP3    H264017   4.855   0.188   2.202 -0.2382 -0.7487 -0.0236
14176TIP3   OH264018   0.504   4.348   4.534 -0.2796 -0.6637  0.4224
14176TIP3    H164019   0.424   4.297   4.527 -1.8243  1.2143  3.1343
14176TIP3    H264020   0.539   4.326   4.621 -0.6618  2.2803  1.4054
14177TIP3   OH264021   5.006   4.042  13.045  0.0148  0.1112  0.0410
14177TIP3    H164022   5.097   4.016  13.034  0.0183 -0.4203  1.1730
14177TIP3    H264023   4.957   3.960  13.039 -0.5093  0.5453 -1.7427
14178TIP3   OH264024   5.071   4.252   0.577  0.0523 -0.1425  0.1468
14178TIP3    H164025   5.099   4.302   0.499  0.1002 -0.1296  0.1724
14178TIP3    H264026   5.014   4.313   0.624 -0.4659 -0.3581 -0.1878
14179TIP3   OH264027   0.574   0.416   0.222  0.0574  0.9344 -0.1590
14179TIP3    H164028   0.552   0.441   0.132  0.7520  2.9008  0.1926
14179TIP3    H264029   0.660   0.455   0.238  0.7065 -0.8242  0.8112
14180TIP3   OH264030   0.968   6.671  14.644  0.0601  0.6211 -0.1153
14180TIP3    H164031   1.033   6.642  14.580 -0.8723  0.8892 -1.2125
14180TIP3    H264032   0.904   6.600  14.647  0.5039  0.2647  1.1163
14181TIP3   OH264033   0.278   5.621   0.016  0.1685 -0.8949 -0.3706
14181TIP3    H164034   0.257   5.621  -0.077 -0.0350 -2.1927 -0.3328
14181TIP3    H264035   0.208   5.569   0.057  0.5841 -0.8398  0.4272
14182TIP3   OH264036   4.901   6.154  12.287 -0.3941 -0.1936  0.9964
14182TIP3    H164037   4.974   6.181  12.342 -1.5605  0.5124  2.2260
14182TIP3    H264038   4.900   6.059  12.293  0.6777 -0.2280  0.6385
14183TIP3   OH264039   0.620   6.534  13.418 -0.9021 -0.1314 -0.6055
14183TIP3    H164040   0.684   6.554  13.486 -0.3004 -0.4522 -1.0696
14183TIP3    H264041   0.570   6.614  13.408 -1.5434 -0.3431  0.8008
14184TIP3   OH264042   4.585   4.908   6.549 -0.3024  0.0584 -0.0017
14184TIP3    H164043   4.677   4.922   6.573  0.6138 -1.6954 -2.2785
14184TIP3    H264044   4.557   4.990   6.509 -0.6329  1.5905  3.1763
14185TIP3   OH264045   6.025   4.481  12.585  0.0886 -0.0944  0.2720
14185TIP3    H164046   5.994   4.441  12.505  0.7664  0.8925 -0.4990
14185TIP3    H264047   6.101   4.533  12.558 -1.0920  2.1388  1.1470
14186TIP3   OH264048   1.956   0.496   0.765  0.5993 -0.2025 -0.6480
14186TIP3    H164049   1.949   0.404   0.791 -1.4770  0.1444  0.0615
14186TIP3    H264050   1.955   0.544   0.848 -0.7186  0.5997 -1.1228
14187TIP3   OH264051   6.481   4.950  15.790  0.3269 -0.6993  0.0545
14187TIP3    H164052   6.400   4.938  15.839  0.2336  1.0784  0.3762
14187TIP3    H264053   6.455   4.946  15.698  0.1829 -2.0394  0.1526
14188TIP3   OH264054   2.693   3.004   1.690 -0.2755 -0.4832 -0.3113
14188TIP3    H164055   2.710   3.085   1.643 -3.8334  0.8494  0.5007
14188TIP3    H264056   2.729   3.018   1.777 -2.7853  1.1969  0.5294
14189TIP3   OH264057   4.828   5.998  15.515 -0.1655  0.0303  0.0462
14189TIP3    H164058   4.743   5.960  15.493  0.0814  0.3267 -1.4553
14189TIP3    H264059   4.869   5.932  15.572 -2.5586  1.1639  3.2304
14190TIP3   OH264060   2.059   2.457   5.003 -0.4801  0.0714 -0.9517
14190TIP3    H164061   2.122   2.435   5.071 -1.4298 -0.1694 -0.1229
14190TIP3    H264062   1.984   2.493   5.051 -0.7439  0.8778 -1.9540
14191TIP3   OH264063   3.033   5.042  14.919  0.4361  0.8371 -0.3648
14191TIP3    H164064   2.978   4.964  14.926  0.2292  1.1045  1.1076
14191TIP3    H264065   3.119   5.008  14.895  0.1185  0.2373 -0.6699
14192TIP3   OH264066   0.078   2.691   1.900  0.1936 -0.4789 -0.2401
14192TIP3    H164067   0.125   2.768   1.933  0.2340 -0.6809  0.1731
14192TIP3    H264068   0.078   2.629   1.973 -0.0430 -0.7824 -0.4944
14193TIP3   OH264069   5.918   2.886   4.062  0.1781  0.2136  0.2548
14193TIP3    H164070   5.971   2.962   4.086  0.7419 -1.1762  3.6477
14193TIP3    H264071   5.981   2.820   4.033 -0.2521  0.6680 -1.8584
14194TIP3   OH264072   2.687   2.631  16.368  0.1666  0.3466 -0.7129
14194TIP3    H164073   2.683   2.669  16.455 -0.3485  0.5137 -0.8096
14194TIP3    H264074   2.629   2.556  16.371  1.6159 -0.7747 -0.3658
14195TIP3   OH264075   2.748   3.358  15.553  0.2235 -0.4109 -0.1883
14195TIP3    H164076   2.832   3.368  15.507 -0.4847  0.5200 -1.3132
14195TIP3    H264077   2.724   3.447  15.579 -0.4943 -0.6540 -0.0068
14196TIP3   OH264078   3.743   6.786  13.912 -0.3641 -0.1238 -0.2673
14196TIP3    H164079   3.687   6.752  13.981  0.8103  0.1270  0.8076
14196TIP3    H264080   3.697   6.865  13.881  0.2021  1.0191  1.7454
14197TIP3   OH264081   4.514   6.197   0.132  0.1251  0.1661 -0.2277
14197TIP3    H164082   4.550   6.245   0.207  0.5525  1.6186 -1.3446
14197TIP3    H264083   4.516   6.260   0.060 -1.3303 -0.8646 -1.1969
14198TIP3   OH264084   5.424   5.642   2.873 -0.3602 -0.1446 -0.2762
14198TIP3    H164085   5.354   5.579   2.859 -0.4478 -0.6200  2.1470
14198TIP3    H264086   5.405   5.713   2.812 -2.7251 -0.4557  0.0668
14199TIP3   OH264087   6.059   5.343   0.380  0.3502  0.7615 -0.2141
14199TIP3    H164088   6.083   5.262   0.334  1.3324  1.0810 -0.2623
14199TIP3    H264089   5.985   5.318   0.435  1.5558 -0.5173  0.8474
14200TIP3   OH264090   0.984   3.855   0.461  0.1656 -0.4340 -0.2023
14200TIP3    H164091   1.058   3.796   0.478  1.2260  1.8349  3.6001
14200TIP3    H264092   0.912   3.818   0.512 -0.7779 -1.4614 -2.2292
14201TIP3   OH264093   1.917   5.822   2.074 -0.2796 -0.4406 -0.1098
14201TIP3    H164094   1.861   5.877   2.019  1.8007  0.1070 -1.7556
14201TIP3    H264095   1.941   5.748   2.017 -1.0275 -1.7729  1.2704
14202TIP3   OH264096   6.175   2.448   3.788  0.3920 -0.1149  0.1528
14202TIP3    H164097   6.179   2.370   3.732  1.7684 -0.2423  0.4024
14202TIP3    H264098   6.221   2.422   3.868  0.2915  0.7564  0.4957
14203TIP3   OH264099   0.267   2.021   1.940 -0.4824  0.1605 -0.6920
14203TIP3    H164100   0.330   2.052   1.874  1.6409 -1.3380  0.5913
14203TIP3    H264101   0.316   1.958   1.992 -3.4881 -2.1358 -0.5503
14204TIP3   OH264102   4.441   3.097   5.093 -0.2847  0.2982  0.4027
14204TIP3    H164103   4.523   3.070   5.135 -1.0462  0.2994  1.9112
14204TIP3    H264104   4.415   3.022   5.041  1.0465  0.5536 -0.6544
14205TIP3   OH264105   4.546   5.257  13.018 -0.2288 -0.2859 -0.1238
14205TIP3    H164106   4.603   5.277  13.092 -0.3225  0.7642 -0.3287
14205TIP3    H264107   4.605   5.223  12.950  0.2983  1.5651 -0.6304
14206TIP3   OH264108   5.417   0.512   6.111 -1.1550  0.1104 -0.5893
14206TIP3    H164109   5.347   0.562   6.069 -1.3593 -1.6872 -2.4393
14206TIP3    H264110   5.383   0.423   6.117  0.1607 -0.3402  0.4603
14207TIP3   OH264111   4.726   6.780   3.306  0.0404  0.3541  0.1798
14207TIP3    H164112   4.742   6.839   3.232  0.4802 -1.0806 -0.8752
14207TIP3    H264113   4.668   6.712   3.272  0.3457 -0.3906  1.1170
14208TIP3   OH264114   2.052   5.636   3.204 -0.2153  0.1356 -0.0137
14208TIP3    H164115   1.981   5.614   3.265 -0.2331 -1.3381 -0.5480
14208TIP3    H264116   2.120   5.571   3.223 -0.5905 -0.9236 -2.1836
14209TIP3   OH264117   4.061   3.839   1.425  0.2306 -0.5966  0.3437
14209TIP3    H164118   4.000   3.868   1.492  0.1468 -1.2698  0.5680
14209TIP3    H264119   4.136   3.898   1.433  0.3621 -0.8848  1.2589
14210TIP3   OH264120   5.314   4.513  16.633  0.3359 -0.3191  0.0326
14210TIP3    H164121   5.316   4.488  16.725  1.3990 -0.8539 -0.1263
14210TIP3    H264122   5.355   4.439  16.587 -2.3552 -1.1447 -1.1349
14211TIP3   OH264123   1.573   0.580  11.552 -0.5111  0.1987 -0.1251
14211TIP3    H164124   1.553   0.673  11.561 -0.6200  0.2804 -1.1020
14211TIP3    H264125   1.553   0.542  11.637 -1.2437  0.9308  0.0331
14212TIP3   OH264126   0.326   6.225   4.828  0.2437 -0.3576 -0.0086
14212TIP3    H164127   0.301   6.138   4.798 -0.8370 -0.8200  2.1125
14212TIP3    H264128   0.283   6.285   4.767 -0.5669 -1.2954 -0.3665
14213TIP3   OH264129   0.085   1.607  16.540  0.0079 -0.5978 -0.6587
14213TIP3    H164130   0.107   1.649  16.457 -1.4632 -0.4515 -0.9885
14213TIP3    H264131   0.119   1.666  16.607 -1.1810  0.6509 -1.1317
14214TIP3   OH264132   0.984   6.453   0.394 -0.1732 -0.0852  0.7982
14214TIP3    H164133   0.948   6.541   0.384  2.5971  1.1940  1.4026
14214TIP3    H264134   1.013   6.429   0.305  0.3701  0.2360  0.8829
14215TIP3   OH264135   2.835   4.692   2.695 -0.1741  0.1387  0.0024
14215TIP3    H164136   2.794   4.692   2.608  0.0103  1.5827 -0.0966
14215TIP3    H264137   2.912   4.748   2.686 -0.5109  0.8397  1.2469
14216TIP3   OH264138   2.832   0.914  13.068 -0.7427  0.7221  0.7053
14216TIP3    H164139   2.810   0.863  12.991 -0.1693  0.7504  0.5177
14216TIP3    H264140   2.816   0.855  13.142 -0.2514  0.3338  0.5011
14217TIP3   OH264141   0.225   0.127   2.426 -0.1647  0.2523  0.1511
14217TIP3    H164142   0.295   0.071   2.391  0.3522  1.3954 -0.6658
14217TIP3    H264143   0.187   0.168   2.349 -1.3689  0.0824  0.6509
14218TIP3   OH264144   0.347   3.891   1.645 -0.9306  0.7785  0.4067
14218TIP3    H164145   0.298   3.843   1.578  2.1453 -0.7192 -0.8550
14218TIP3    H264146   0.341   3.983   1.619 -0.2361  0.2566 -1.6053
14219TIP3   OH264147   0.137   1.134  16.321  0.0028 -0.5082  0.3924
14219TIP3    H164148   0.158   1.052  16.365  0.8457 -0.0683  0.8252
14219TIP3    H264149   0.197   1.198  16.360 -1.5851  0.6088  1.0299
14220TIP3   OH264150   1.447   1.375  11.612 -0.1325 -0.3605 -0.1156
14220TIP3    H164151   1.443   1.398  11.519  0.4144  0.9362  0.1620
14220TIP3    H264152   1.360   1.400  11.646  0.4637  1.3832  0.1869
14221TIP3   OH264153   2.167   0.548   4.360  0.2078  0.5453 -0.9260
14221TIP3    H164154   2.079   0.526   4.388  0.4569  0.5611 -0.1065
14221TIP3    H264155   2.180   0.638   4.391  1.5943 -0.4799  1.7044
14222TIP3   OH264156   6.438   0.030  13.192  0.0744 -0.2533 -0.7024
14222TIP3    H164157   6.425  -0.060  13.161 -0.6720  0.3327 -2.1164
14222TIP3    H264158   6.502   0.021  13.262 -0.3447 -1.9499 -0.5083
14223TIP3   OH264159   3.529   4.694   4.668 -0.0378  0.0834 -0.3394
14223TIP3    H164160   3.569   4.683   4.582 -0.4645 -1.3301 -0.3715
14223TIP3    H264161   3.435   4.701   4.650 -0.1620 -0.5616  0.0183
14224TIP3   OH264162   0.339   5.556  15.999 -0.2629  0.2932  0.0634
14224TIP3    H164163   0.333   5.651  16.010 -1.6729  0.1554  0.6242
14224TIP3    H264164   0.250   5.529  15.978 -0.3632 -1.1824  2.1755
14225TIP3   OH264165   3.081   6.547   4.352 -0.1691 -0.0853  1.0662
14225TIP3    H164166   3.165   6.503   4.338 -1.7505 -2.9304  0.1827
14225TIP3    H264167   3.064   6.538   4.446  0.2190 -0.1007  1.1332
14226TIP3   OH264168   5.628   6.161   4.661  0.1999 -0.3048 -0.1186
14226TIP3    H164169   5.614   6.141   4.754  0.0067 -0.9010 -0.2769
14226TIP3    H264170   5.595   6.250   4.651 -1.9858 -1.0962 -0.1344
14227TIP3   OH264171   2.847   4.216  12.672 -0.4397 -0.0981  0.3320
14227TIP3    H164172   2.766   4.166  12.662 -0.3874 -0.0997 -0.1225
14227TIP3    H264173   2.899   4.192  12.595  0.5397 -1.1018  1.2963
14228TIP3   OH264174   4.285   2.373  14.429  0.4825 -0.5818 -0.1502
14228TIP3    H164175   4.307   2.299  14.372 -0.0084 -1.3765  0.6861
14228TIP3    H264176   4.266   2.444  14.369 -1.7394 -1.8855 -1.0292
14229TIP3   OH264177   5.160   0.712   0.821  0.3391 -0.3529  0.2072
14229TIP3    H164178   5.222   0.720   0.894  1.6201 -0.6716 -0.8428
14229TIP3    H264179   5.135   0.620   0.820 -0.1568 -0.2306  0.6104
14230TIP3   OH264180   2.445   0.265  15.290 -0.3996 -0.5567  0.7982
14230TIP3    H164181   2.537   0.263  15.317  0.1098  0.7094 -0.7380
14230TIP3    H264182   2.438   0.195  15.225 -0.1307  0.3420 -0.2141
14231TIP3   OH264183   5.442   5.662  13.185  0.1492 -0.0657 -0.0524
14231TIP3    H164184   5.465   5.636  13.274 -1.9383 -0.3675  0.4206
14231TIP3    H264185   5.500   5.609  13.129 -0.4775 -1.9791  1.0619
14232TIP3   OH264186   5.252   0.887   4.387  0.0854 -0.6108  0.6868
14232TIP3    H164187   5.211   0.847   4.310 -0.9629  0.2438  0.7857
14232TIP3    H264188   5.336   0.921   4.355 -0.1726 -0.6116  0.0059
14233TIP3   OH264189   0.971   1.647   0.281  0.4215  0.0323  0.0713
14233TIP3    H164190   0.943   1.621   0.194  2.7130  0.2174 -0.7425
14233TIP3    H264191   0.927   1.731   0.296 -1.0363 -0.6430 -0.3358
14234TIP3   OH264192   2.481   1.600   4.911  0.0469  0.4895 -0.4264
14234TIP3    H164193   2.444   1.655   4.980 -0.6620 -0.7311  0.1830
14234TIP3    H264194   2.445   1.636   4.829 -0.7019  0.7002 -0.0056
14235TIP3   OH264195   4.820   4.818  17.086  0.6204  0.5792 -0.4407
14235TIP3    H164196   4.912   4.843  17.075  1.2385 -1.2709  0.4205
14235TIP3    H264197   4.806   4.821  17.181  0.7805 -2.4994 -0.2864
14236TIP3   OH264198   3.620   4.921   0.877  0.7684 -0.4730 -0.0394
14236TIP3    H164199   3.714   4.908   0.863  1.3091  1.9001  1.2478
14236TIP3    H264200   3.612   4.939   0.971 -1.0712 -1.3184 -0.0084
14237TIP3   OH264201   5.664   4.696  16.447  0.1663  0.2218  0.5305
14237TIP3    H164202   5.680   4.602  16.456  3.9132  0.4354 -2.4687
14237TIP3    H264203   5.717   4.736  16.516 -0.6083  0.2334  1.1321
14238TIP3   OH264204   3.781   0.395   2.496 -0.2858 -0.3187 -0.3494
14238TIP3    H164205   3.751   0.341   2.569  2.3715 -2.5212 -0.7851
14238TIP3    H264206   3.861   0.436   2.528  0.6183 -0.8874 -1.8006
14239TIP3   OH264207   4.854   3.145  12.679 -0.1710 -0.6575  0.8628
14239TIP3    H164208   4.850   3.241  12.676  1.1330 -0.6163 -0.0228
14239TIP3    H264209   4.776   3.116  12.633  0.9334  0.0048 -1.5143
14240TIP3   OH264210   3.636   2.675   6.414  0.5398 -0.0492 -0.4364
14240TIP3    H164211   3.542   2.663   6.414  0.7205 -1.5380  0.7931
14240TIP3    H264212   3.649   2.770   6.421 -0.8511  0.2594 -1.8328
14241TIP3   OH264213   3.515   0.307  11.092  0.8066 -0.5301  0.0510
14241TIP3    H164214   3.566   0.255  11.153  0.6933 -1.0808 -0.3231
14241TIP3    H264215   3.433   0.258  11.080 -0.0448  0.6159  1.0686
14242TIP3   OH264216   5.006   0.542  14.794 -0.7967 -0.3672 -0.0820
14242TIP3    H164217   5.023   0.492  14.714 -0.3188  2.1200 -1.5881
14242TIP3    H264218   4.910   0.546  14.798 -0.8238 -0.3419 -0.6250
14243TIP3   OH264219   3.500   4.978  14.791 -0.1682  0.0300  0.2896
14243TIP3    H164220   3.554   4.906  14.825  0.1929 -0.0755 -0.5098
14243TIP3    H264221   3.417   4.969  14.838  0.2348 -0.2748  0.9599
14244TIP3   OH264222   2.711   3.460   2.226  0.0064 -0.3715 -0.0649
14244TIP3    H164223   2.795   3.441   2.267 -0.9257 -0.8707  1.6816
14244TIP3    H264224   2.733   3.502   2.143  2.0542 -3.4230 -1.1554
14245TIP3   OH264225   2.533   4.232   4.948  0.2935  0.5956 -0.8804
14245TIP3    H164226   2.567   4.321   4.961 -0.9937  0.8601  0.9153
14245TIP3    H264227   2.603   4.175   4.979  0.5963  1.0277 -0.7585
14246TIP3   OH264228   5.075   0.757   1.335  0.3734  0.5636  0.1298
14246TIP3    H164229   5.162   0.718   1.338  0.2292  0.3653  2.1693
14246TIP3    H264230   5.081   0.824   1.267  1.8785 -0.0115 -0.3106
14247TIP3   OH264231   1.244   2.755  16.506 -0.7946 -0.2324  0.2529
14247TIP3    H164232   1.330   2.715  16.493 -0.1921  0.7452  1.1330
14247TIP3    H264233   1.211   2.770  16.418  1.9331  3.5704 -0.2469
14248TIP3   OH264234   3.694   3.838   4.829 -0.4008  0.2379 -0.1882
14248TIP3    H164235   3.722   3.898   4.898 -0.2764 -0.0186 -0.0141
14248TIP3    H264236   3.599   3.837   4.834 -0.3576 -0.5870  0.6751
14249TIP3   OH264237   5.538   4.601   3.909  0.5611  0.6790  0.4339
14249TIP3    H164238   5.453   4.595   3.866  0.8208  0.7370 -0.1026
14249TIP3    H264239   5.525   4.560   3.994  0.6067 -1.5563 -0.5844
14250TIP3   OH264240   1.451   4.258   6.245 -0.2426  0.2879 -0.6034
14250TIP3    H164241   1.538   4.298   6.235 -0.3195  0.3770 -0.9229
14250TIP3    H264242   1.430   4.270   6.338  1.1188 -1.8760  0.0290
14251TIP3   OH264243   4.614   0.429  13.703  0.6620 -0.8968  0.0495
14251TIP3    H164244   4.584   0.480  13.778  0.0963 -0.9496 -0.1355
14251TIP3    H264245   4.623   0.339  13.736 -0.8160 -1.1635 -0.2613
14252TIP3   OH264246   2.085   6.769   2.121 -0.4484  0.2551  0.0365
14252TIP3    H164247   2.089   6.786   2.027  0.3195 -0.2332 -0.0203
14252TIP3    H264248   2.020   6.832   2.154 -0.2294  0.8856 -0.7172
14253TIP3   OH264249   2.160   2.181  11.290  0.4292  0.3709 -0.3999
14253TIP3    H164250   2.120   2.176  11.203 -0.7762  0.0511  0.1623
14253TIP3    H264251   2.115   2.113  11.341  1.0381  0.6387  0.5113
14254TIP3   OH264252   5.375   5.101  13.581  0.5387  0.3574  0.4866
14254TIP3    H164253   5.328   5.181  13.603 -2.9241 -1.2173 -0.8178
14254TIP3    H264254   5.346   5.080  13.492 -0.1246 -3.3376  1.4825
14255TIP3   OH264255   5.899   1.033   4.231 -0.1977 -0.2103 -0.1825
14255TIP3    H164256   5.931   0.960   4.285 -0.1094  0.5364  0.7965
14255TIP3    H264257   5.877   0.993   4.147  0.6302 -1.2284  0.0691
14256TIP3   OH264258   0.556   4.945  14.800 -0.3889  0.0270  0.2365
14256TIP3    H164259   0.609   4.876  14.761  0.5546  2.1126 -2.2737
14256TIP3    H264260   0.471   4.903  14.816  0.3779 -1.9002 -0.5514
14257TIP3   OH264261   0.612   2.784   0.065 -0.3498 -0.1949 -0.0895
14257TIP3    H164262   0.581   2.874   0.071  0.8660  0.2852 -0.7258
14257TIP3    H264263   0.630   2.759   0.155 -1.1907  0.0177  0.1411
14258TIP3   OH264264   5.744   2.073   2.437 -0.7854 -0.0201  0.1315
14258TIP3    H164265   5.736   2.167   2.449 -0.3444 -0.0079  0.3360
14258TIP3    H264266   5.711   2.057   2.348 -2.1586  0.1402  0.6096
14259TIP3   OH264267   5.061   2.362  15.673 -0.2101 -0.1108  0.0416
14259TIP3    H164268   4.981   2.341  15.626  0.0891  1.0047 -0.9855
14259TIP3    H264269   5.124   2.296  15.645 -0.9445 -1.4241  1.3922
14260TIP3   OH264270   0.669   1.741  15.187 -0.7827 -0.1260  0.1001
14260TIP3    H164271   0.662   1.801  15.261  2.4114  2.3045 -1.4244
14260TIP3    H264272   0.738   1.679  15.212 -1.5038 -0.9255  0.1631
14261TIP3   OH264273   0.029   3.319  11.218 -0.1834 -0.3562  0.1019
14261TIP3    H164274   0.032   3.403  11.171  0.9586 -0.5676 -0.2114
14261TIP3    H264275  -0.023   3.262  11.161  0.1816 -0.2574 -0.3335
14262TIP3   OH264276   3.877   1.566   5.267 -0.0180  0.0141 -0.3831
14262TIP3    H164277   3.934   1.526   5.201  0.2890  0.7071 -0.5392
14262TIP3    H264278   3.925   1.557   5.349  0.5482  1.0396 -0.5920
14263TIP3   OH264279   1.213   3.141  13.171 -0.3306 -0.1723 -0.0251
14263TIP3    H164280   1.156   3.180  13.105 -0.5893  0.2481  0.4451
14263TIP3    H264281   1.157   3.131  13.248 -0.4863 -2.1627 -0.3599
14264TIP3   OH264282   4.083   4.685   0.447 -0.0073 -0.3813  0.1137
14264TIP3    H164283   4.157   4.633   0.477  1.0109  1.8710  1.6498
14264TIP3    H264284   4.086   4.679   0.351  3.1077  0.8660  0.0843
14265TIP3   OH264285   2.819   2.451   3.758  0.6557  0.0309 -0.4852
14265TIP3    H164286   2.822   2.393   3.834  1.1762 -0.9034 -1.2210
14265TIP3    H264287   2.903   2.438   3.714  0.5595  0.9373 -0.9616
14266TIP3   OH264288   2.062   6.596   5.538  0.7224 -0.9652 -0.3350
14266TIP3    H164289   2.120   6.637   5.602 -0.6072 -1.6492  1.3264
14266TIP3    H264290   2.104   6.513   5.517  0.2337 -1.5761  1.0623
14267TIP3   OH264291   2.077   2.864  13.555 -0.3815  0.5453  0.2759
14267TIP3    H164292   2.074   2.771  13.535 -0.9375 -0.0746  2.9711
14267TIP3    H264293   2.100   2.906  13.473  1.4459 -2.1057 -0.6347
14268TIP3   OH264294   4.077   2.742  13.652  0.0197  0.3051  0.4032
14268TIP3    H164295   4.157   2.788  13.676  0.3098 -0.1746  0.3736
14268TIP3    H264296   4.075   2.666  13.710 -0.2351  0.1350  0.1724
14269TIP3   OH264297   0.867   5.902   2.385  0.3023 -0.2073  0.0834
14269TIP3    H164298   0.829   5.843   2.450  0.0721  0.3437  0.4518
14269TIP3    H264299   0.792   5.927   2.330  0.5519 -0.9285 -0.6042
14270TIP3   OH264300   2.274   5.179  14.077  0.1328  0.4472 -0.3456
14270TIP3    H164301   2.304   5.253  14.023  2.0250  0.2722  0.4393
14270TIP3    H264302   2.309   5.102  14.034  1.5058  0.2950  1.0203
14271TIP3   OH264303   0.200   6.779   1.510  0.5045 -0.2178 -0.0118
14271TIP3    H164304   0.139   6.799   1.438  1.2722 -0.2656 -0.6797
14271TIP3    H264305   0.175   6.691   1.538  0.2331 -0.2215 -0.2492
14272TIP3   OH264306   1.777   4.143   0.514 -0.0607  0.3286 -0.5248
14272TIP3    H164307   1.798   4.075   0.579  0.4705 -0.1592 -1.2050
14272TIP3    H264308   1.692   4.117   0.480  1.0586 -1.1671 -2.2814
14273TIP3   OH264309   6.000   5.775  15.238 -0.4048 -0.0279 -0.7195
14273TIP3    H164310   5.941   5.713  15.198 -0.4933  0.6843 -1.7078
14273TIP3    H264311   6.045   5.817  15.165 -1.2953  1.9983 -0.1372
14274TIP3   OH264312   3.805   1.786  12.517 -0.1008  0.1658  0.1531
14274TIP3    H164313   3.776   1.877  12.516  1.6175  0.7344  0.8398
14274TIP3    H264314   3.853   1.775  12.435 -1.5301 -0.5458 -0.6064
14275TIP3   OH264315   1.966   6.477  14.046  0.0258  0.5058  0.1696
14275TIP3    H164316   1.974   6.411  13.977 -0.9875  0.2784  0.2594
14275TIP3    H264317   1.978   6.427  14.127 -0.5221  0.4694  0.2279
14276TIP3   OH264318   3.193   1.464   4.956  0.1844  0.5100  0.2495
14276TIP3    H164319   3.151   1.415   4.885  1.6416 -0.4733  0.0336
14276TIP3    H264320   3.278   1.491   4.920  0.3686  1.1889  1.1620
14277TIP3   OH264321   3.559   6.167   1.085 -0.7367 -0.1836 -0.1970
14277TIP3    H164322   3.468   6.137   1.087 -0.5015 -1.0548 -1.5176
14277TIP3    H264323   3.594   6.143   1.170 -1.5546 -0.4665  0.0669
14278TIP3   OH264324   1.492   0.195   0.327  0.6091 -0.7568  0.0792
14278TIP3    H164325   1.499   0.129   0.257  0.6325  0.9839 -1.5873
14278TIP3    H264326   1.535   0.272   0.292  1.4182 -0.1102  2.3950
14279TIP3   OH264327   2.360   6.236  16.182  0.4390 -0.6630 -0.2703
14279TIP3    H164328   2.436   6.261  16.130  0.6902  0.2519  0.5439
14279TIP3    H264329   2.328   6.318  16.220  0.2307 -1.3174  0.9913
14280TIP3   OH264330   5.920   2.336  16.778 -0.1126 -0.2043 -0.1283
14280TIP3    H164331   5.833   2.342  16.817  0.0411 -0.5268  0.2646
14280TIP3    H264332   5.908   2.367  16.688 -0.3342  1.1820  0.3714
14281TIP3   OH264333   6.309   2.802   0.371  0.2602 -0.6148  0.1740
14281TIP3    H164334   6.374   2.815   0.302 -0.3971 -0.6214 -0.4509
14281TIP3    H264335   6.250   2.735   0.337 -0.3511 -0.2718  0.5413
14282TIP3   OH264336   0.348   5.533   0.779 -0.1839 -0.4455  0.4281
14282TIP3    H164337   0.431   5.489   0.759  0.4123  0.5628  0.6651
14282TIP3    H264338   0.356   5.620   0.741 -1.4401 -0.5871 -0.2072
14283TIP3   OH264339   0.909   4.334   2.822 -0.0673 -0.6481 -0.6137
14283TIP3    H164340   0.986   4.363   2.870 -1.8312 -0.2179  2.0981
14283TIP3    H264341   0.835   4.356   2.880 -2.3174  0.0741 -3.6285
14284TIP3   OH264342   2.670   5.190   5.824 -0.5661  0.0464 -0.3721
14284TIP3    H164343   2.651   5.261   5.884 -2.1292 -0.0017 -0.7809
14284TIP3    H264344   2.591   5.182   5.771  0.2767 -0.8018 -1.5290
14285TIP3   OH264345   2.987   3.701  13.593  0.3710 -0.8245  0.2333
14285TIP3    H164346   3.056   3.636  13.594  0.6075 -0.5694  0.7715
14285TIP3    H264347   3.007   3.758  13.667 -0.2703 -0.6018  0.2370
14286TIP3   OH264348   1.748   4.327  12.886 -0.1471  0.3625  0.1149
14286TIP3    H164349   1.733   4.285  12.801 -0.5180  0.6320  0.0423
14286TIP3    H264350   1.753   4.255  12.949 -1.6862  0.2433  0.1268
14287TIP3   OH264351   3.854   4.120   0.413 -0.3989  0.4788 -0.3963
14287TIP3    H164352   3.768   4.134   0.454 -0.3238  4.0428 -1.3432
14287TIP3    H264353   3.844   4.038   0.365 -2.7254 -0.0646  0.9335
14288TIP3   OH264354   0.757   3.703  12.110 -0.4760  0.3699  0.4851
14288TIP3    H164355   0.785   3.641  12.178  0.7596 -2.4804 -2.4724
14288TIP3    H264356   0.681   3.662  12.070  1.0100  0.1621 -2.2329
14289TIP3   OH264357   5.373   0.396   2.922  0.3442 -0.3124 -0.2095
14289TIP3    H164358   5.329   0.382   2.839  0.9418 -2.7920 -0.1372
14289TIP3    H264359   5.341   0.482   2.952 -0.9051 -0.0152 -2.3112
14290TIP3   OH264360   0.963   1.260  12.670  0.5456  0.0183  0.0300
14290TIP3    H164361   0.982   1.347  12.633  0.2419  0.5338  1.0699
14290TIP3    H264362   1.049   1.222  12.687  0.6781  0.4077  0.2367
14291TIP3   OH264363   3.500   1.211   3.832 -0.5007  0.1930 -0.3508
14291TIP3    H164364   3.487   1.230   3.925  1.6630  2.5483 -0.4843
14291TIP3    H264365   3.591   1.182   3.826 -0.3362  0.9642 -1.8577
14292TIP3   OH264366   2.119   0.800  14.657 -0.3286 -0.3506  0.2602
14292TIP3    H164367   2.185   0.730  14.665  0.0226 -0.2883 -1.8406
14292TIP3    H264368   2.058   0.767  14.592 -0.3637  1.1568 -0.4728
14293TIP3   OH264369   1.672   0.826   4.958  0.0647 -0.1667 -0.3046
14293TIP3    H164370   1.718   0.783   5.030 -2.8393 -1.0681  1.1105
14293TIP3    H264371   1.579   0.812   4.977 -0.8646  2.4311 -2.4820
14294TIP3   OH264372   5.448   2.005  13.943 -0.1210  0.3859  0.2074
14294TIP3    H164373   5.486   2.071  14.000 -1.9748  1.3691  0.3584
14294TIP3    H264374   5.367   2.045  13.910 -1.4625 -1.8965  0.5766
14295TIP3   OH264375   1.437   1.467  16.783 -0.3456 -0.1582 -0.1081
14295TIP3    H164376   1.448   1.398  16.717 -1.6391 -2.2628  1.8343
14295TIP3    H264377   1.364   1.520  16.749 -0.2340 -0.5199 -0.9381
14296TIP3   OH264378   0.048   3.305  13.384  0.3991 -0.5094 -0.0863
14296TIP3    H164379   0.131   3.257  13.383  0.7009  0.0178 -0.1263
14296TIP3    H264380   0.072   3.396  13.370 -0.1806 -0.3404 -0.0000
14297TIP3   OH264381   3.444   6.207  13.668 -0.3321 -0.4446 -0.4136
14297TIP3    H164382   3.405   6.148  13.603  1.4220 -1.7283 -0.3189
14297TIP3    H264383   3.424   6.294  13.635 -0.6047 -1.0728 -1.9901
14298TIP3   OH264384   2.122   6.008  16.515  0.5817 -0.2560  0.1529
14298TIP3    H164385   2.036   6.013  16.558  0.2095 -0.8505 -0.5089
14298TIP3    H264386   2.147   6.099  16.502  1.0778 -0.0509  2.3735
14299TIP3   OH264387   3.473   3.850  16.228 -0.7276  0.0386 -0.4356
14299TIP3    H164388   3.388   3.815  16.253 -0.8607  0.4544 -0.2971
14299TIP3    H264389   3.459   3.945  16.223  0.0516  0.2394  0.8989
14300TIP3   OH264390   3.961   6.772  15.499  0.0425  0.2582 -0.3347
14300TIP3    H164391   3.973   6.702  15.435 -1.5874  0.2096 -0.6218
14300TIP3    H264392   3.982   6.852  15.452 -0.7389  0.1856 -0.8242
14301TIP3   OH264393   1.279   3.996   0.537  0.1873 -0.6041  0.1095
14301TIP3    H164394   1.296   3.943   0.614 -0.2516  0.0842  0.6834
14301TIP3    H264395   1.188   3.978   0.515 -0.7494  1.8043  1.8101
14302TIP3   OH264396   3.054   1.337   3.735 -0.4238  0.5410 -0.0039
14302TIP3    H164397   3.048   1.431   3.721 -1.1808  0.6495  0.9870
14302TIP3    H264398   3.070   1.300   3.648 -2.7558  1.3563 -0.8093
14303TIP3   OH264399   6.611   6.102  16.348  0.4341 -0.5203 -0.3239
14303TIP3    H164400   6.638   6.042  16.417 -0.8597 -0.7657 -0.0045
14303TIP3    H264401   6.665   6.079  16.273  1.7636 -0.3391  0.5590
14304TIP3   OH264402   3.178   1.474   1.941 -0.1020  0.1386  0.4384
14304TIP3    H164403   3.266   1.439   1.955  0.3925  1.0869 -0.3440
14304TIP3    H264404   3.124   1.396   1.927  0.4452 -0.4997  1.7607
14305TIP3   OH264405   1.149   6.429  15.318 -0.1912  0.5276 -0.1369
14305TIP3    H164406   1.160   6.461  15.408 -0.1786 -0.2566  0.1390
14305TIP3    H264407   1.058   6.401  15.314 -0.2425  0.7353 -0.4257
14306TIP3   OH264408   0.241   0.832   4.115  0.0048 -0.1065 -0.6877
14306TIP3    H164409   0.198   0.749   4.097 -2.2816  1.2135 -1.5016
14306TIP3    H264410   0.178   0.881   4.169  0.4413  1.8767 -1.9194
14307TIP3   OH264411   4.262   3.382   2.875 -0.2539  0.0110 -0.0837
14307TIP3    H164412   4.315   3.306   2.850  1.8268  1.6114 -0.7012
14307TIP3    H264413   4.235   3.421   2.791 -0.9874  0.1760  0.2272
14308TIP3   OH264414   0.180   2.126  12.691 -0.1136  0.1631  0.0225
14308TIP3    H164415   0.212   2.210  12.658 -1.8759  1.2315  0.9337
14308TIP3    H264416   0.119   2.150  12.761 -0.2267 -1.9038  0.6617
14309TIP3   OH264417   3.584   0.796   2.273 -0.5112  0.1074 -0.1727
14309TIP3    H164418   3.659   0.738   2.260 -0.8338 -0.8984  2.3224
14309TIP3    H264419   3.511   0.750   2.230 -0.4451 -0.6329  0.4913
14310TIP3   OH264420   5.342   1.047   0.309 -0.1898  0.0334 -0.4887
14310TIP3    H164421   5.271   1.072   0.368  1.2692  2.4923  0.3006
14310TIP3    H264422   5.312   1.075   0.222 -0.2619  0.9023 -0.1883
14311TIP3   OH264423   3.166   0.120  13.251 -0.2815  0.2798 -0.6784
14311TIP3    H164424   3.252   0.080  13.237  0.6285  1.7799  0.4877
14311TIP3    H264425   3.149   0.168  13.170  1.3140  2.3478  0.1770
14312TIP3   OH264426   1.017   4.423  12.917 -0.7629 -0.0571  0.2123
14312TIP3    H164427   0.971   4.357  12.970 -0.6036 -1.0683 -0.8653
14312TIP3    H264428   0.975   4.506  12.939 -1.4955 -0.6385  1.0244
14313TIP3   OH264429   3.984   0.601   0.970 -0.0677  0.4263 -0.4109
14313TIP3    H164430   4.041   0.537   1.012 -1.1826 -0.0336  0.4315
14313TIP3    H264431   4.028   0.685   0.981  0.8933 -0.0539 -0.6049
14314TIP3   OH264432   5.072   6.142   2.641 -0.2023 -0.4550 -0.0011
14314TIP3    H164433   5.142   6.077   2.642  1.0854  0.8957  0.6670
14314TIP3    H264434   5.095   6.203   2.712 -0.4910  1.6301 -1.6564
14315TIP3   OH264435   4.734   5.723  16.575 -0.5398 -0.3746 -0.4895
14315TIP3    H164436   4.732   5.788  16.645 -0.7055  0.5264 -1.3189
14315TIP3    H264437   4.816   5.675  16.588 -1.2749 -1.2086  1.2032
14316TIP3   OH264438   0.149   0.842  16.399 -0.6237 -0.2258  0.3137
14316TIP3    H164439   0.139   0.798  16.314 -1.3574  0.6843 -0.0708
14316TIP3    H264440   0.086   0.798  16.456 -1.3975  0.3528 -0.0874
14317TIP3   OH264441   3.869   6.649   5.373  0.2274  0.3071 -0.3916
14317TIP3    H164442   3.895   6.663   5.282 -4.7840 -0.0660 -2.0153
14317TIP3    H264443   3.844   6.556   5.376  0.3087  0.3297  1.3911
14318TIP3   OH264444   5.052   0.496   1.643 -0.4681 -0.2707 -0.6049
14318TIP3    H164445   4.961   0.525   1.643 -0.3803  0.0819  1.1510
14318TIP3    H264446   5.097   0.562   1.696  0.4955 -1.3609 -0.0702
14319TIP3   OH264447   4.287   3.280  14.142 -0.4381  0.1731  0.5109
14319TIP3    H164448   4.350   3.340  14.103 -1.7938 -0.4709 -2.8640
14319TIP3    H264449   4.203   3.325  14.136 -0.8091 -0.2710  2.0355
14320TIP3   OH264450   4.263   6.620   3.107 -0.4050  0.1496  0.1887
14320TIP3    H164451   4.262   6.634   3.012  0.8000 -2.0773 -0.1855
14320TIP3    H264452   4.286   6.706   3.143  1.2724  0.5297 -1.6622
14321TIP3   OH264453   5.950   4.782   5.856  0.5581  0.6395 -0.3525
14321TIP3    H164454   5.891   4.743   5.921  0.1828 -0.1814 -1.1753
14321TIP3    H264455   6.005   4.842   5.906 -2.1613  2.7989  0.1641
14322TIP3   OH264456   2.131   1.535   5.776  0.0020 -0.0063  0.1007
14322TIP3    H164457   2.160   1.589   5.850  0.5099 -0.2402  0.0802
14322TIP3    H264458   2.070   1.590   5.728 -2.7250 -0.9050  2.3795
14323TIP3   OH264459   1.147   3.986  12.494  0.0794 -0.0379  0.6863
14323TIP3    H164460   1.233   3.948  12.515  0.2395  0.1248  0.3138
14323TIP3    H264461   1.151   4.005  12.401 -0.7870 -1.1209  0.4221
14324TIP3   OH264462   1.611   5.575  14.808  0.2549  0.3823 -0.3615
14324TIP3    H164463   1.521   5.576  14.839 -0.3184  1.7773 -2.0134
14324TIP3    H264464   1.663   5.591  14.887 -1.0968  2.5015  0.1515
14325TIP3   OH264465   6.071   0.784  16.922 -0.1627  0.5465 -0.0216
14325TIP3    H164466   6.011   0.792  16.848 -0.1771  2.4067  0.1482
14325TIP3    H264467   6.023   0.731  16.986 -0.3833 -0.5735 -1.1149
14326TIP3   OH264468   2.088   5.837   6.560 -0.3163 -0.0153 -0.0266
14326TIP3    H164469   2.101   5.775   6.631 -1.1498 -0.8021 -0.5582
14326TIP3    H264470   2.149   5.808   6.492 -1.0227 -0.5311 -0.4492
14327TIP3   OH264471   1.602   6.541   3.787  0.4775  0.0702 -0.5233
14327TIP3    H164472   1.581   6.514   3.698 -0.0753  0.3097 -0.4637
14327TIP3    H264473   1.571   6.469   3.842 -0.2318  0.4439 -0.4318
14328TIP3   OH264474   3.665   3.427  13.656  0.3916 -0.1959 -0.1558
14328TIP3    H164475   3.645   3.394  13.744  0.5239  1.1420  0.3874
14328TIP3    H264476   3.735   3.491  13.670 -2.1501  2.8208 -0.7424
14329TIP3   OH264477   4.258   1.909   2.387  1.2442 -0.5023  0.3785
14329TIP3    H164478   4.273   1.868   2.302 -0.1405 -0.1797 -0.0359
14329TIP3    H264479   4.274   2.003   2.372 -1.1472 -0.1386 -0.0954
14330TIP3   OH264480   6.445   5.234   0.365  0.5177  0.5286 -0.1679
14330TIP3    H164481   6.495   5.212   0.443 -1.1509  2.3902  1.5066
14330TIP3    H264482   6.354   5.234   0.395 -0.1550  1.0826 -2.1633
14331TIP3   OH264483   1.132   3.795  14.336 -0.0883 -1.0152 -0.3437
14331TIP3    H164484   1.094   3.811  14.250 -0.4255 -0.7371 -0.1481
14331TIP3    H264485   1.196   3.864  14.347  0.6988 -1.6645 -0.8033
14332TIP3   OH264486   3.369   3.085  13.383  0.0810  0.0150 -0.4490
14332TIP3    H164487   3.458   3.121  13.378  0.2006  0.0451  1.4038
14332TIP3    H264488   3.345   3.068  13.292  1.0702  2.2125 -1.1649
14333TIP3   OH264489   0.199   3.334  15.023 -0.0001 -0.2234  0.5037
14333TIP3    H164490   0.197   3.402  14.956  0.3445 -0.3541  0.3588
14333TIP3    H264491   0.126   3.355  15.081 -0.3622 -0.1662  0.0309
14334TIP3   OH264492   5.759   1.776   1.804 -0.1793  0.1777  0.1682
14334TIP3    H164493   5.718   1.813   1.727 -1.0037 -1.9045 -0.4336
14334TIP3    H264494   5.743   1.681   1.797  2.5969 -0.4198  1.1694
14335TIP3   OH264495   3.479   4.551   0.209  0.1785 -0.1522  1.0921
14335TIP3    H164496   3.463   4.636   0.168 -1.5545 -0.9552  0.0629
14335TIP3    H264497   3.415   4.546   0.280  0.5251 -0.4655  1.3902
14336TIP3   OH264498   1.608   1.241   0.061 -0.0033 -0.3062  0.2641
14336TIP3    H164499   1.592   1.146   0.065 -0.1126 -0.3603 -1.1258
14336TIP3    H264500   1.672   1.251  -0.009 -0.9842  0.7691 -0.4901
14337TIP3   OH264501   4.536   3.564  11.422 -0.4084  0.9326 -0.1273
14337TIP3    H164502   4.512   3.489  11.478  1.8922  0.5329  0.3806
14337TIP3    H264503   4.532   3.640  11.481  3.0662  0.3743  0.9773
14338TIP3   OH264504   4.830   0.926  15.573 -0.1634 -0.3169  0.1530
14338TIP3    H164505   4.738   0.907  15.550 -0.5634 -0.4143  1.7687
14338TIP3    H264506   4.837   1.021  15.567 -0.3355 -0.3186 -0.1010
14339TIP3   OH264507   2.409   1.427   4.326  0.1461 -0.3067  0.1292
14339TIP3    H164508   2.463   1.405   4.401  0.9835 -1.6812 -0.8604
14339TIP3    H264509   2.348   1.494   4.359  2.3275  1.1637  1.2774
14340TIP3   OH264510   1.691   3.546  13.332  0.1230 -0.4571 -0.1392
14340TIP3    H164511   1.672   3.466  13.283 -2.8988 -0.1656  0.4929
14340TIP3    H264512   1.787   3.549  13.336  0.3246 -2.9011 -2.0099
14341TIP3   OH264513   6.473   3.604   5.199  0.0658  0.0016 -0.6303
14341TIP3    H164514   6.447   3.696   5.186  1.0004  0.2908 -0.4769
14341TIP3    H264515   6.550   3.593   5.143  0.7305 -0.3232  0.3399
14342TIP3   OH264516   4.400   5.415   5.289  0.2106 -0.3369 -0.1252
14342TIP3    H164517   4.334   5.354   5.322  0.8270 -0.7294  0.4055
14342TIP3    H264518   4.378   5.499   5.330  0.3425 -0.5829  0.4522
14343TIP3   OH264519   3.162   3.859  10.786  0.4531  0.1255 -0.3762
14343TIP3    H164520   3.236   3.880  10.729 -1.2444  1.5193 -2.1068
14343TIP3    H264521   3.154   3.935  10.844  0.2125  0.0850 -0.3559
14344TIP3   OH264522   4.558   2.351   1.951  0.0544 -0.2180 -0.4964
14344TIP3    H164523   4.502   2.308   1.887  0.0937 -2.1320  0.7100
14344TIP3    H264524   4.532   2.443   1.948 -2.4105 -0.8863 -0.7467
14345TIP3   OH264525   1.356   4.390   2.648 -0.0026 -0.4507  0.1698
14345TIP3    H164526   1.333   4.375   2.557 -0.8981 -2.7908  0.7315
14345TIP3    H264527   1.339   4.483   2.662  2.0320  0.3850 -2.5327
14346TIP3   OH264528   1.742   0.626  14.114 -0.4821  0.3533  0.0589
14346TIP3    H164529   1.819   0.636  14.170 -0.6894  1.7937  0.1147
14346TIP3    H264530   1.668   0.646  14.171 -0.7079  1.6328 -0.6609
14347TIP3   OH264531   5.515   1.622  12.400 -0.1463 -0.0060 -0.3004
14347TIP3    H164532   5.599   1.656  12.368  0.2665 -0.9631 -0.2730
14347TIP3    H264533   5.509   1.654  12.490 -0.6653  1.5555 -0.8808
14348TIP3   OH264534   4.624   3.789   2.427  0.3707 -0.5880 -0.0760
14348TIP3    H164535   4.693   3.771   2.491  2.0186 -3.2174 -2.4535
14348TIP3    H264536   4.559   3.721   2.443  0.5100 -0.8929 -0.8038
14349TIP3   OH264537   0.883   0.896  15.435 -0.8498 -0.0887  0.5243
14349TIP3    H164538   0.916   0.891  15.346 -0.0789  1.4522  0.7001
14349TIP3    H264539   0.799   0.941  15.428  0.3496  2.2496  0.8233
14350TIP3   OH264540   1.268   2.923   2.031 -0.2523 -0.1459  0.1512
14350TIP3    H164541   1.186   2.919   2.079 -0.9760 -1.0078 -1.1234
14350TIP3    H264542   1.243   2.955   1.944  0.7464 -0.4962 -0.2752
14351TIP3   OH264543   0.263   3.726  12.056 -0.1271 -0.2776  0.0226
14351TIP3    H164544   0.325   3.778  12.107 -0.7678  1.1159 -0.6243
14351TIP3    H264545   0.178   3.745  12.094 -0.5610  0.4306 -1.2594
14352TIP3   OH264546   3.616   5.694   3.678 -0.5898  0.1224 -0.2637
14352TIP3    H164547   3.573   5.672   3.596 -0.2987  0.1662 -0.4318
14352TIP3    H264548   3.569   5.645   3.745 -2.5012  2.1148 -0.1101
14353TIP3   OH264549   5.363   1.156  13.189 -0.5262 -0.2604  0.9607
14353TIP3    H164550   5.284   1.104  13.205 -1.7659  1.6019  0.9288
14353TIP3    H264551   5.333   1.231  13.139  1.1468  0.8775  1.6215
14354TIP3   OH264552   4.293   5.484  15.335 -0.1603  0.3971 -0.3463
14354TIP3    H164553   4.202   5.509  15.317 -0.1677  0.1068 -0.7138
14354TIP3    H264554   4.323   5.549  15.398 -0.2978  1.1226 -1.0187
14355TIP3   OH264555   0.941   3.041   1.685 -0.0107  0.0829  0.4597
14355TIP3    H164556   0.869   3.001   1.733 -1.4033  1.1603 -0.6810
14355TIP3    H264557   1.016   3.035   1.744 -0.8287 -1.7771  1.3391
14356TIP3   OH264558   5.647   3.390  13.477 -0.6586  0.4428  0.3051
14356TIP3    H164559   5.717   3.439  13.434 -1.1833  0.3301 -0.6796
14356TIP3    H264560   5.688   3.354  13.556  0.7035 -0.5543 -0.8216
14357TIP3   OH264561   6.747   6.366  12.195  0.5234 -0.1251 -0.4603
14357TIP3    H164562   6.793   6.289  12.230 -0.8339 -1.4669 -1.5529
14357TIP3    H264563   6.654   6.346  12.206  0.1501  1.8368  0.1840
14358TIP3   OH264564   1.076   5.118   3.343  0.0627 -0.2968 -0.1907
14358TIP3    H164565   1.078   5.203   3.386  1.4069  0.6179 -2.0183
14358TIP3    H264566   1.063   5.137   3.251  0.3899 -2.0807 -0.6283
14359TIP3   OH264567   4.471   4.081  13.034 -0.5595  0.1332 -0.2373
14359TIP3    H164568   4.529   4.076  13.110 -1.6288  0.3286  0.6041
14359TIP3    H264569   4.515   4.142  12.975  1.4087 -1.7578 -0.7846
14360TIP3   OH264570   2.635   2.297   3.631 -0.3645  0.5938  0.0286
14360TIP3    H164571   2.692   2.365   3.667  0.3156 -0.2486  0.5361
14360TIP3    H264572   2.694   2.234   3.591 -1.0249  0.5266 -0.8464
14361TIP3   OH264573   0.611   4.663   2.018  0.3032  0.4210 -0.1731
14361TIP3    H164574   0.553   4.600   2.060 -0.9238  1.2990 -0.5166
14361TIP3    H264575   0.631   4.624   1.933  0.8286 -0.2275  0.2415
14362TIP3   OH264576   2.824   4.071  16.083  0.4009 -0.0162  0.5701
14362TIP3    H164577   2.823   4.023  16.000 -0.1456  1.1172 -0.0897
14362TIP3    H264578   2.732   4.094  16.098  0.2322 -1.7484  2.3937
14363TIP3   OH264579   2.008   1.911  12.930 -0.7252 -0.0481 -0.0545
14363TIP3    H164580   2.020   1.854  13.006 -0.9191 -1.5072 -1.0979
14363TIP3    H264581   2.095   1.947  12.914 -0.2352 -1.3614 -0.3969
14364TIP3   OH264582   1.399   0.158  16.581  0.7822 -0.1610 -0.3476
14364TIP3    H164583   1.459   0.083  16.590  0.5649 -0.2126  0.6923
14364TIP3    H264584   1.365   0.150  16.492  1.8891 -0.4607 -0.7520
14365TIP3   OH264585   5.238   5.023   3.449  0.3651  0.0838  0.1059
14365TIP3    H164586   5.273   4.934   3.448 -2.0978 -0.9010  0.0056
14365TIP3    H264587   5.159   5.020   3.396  1.0524  2.7071 -1.1681
14366TIP3   OH264588   6.655   6.405  11.430 -0.6520 -0.0025 -0.4622
14366TIP3    H164589   6.679   6.497  11.436 -0.3436  0.2459 -4.3323
14366TIP3    H264590   6.727   6.359  11.472 -0.9851  1.4777  1.8357
14367TIP3   OH264591   1.128   0.331  16.309  0.2126 -0.2709 -0.2411
14367TIP3    H164592   1.162   0.246  16.281 -0.6475 -0.2286 -1.4800
14367TIP3    H264593   1.034   0.327  16.289  0.0920  0.8136  0.0704
14368TIP3   OH264594   0.270   3.939   5.045 -0.5559  0.7742  0.1632
14368TIP3    H164595   0.345   3.929   5.104  0.5627  0.2820 -1.3178
14368TIP3    H264596   0.237   4.028   5.062  0.4868  1.0703  0.6476
14369TIP3   OH264597   1.255   5.576  14.328  0.1257 -0.0032 -0.1540
14369TIP3    H164598   1.300   5.549  14.408  0.1580  1.1074  0.2192
14369TIP3    H264599   1.163   5.555  14.343  0.1609  0.0231  0.0987
14370TIP3   OH264600   3.301   3.203  11.241  0.1585 -0.1933 -0.2372
14370TIP3    H164601   3.301   3.118  11.197 -0.6100  0.1761 -0.9672
14370TIP3    H264602   3.250   3.190  11.320 -3.3913  0.5643 -2.3138
14371TIP3   OH264603   3.654   2.980   6.272 -0.1644 -0.2782  0.4042
14371TIP3    H164604   3.748   2.997   6.284  0.0678 -2.6223  2.2340
14371TIP3    H264605   3.615   3.004   6.356 -1.4444  1.9851 -0.7917
14372TIP3   OH264606   3.062   5.471  12.008 -0.8329  0.6456  0.0809
14372TIP3    H164607   2.997   5.415  11.965  0.2785 -1.5212  1.1266
14372TIP3    H264608   3.028   5.483  12.097 -0.5163  0.6944  0.1942
14373TIP3   OH264609   4.813   5.910  11.850  0.1071  0.4620  0.3888
14373TIP3    H164610   4.876   5.976  11.879 -0.1644 -0.5703  3.5021
14373TIP3    H264611   4.784   5.867  11.930 -1.5015 -1.8715 -1.3611
14374TIP3   OH264612   5.629   0.044   4.540 -0.4609 -0.3384 -0.0045
14374TIP3    H164613   5.647   0.035   4.447 -0.9237 -1.3973  0.0065
14374TIP3    H264614   5.539   0.075   4.545 -0.3874 -0.1354  0.0918
14375TIP3   OH264615   1.807   3.206   2.468 -0.2376  0.7174 -0.1495
14375TIP3    H164616   1.759   3.271   2.520 -2.7414 -0.9034 -0.3256
14375TIP3    H264617   1.757   3.125   2.480  1.2050 -0.5164 -2.1965
14376TIP3   OH264618   4.598   3.539  13.482  0.2476 -0.3358  0.2347
14376TIP3    H164619   4.545   3.460  13.483 -0.3966  0.0757 -0.8546
14376TIP3    H264620   4.548   3.603  13.533  0.6387 -0.5393  0.8819
14377TIP3   OH264621   1.204   4.987   5.326 -0.2967 -0.6228  0.1809
14377TIP3    H164622   1.168   5.015   5.241 -1.5232  0.9175  1.1797
14377TIP3    H264623   1.134   4.936   5.367 -0.3281  0.0473  0.9692
14378TIP3   OH264624   1.904   5.772  15.220 -0.0297 -0.1473 -0.1420
14378TIP3    H164625   1.908   5.796  15.127 -2.4952 -3.0418 -1.0624
14378TIP3    H264626   1.846   5.836  15.259  0.6024  0.7722 -0.6921
14379TIP3   OH264627   3.677   0.358  10.477  0.5315  0.4881  0.2061
14379TIP3    H164628   3.634   0.396  10.400 -0.1011  1.1442  0.8795
14379TIP3    H264629   3.614   0.293  10.509 -0.2822  1.9262  1.5879
14380TIP3   OH264630   2.558   1.546   1.675 -0.2296  0.1156  0.0068
14380TIP3    H164631   2.479   1.503   1.707 -1.6486  2.4140 -0.2960
14380TIP3    H264632   2.541   1.563   1.583  0.1420  1.6011  0.1858
14381TIP3   OH264633   4.714   6.295   4.212 -0.0674  0.0713  0.1289
14381TIP3    H164634   4.739   6.377   4.168  0.4845 -1.0643 -1.7336
14381TIP3    H264635   4.795   6.265   4.254 -0.0043 -0.0590 -0.0842
14382TIP3   OH264636   4.853   3.096   1.028 -0.1275 -0.0554 -0.2905
14382TIP3    H164637   4.770   3.141   1.014  0.2541  0.9278  0.5242
14382TIP3    H264638   4.876   3.115   1.119  1.4613  0.4806 -0.7754
14383TIP3   OH264639   3.320   3.609   3.793 -0.3261  0.2156  0.2705
14383TIP3    H164640   3.365   3.653   3.865  2.1093 -1.2104 -0.3259
14383TIP3    H264641   3.389   3.588   3.730 -1.9651 -1.2224 -1.1296
14384TIP3   OH264642   3.484   0.343   1.817  0.1232  0.2803 -0.5601
14384TIP3    H164643   3.567   0.318   1.856  0.5722  0.7690 -1.1880
14384TIP3    H264644   3.507   0.408   1.750 -0.7746  0.5486 -0.6219
14385TIP3   OH264645   0.816   1.346   3.179  0.4424 -0.0888  0.4148
14385TIP3    H164646   0.878   1.385   3.241 -0.5810  1.3638  0.5542
14385TIP3    H264647   0.805   1.412   3.111 -1.0953 -0.2373  0.4970
14386TIP3   OH264648   5.609   4.369  11.055  0.4095 -0.1046 -0.3828
14386TIP3    H164649   5.704   4.379  11.048  0.4377 -0.4866 -0.5529
14386TIP3    H264650   5.582   4.437  11.117  0.8089 -0.0621 -0.2566
14387TIP3   OH264651   4.002   3.143   2.880 -0.0033  0.8061 -0.1252
14387TIP3    H164652   3.968   3.078   2.818 -0.2791  0.2850  0.5726
14387TIP3    H264653   4.097   3.129   2.878 -0.1243 -0.2059  0.6619
14388TIP3   OH264654   2.907   5.373   4.993 -0.6314 -0.0917 -0.9992
14388TIP3    H164655   2.996   5.350   4.967  0.1976  0.0827  1.6112
14388TIP3    H264656   2.856   5.293   4.977 -0.3246  0.1700 -3.6632
14389TIP3   OH264657   1.604   1.133  11.686 -0.3169  0.2114  0.8520
14389TIP3    H164658   1.674   1.198  11.678  1.2958 -1.4461  1.1697
14389TIP3    H264659   1.527   1.184  11.710  0.6274  2.1448 -0.1119
14390TIP3   OH264660   1.102   4.186  13.576 -0.4652  0.2104  0.6122
14390TIP3    H164661   1.177   4.129  13.591  0.3042  1.2282  0.6604
14390TIP3    H264662   1.112   4.217  13.486 -1.2900 -0.3310  0.3292
14391TIP3   OH264663   4.353   6.645  16.866 -0.2128  0.1110 -0.1093
14391TIP3    H164664   4.408   6.585  16.815 -0.5104 -1.4490  1.3540
14391TIP3    H264665   4.365   6.730  16.824  1.4693 -0.6637 -1.2583
14392TIP3   OH264666   4.611   5.706  10.072 -0.4097  0.0660 -0.3816
14392TIP3    H164667   4.649   5.794  10.078  0.2820 -0.1942 -0.8472
14392TIP3    H264668   4.516   5.720  10.077 -0.2704  0.7610  0.4029
14393TIP3   OH264669   2.774   4.916   4.650 -0.0069  0.3565  0.6831
14393TIP3    H164670   2.839   4.984   4.668  0.5354  0.3280 -1.0704
14393TIP3    H264671   2.705   4.962   4.602  0.6942 -0.4694 -1.1352
14394TIP3   OH264672   6.147   3.024   4.173  0.2493 -0.4673  0.0964
14394TIP3    H164673   6.213   2.984   4.229  1.1889  3.0734  1.6653
14394TIP3    H264674   6.122   3.104   4.219 -1.2249  0.9889 -3.0679
14395TIP3   OH264675   0.259   0.130   1.708 -0.6651  0.0146  0.0438
14395TIP3    H164676   0.352   0.117   1.724 -0.4713 -0.3240 -1.3379
14395TIP3    H264677   0.239   0.076   1.632 -2.3729 -1.3121  1.3609
14396TIP3   OH264678   3.385   4.660  12.811 -0.1689  0.4402  0.4930
14396TIP3    H164679   3.298   4.623  12.794 -0.5672  1.4837  0.2319
14396TIP3    H264680   3.445   4.587  12.799 -1.2462 -0.9852  3.3715
14397TIP3   OH264681   3.376   0.750  12.372 -0.1215  0.2182  0.1224
14397TIP3    H164682   3.383   0.688  12.300  0.9864 -0.7023  1.0225
14397TIP3    H264683   3.332   0.702  12.442  0.4076  0.5555  0.6934
14398TIP3   OH264684   5.202   5.458   1.021  0.2373 -0.6923 -0.2120
14398TIP3    H164685   5.156   5.374   1.024 -1.0868  0.0573  2.0960
14398TIP3    H264686   5.180   5.500   1.104  2.6571  1.0151 -0.3821
14399TIP3   OH264687   5.037   2.102  14.165 -0.0772  0.5355 -0.4304
14399TIP3    H164688   4.948   2.135  14.152 -0.1885  0.3604 -0.1203
14399TIP3    H264689   5.091   2.180  14.173 -0.6959  0.7008  2.8071
14400TIP3   OH264690   0.210   4.946   4.266  0.5626 -0.1430 -0.3713
14400TIP3    H164691   0.151   4.871   4.262  0.2366  0.0968 -0.1051
14400TIP3    H264692   0.206   4.974   4.358  0.5975  0.2678 -0.4971
14401TIP3   OH264693   2.429   1.897  16.858 -0.3649  0.0768 -0.6373
14401TIP3    H164694   2.498   1.905  16.792  0.2399 -0.8186 -0.1238
14401TIP3    H264695   2.414   1.802  16.866  0.3426  0.0962  1.2857
14402TIP3   OH264696   6.321   1.362   2.219 -0.0564 -0.1865  0.1266
14402TIP3    H164697   6.293   1.271   2.223 -0.8503 -0.0268 -1.4175
14402TIP3    H264698   6.251   1.411   2.264 -0.3212 -0.1991 -0.2690
14403TIP3   OH264699   0.621   0.746  16.554 -0.1505  0.2100  0.0785
14403TIP3    H164700   0.552   0.812  16.544 -1.1616 -0.9901 -1.1193
14403TIP3    H264701   0.696   0.782  16.508 -0.5664  0.7249 -0.2060
14404TIP3   OH264702   6.108   3.787  17.110  0.5149  0.7352  0.0494
14404TIP3    H164703   6.017   3.787  17.079 -0.6716  2.9913  3.2221
14404TIP3    H264704   6.144   3.870  17.079  1.3116  0.1810 -0.5532
14405TIP3   OH264705   3.542   0.064   5.460  0.7163 -0.0780  0.0208
14405TIP3    H164706   3.534   0.127   5.532 -0.5704  1.7435 -1.6648
14405TIP3    H264707   3.622   0.090   5.414 -0.2880  0.9014 -1.1955
14406TIP3   OH264708   1.520   5.533   0.161 -0.1556 -0.1591 -0.2921
14406TIP3    H164709   1.508   5.440   0.140  2.4659 -0.6210  0.0710
14406TIP3    H264710   1.519   5.536   0.257 -1.8527  0.4597 -0.3024
14407TIP3   OH264711   3.948   0.333   3.416  0.6711 -0.2584  0.7228
14407TIP3    H164712   3.879   0.396   3.435 -1.3002 -1.6903 -1.3190
14407TIP3    H264713   4.022   0.360   3.469 -1.3987  1.4780  2.7841
14408TIP3   OH264714   5.928   3.360  15.370  0.1289  0.3644 -0.6561
14408TIP3    H164715   6.003   3.420  15.362 -1.0349  1.6761 -2.0923
14408TIP3    H264716   5.858   3.415  15.406 -0.5491 -0.5047 -0.6396
14409TIP3   OH264717   2.893   2.161   2.758  0.3880 -0.2668  0.2838
14409TIP3    H164718   2.914   2.254   2.770 -0.1193 -0.1412  0.2011
14409TIP3    H264719   2.840   2.159   2.679 -0.0857 -0.5615  0.6104
14410TIP3   OH264720   5.408   3.327  16.929 -0.8175  0.5115  0.8309
14410TIP3    H164721   5.482   3.267  16.916 -1.6106 -0.7763  2.1952
14410TIP3    H264722   5.448   3.414  16.926  0.6628 -0.1386  0.9641
14411TIP3   OH264723   2.316   5.647  14.858  0.7567  0.9497 -0.3137
14411TIP3    H164724   2.393   5.674  14.907  0.0637 -0.4230  1.6016
14411TIP3    H264725   2.242   5.668  14.915  0.0280 -2.1339 -0.0341
14412TIP3   OH264726   3.483   6.451  14.121  0.2943  0.5701 -0.2281
14412TIP3    H164727   3.502   6.373  14.068  1.4069  0.2098  0.6717
14412TIP3    H264728   3.396   6.479  14.092  0.9690  0.5425 -2.4480
14413TIP3   OH264729   2.980   5.078  13.443  0.0364  0.3396 -0.3528
14413TIP3    H164730   2.926   5.013  13.400  0.3955 -1.8730  2.3998
14413TIP3    H264731   2.943   5.086  13.531  2.5956  0.6844  0.7350
14414TIP3   OH264732   2.456   6.755  13.982  0.3850  0.1843  0.8820
14414TIP3    H164733   2.402   6.825  13.946  0.7667  0.1105  0.1598
14414TIP3    H264734   2.424   6.744  14.072 -0.5564  0.3791  0.5733
14415TIP3   OH264735   0.537   1.504   2.439  0.5277 -0.2130  0.0820
14415TIP3    H164736   0.484   1.500   2.518  0.1230  2.3339  0.0005
14415TIP3    H264737   0.474   1.493   2.367  0.6458 -0.8008  0.0659
14416TIP3   OH264738   2.966   6.743   2.789 -0.5827 -0.0798 -0.3831
14416TIP3    H164739   3.061   6.731   2.797 -0.4654 -0.4983 -2.2169
14416TIP3    H264740   2.940   6.781   2.873  1.2387  0.2306  0.0708
14417TIP3   OH264741   6.238   3.224  15.708  0.6046  0.5478  0.3164
14417TIP3    H164742   6.162   3.166  15.706  0.3019  0.9684 -0.6665
14417TIP3    H264743   6.290   3.192  15.781 -0.1521 -0.2100  0.5372
14418TIP3   OH264744   1.987   0.194  11.811 -1.0921 -0.3127 -0.3712
14418TIP3    H164745   1.976   0.133  11.883 -1.8294 -0.3458 -0.5075
14418TIP3    H264746   1.920   0.169  11.747  0.2830 -0.9861 -1.5646
14419TIP3   OH264747   1.044   5.015  17.276 -0.2151  0.2075  0.3971
14419TIP3    H164748   0.983   4.944  17.293 -0.6728 -0.0951 -2.2851
14419TIP3    H264749   0.990   5.085  17.241  0.7826  0.4404 -0.7157
14420TIP3   OH264750   3.325   1.571  12.581  0.2355  0.0041 -0.5038
14420TIP3    H164751   3.412   1.590  12.548  0.3042 -0.6950 -0.7286
14420TIP3    H264752   3.303   1.485  12.544 -0.0070 -0.4255  0.6208
14421TIP3   OH264753   0.644   0.950  13.348 -0.1459 -0.4066  0.3003
14421TIP3    H164754   0.580   0.900  13.399 -0.5359 -0.9847 -0.7352
14421TIP3    H264755   0.599   1.031  13.325 -1.1751 -1.6079 -1.9989
14422TIP3   OH264756   4.729   3.723   5.162 -0.2029  0.5732  0.3141
14422TIP3    H164757   4.762   3.634   5.164  0.7461  0.9332  1.2008
14422TIP3    H264758   4.635   3.715   5.177  0.1101 -0.1677  1.9194
14423TIP3   OH264759   5.817   3.913  11.695 -0.7653  0.2601 -0.4920
14423TIP3    H164760   5.837   3.824  11.664 -0.4623  0.2732 -0.3329
14423TIP3    H264761   5.849   3.970  11.625 -1.0364  0.2392 -0.6328
14424TIP3   OH264762   0.988   3.709   1.866 -0.0242 -0.1929  0.3309
14424TIP3    H164763   0.963   3.617   1.863  0.4833 -0.3766  1.3906
14424TIP3    H264764   1.032   3.725   1.782 -0.7865 -0.7148 -0.1663
14425TIP3   OH264765   0.347   3.523   1.017 -0.1703  0.0865 -0.1526
14425TIP3    H164766   0.282   3.458   0.992 -0.7682  0.2595  0.9015
14425TIP3    H264767   0.404   3.477   1.079 -0.7917  0.6424  0.8499
14426TIP3   OH264768   4.230   3.775  13.192  0.2201  0.3692  0.5671
14426TIP3    H164769   4.324   3.775  13.213 -0.0070 -2.0654  1.7616
14426TIP3    H264770   4.223   3.716  13.118 -0.5126 -0.3859  1.2331
14427TIP3   OH264771   0.633   2.946   2.195  0.2986  0.8361 -0.2314
14427TIP3    H164772   0.570   2.880   2.224  0.7507  0.5916  0.1942
14427TIP3    H264773   0.606   3.026   2.240 -0.3997  1.0048 -0.9396
14428TIP3   OH264774   0.212   2.435  11.058 -0.5951 -0.5132  0.0200
14428TIP3    H164775   0.229   2.367  10.993  1.4650 -1.5105  1.5152
14428TIP3    H264776   0.269   2.507  11.032 -0.7677 -0.3952 -0.0315
14429TIP3   OH264777   0.738   6.541  13.152 -0.6964  0.1169  0.7981
14429TIP3    H164778   0.827   6.566  13.126 -0.3518 -1.0418  0.8268
14429TIP3    H264779   0.745   6.522  13.245 -0.4107 -2.3094  0.3310
14430TIP3   OH264780   1.404   6.336  16.278 -0.1780  0.0687 -0.6945
14430TIP3    H164781   1.408   6.410  16.339 -1.9850  1.7925 -2.5848
14430TIP3    H264782   1.480   6.349  16.221 -0.4648  0.4227 -0.9925
14431TIP3   OH264783   2.702   6.382   0.023  0.2106  0.2988 -0.3048
14431TIP3    H164784   2.701   6.387  -0.072 -3.1867  2.6768 -0.2401
14431TIP3    H264785   2.634   6.317   0.044 -0.6371  1.4270  0.5102
14432TIP3   OH264786   0.779   3.085  16.447 -0.1793  0.1695  0.3692
14432TIP3    H164787   0.784   3.020  16.377 -1.3823  1.0283 -0.5314
14432TIP3    H264788   0.835   3.156  16.418  2.1419 -0.9434  1.9237
14433TIP3   OH264789   2.360   0.590  10.949 -0.1347  0.4016 -0.0907
14433TIP3    H164790   2.401   0.623  10.869  1.3242 -0.0235  0.4827
14433TIP3    H264791   2.380   0.656  11.015 -2.0957  1.2016 -0.2557
14434TIP3   OH264792   0.691   6.343   4.635  0.0919  0.1341  0.0875
14434TIP3    H164793   0.739   6.270   4.595 -2.5748 -1.0374 -1.0544
14434TIP3    H264794   0.678   6.315   4.726 -0.9750 -0.8595 -0.3616
14435TIP3   OH264795   3.701   0.523  11.499 -0.3644  0.0207 -0.3441
14435TIP3    H164796   3.784   0.567  11.517  0.5933 -1.0422 -1.9578
14435TIP3    H264797   3.659   0.578  11.433  0.3567 -0.8998 -1.5926
14436TIP3   OH264798   3.875   3.756  13.964  0.3107  0.5857 -0.4043
14436TIP3    H164799   3.849   3.678  14.012 -2.5345  1.8928  0.3310
14436TIP3    H264800   3.940   3.726  13.901  0.2902 -2.0931  0.8138
14437TIP3   OH264801   4.635   0.886  16.646  0.2150 -0.0857 -1.1290
14437TIP3    H164802   4.598   0.813  16.597  0.1920 -0.6846 -0.2429
14437TIP3    H264803   4.653   0.953  16.580 -0.3908 -0.6341 -1.8606
14438TIP3   OH264804   1.492   4.046  11.282  0.0592 -0.1374  0.1847
14438TIP3    H164805   1.504   4.108  11.210 -2.8044 -0.4106 -0.6031
14438TIP3    H264806   1.550   4.078  11.351  1.0620  1.5202 -1.3678
14439TIP3   OH264807   2.515   1.508  15.498 -0.8709  0.0747 -0.0863
14439TIP3    H164808   2.509   1.522  15.403 -2.9728 -0.3838 -0.0410
14439TIP3    H264809   2.590   1.450  15.509  0.3427  1.3613 -1.3269
14440TIP3   OH264810   1.304   4.966   1.665 -0.5204  0.1583  0.3385
14440TIP3    H164811   1.305   4.892   1.727 -2.8941  0.5023  0.8563
14440TIP3    H264812   1.382   5.017   1.687  2.0774 -3.0069 -1.0934
14441TIP3   OH264813   2.629   3.686  14.701  0.4589  0.1286  0.2395
14441TIP3    H164814   2.651   3.717  14.789  0.1010 -0.5505  0.5717
14441TIP3    H264815   2.711   3.690  14.653  0.3929  1.7211  0.2317
14442TIP3   OH264816   4.117   5.472  15.564 -0.1089  0.7298  0.1538
14442TIP3    H164817   4.120   5.553  15.513 -0.3517 -0.1529 -1.3050
14442TIP3    H264818   4.207   5.457  15.591  0.1837  0.7474 -0.7789
14443TIP3   OH264819   2.049   1.040   3.186 -0.8492 -0.3013 -0.3451
14443TIP3    H164820   2.082   1.129   3.178 -0.2230 -0.6283 -1.5595
14443TIP3    H264821   2.123   0.990   3.221  0.2401 -1.1574 -3.6422
14444TIP3   OH264822   1.470   4.220   4.973 -0.2552  0.0467 -0.0914
14444TIP3    H164823   1.476   4.180   5.060 -2.6219  0.1210  0.1200
14444TIP3    H264824   1.536   4.174   4.921  0.6760 -0.4967  1.5373
14445TIP3   OH264825   3.483   6.791  15.599 -0.2764 -0.4486  0.4040
14445TIP3    H164826   3.498   6.703  15.634  0.4389 -0.6392 -0.3904
14445TIP3    H264827   3.556   6.842  15.632 -0.1999 -0.3636  0.0952
14446TIP3   OH264828   1.423   4.213  16.819  0.2773  0.2932 -0.2353
14446TIP3    H164829   1.363   4.157  16.769  0.0708 -0.0242  0.3573
14446TIP3    H264830   1.366   4.281  16.856  0.0413 -0.8560  1.5389
14447TIP3   OH264831   3.872   1.036  13.529 -0.3243  0.2274  0.5410
14447TIP3    H164832   3.807   1.072  13.469 -0.1326  0.1341  0.2787
14447TIP3    H264833   3.935   1.106  13.542 -0.4792  0.3194  0.8009
14448TIP3   OH264834   0.643   2.655   5.665  0.0252  0.1495  0.6216
14448TIP3    H164835   0.555   2.687   5.643  0.4477  0.6771 -0.3612
14448TIP3    H264836   0.682   2.634   5.580  0.8623 -0.0322  1.0497
14449TIP3   OH264837   3.402   0.126  11.738  0.0878 -0.5124  0.0065
14449TIP3    H164838   3.425   0.095  11.650  0.5002 -1.7702  0.5429
14449TIP3    H264839   3.458   0.203  11.751 -1.3950  0.8899 -1.5776
14450TIP3   OH264840   6.359   4.146   0.503  0.5037  0.2507 -0.5080
14450TIP3    H164841   6.351   4.241   0.508  0.4581  0.2311 -0.2030
14450TIP3    H264842   6.369   4.128   0.410 -0.0047  0.5103 -0.6142
14451TIP3   OH264843   3.139   5.773  12.883 -0.3205 -0.4349 -0.2412
14451TIP3    H164844   3.194   5.709  12.839  1.4338  0.3420  0.7482
14451TIP3    H264845   3.151   5.854  12.832 -0.5266 -0.2525 -0.0035
14452TIP3   OH264846   0.719   4.690   3.160 -0.2236 -0.3265 -0.2953
14452TIP3    H164847   0.685   4.614   3.209 -0.5132  0.2754  0.4526
14452TIP3    H264848   0.814   4.681   3.167 -0.2531  0.3394  1.3407
14453TIP3   OH264849   2.485   4.467   1.246 -0.0317  0.1524 -0.1379
14453TIP3    H164850   2.509   4.387   1.293  0.5724  1.1771  1.3278
14453TIP3    H264851   2.506   4.448   1.155 -1.5016 -1.9757 -0.0560
14454TIP3   OH264852   1.490   5.896   3.784 -0.1003  0.1603 -0.1461
14454TIP3    H164853   1.511   5.826   3.722  0.3218 -1.3045  1.6179
14454TIP3    H264854   1.539   5.873   3.863 -1.0782  1.6974  0.9153
14455TIP3   OH264855   1.683   2.087   5.678  0.0464 -0.4938  0.0963
14455TIP3    H164856   1.649   2.157   5.621 -2.5391 -0.7805  1.2239
14455TIP3    H264857   1.611   2.023   5.683  0.1234 -0.3920  3.7829
14456TIP3   OH264858   0.085   0.792   2.133 -0.0423  0.3013  0.7123
14456TIP3    H164859   0.144   0.865   2.116 -2.7705  1.7379 -3.5406
14456TIP3    H264860   0.127   0.717   2.092 -1.4017  1.5119 -3.1731
14457TIP3   OH264861   6.038   0.145   5.024 -0.4737  0.4024 -0.6036
14457TIP3    H164862   6.092   0.222   5.005  0.1751 -0.2623 -1.5037
14457TIP3    H264863   6.061   0.083   4.955  0.7015 -1.4620  1.4250
14458TIP3   OH264864   3.998   0.972   2.041  0.0267  0.0706  0.1543
14458TIP3    H164865   3.984   0.951   2.133 -0.5563 -0.2427 -0.0031
14458TIP3    H264866   4.019   1.066   2.040  0.3978 -0.0075  0.6378
14459TIP3   OH264867   0.571   3.540   0.006 -0.1276 -0.2432 -0.8533
14459TIP3    H164868   0.486   3.562  -0.032  0.2282  0.1008 -1.4564
14459TIP3    H264869   0.604   3.469  -0.049  0.0571 -0.2544 -0.7289
14460TIP3   OH264870   3.484   1.920   4.150 -0.1751 -0.4046  0.6106
14460TIP3    H164871   3.410   1.960   4.196  0.3763  1.3295  0.0499
14460TIP3    H264872   3.533   1.875   4.219  0.0524  1.2587  1.5821
14461TIP3   OH264873   2.385   2.416  16.651  0.4632 -0.2263  0.1564
14461TIP3    H164874   2.382   2.511  16.652  1.4865 -0.1889  0.5440
14461TIP3    H264875   2.316   2.389  16.712  0.7312  0.2922  0.6971
14462TIP3   OH264876   0.211   3.864  14.424 -0.2218 -0.1037  0.6441
14462TIP3    H164877   0.202   3.769  14.436 -0.4845 -0.3666 -1.4313
14462TIP3    H264878   0.124   3.892  14.394 -0.0892  0.7600  1.0822
14463TIP3   OH264879   1.890   0.153   6.320 -0.0125 -0.4506 -0.2350
14463TIP3    H164880   1.797   0.130   6.314 -0.2637  0.8914 -1.5218
14463TIP3    H264881   1.895   0.212   6.395 -0.2318 -0.3276 -0.3165
14464TIP3   OH264882   1.889   2.921  14.872 -0.4702 -0.5038  0.0760
14464TIP3    H164883   1.968   2.962  14.837 -1.3516  2.2764  1.1995
14464TIP3    H264884   1.921   2.861  14.939  0.6691  1.0117  0.9179
14465TIP3   OH264885   5.275   0.107  13.185 -0.4627  0.3097 -0.4571
14465TIP3    H164886   5.234   0.097  13.270 -1.1518 -1.1087 -0.9455
14465TIP3    H264887   5.251   0.195  13.157 -3.2676 -0.5001 -0.7660
14466TIP3   OH264888   0.964   0.667   5.266  0.4688  0.3900  0.9447
14466TIP3    H164889   0.944   0.650   5.174  1.9995  0.3716  0.5882
14466TIP3    H264890   0.943   0.585   5.311  0.5574  0.0994  0.4593
14467TIP3   OH264891   4.588   2.484  13.838  0.4194  0.0784  0.9019
14467TIP3    H164892   4.500   2.451  13.820 -0.4964  2.6593  0.4463
14467TIP3    H264893   4.643   2.406  13.839 -1.5366 -1.3687 -0.8431
14468TIP3   OH264894   0.881   0.645  16.604  0.0544  0.2630 -0.4430
14468TIP3    H164895   0.839   0.623  16.521 -2.0569 -0.2854  0.7393
14468TIP3    H264896   0.934   0.568  16.625  1.6614  0.9240 -1.9023
14469TIP3   OH264897   4.153   3.695   3.522 -0.1319 -0.0380 -0.2419
14469TIP3    H164898   4.136   3.607   3.488  0.3208 -0.2153 -0.0078
14469TIP3    H264899   4.165   3.749   3.443  0.8226 -0.4307 -0.3683
14470TIP3   OH264900   0.150   5.978   5.119  0.1325 -0.1738 -0.4502
14470TIP3    H164901   0.115   5.924   5.190  0.1136 -0.0701 -0.3806
14470TIP3    H264902   0.190   6.052   5.163 -0.7472  0.3970 -0.5915
14471TIP3   OH264903   3.802   1.958  14.566  0.0883 -0.1991 -0.3681
14471TIP3    H164904   3.826   1.866  14.553  1.3229  0.3204 -1.8211
14471TIP3    H264905   3.859   1.988  14.637 -0.4940 -0.6072  0.2830
14472TIP3   OH264906   3.383   2.894   1.976 -0.1815  0.2730  0.1938
14472TIP3    H164907   3.426   2.919   2.058  0.9850  1.5923 -0.7968
14472TIP3    H264908   3.305   2.950   1.972  0.0683  0.6196  0.1260
14473TIP3   OH264909   6.128   0.439  17.114 -0.0528  0.0532  0.0274
14473TIP3    H164910   6.193   0.507  17.129 -0.5303  0.4182  0.4795
14473TIP3    H264911   6.044   0.486  17.116 -0.2878 -0.2988 -1.2466
14474TIP3   OH264912   5.385   5.902  11.152 -0.4753  0.2340 -0.0817
14474TIP3    H164913   5.363   5.991  11.124  0.4171  0.1195 -1.1501
14474TIP3    H264914   5.450   5.914  11.221 -0.4738  0.4042 -0.1125
14475TIP3   OH264915   2.359   2.319   3.679  0.2622 -0.6015  0.4355
14475TIP3    H164916   2.343   2.403   3.722  0.1486 -1.1157  1.4063
14475TIP3    H264917   2.447   2.327   3.642  0.0933  0.0868  0.1681
14476TIP3   OH264918   2.834   3.361  12.717  0.1484  0.4204  0.3376
14476TIP3    H164919   2.893   3.380  12.644 -1.7916  0.1268 -1.3332
14476TIP3    H264920   2.776   3.437  12.721  0.4896  0.6210  1.8527
14477TIP3   OH264921   3.845   1.665  11.382 -0.3389  0.1918 -1.3504
14477TIP3    H164922   3.758   1.699  11.398  0.6498  1.0155  2.7996
14477TIP3    H264923   3.835   1.570  11.386 -0.8809  0.3040  0.1378
14478TIP3   OH264924   6.627   6.099   6.352  0.2668  0.3570  0.2991
14478TIP3    H164925   6.545   6.055   6.375  0.2597  1.0857  1.7112
14478TIP3    H264926   6.608   6.146   6.271 -0.9131  1.0614  0.9800
14479TIP3   OH264927   5.941   1.575   5.430  0.3098 -0.5661  0.2037
14479TIP3    H164928   6.017   1.620   5.396 -0.4717  0.9303  0.3973
14479TIP3    H264929   5.873   1.587   5.363  0.2991 -2.0969 -0.0911
14480TIP3   OH264930   3.666   4.669  12.902 -0.1585  0.0485  0.0119
14480TIP3    H164931   3.606   4.742  12.921 -0.0468 -0.4924  2.7329
14480TIP3    H264932   3.624   4.594  12.945  1.5784 -0.6884  0.4325
14481TIP3   OH264933   4.371   6.377  15.902 -0.3346 -0.2258  0.4068
14481TIP3    H164934   4.330   6.297  15.937  0.2904 -1.0406 -0.6885
14481TIP3    H264935   4.304   6.416  15.846 -0.0111 -0.9679 -0.5085
14482TIP3   OH264936   4.722   1.574   5.433 -0.0882  0.2416 -0.4102
14482TIP3    H164937   4.806   1.581   5.388  0.5679  2.0718  1.0422
14482TIP3    H264938   4.698   1.482   5.424  2.0330 -0.2976 -0.9006
14483TIP3   OH264939   0.765   6.666   3.767 -0.1337  0.2589  0.0797
14483TIP3    H164940   0.716   6.749   3.763 -0.6286 -0.0186  0.3301
14483TIP3    H264941   0.847   6.689   3.810 -0.5856  0.4755  0.8478
14484TIP3   OH264942   2.037   1.189  14.239  0.2956  0.2461 -0.9492
14484TIP3    H164943   1.961   1.168  14.292  1.1285  0.9538  0.5421
14484TIP3    H264944   2.049   1.284  14.249  0.9290  0.2647 -1.7622
14485TIP3   OH264945   2.992   4.947   5.717 -0.7284 -0.5550 -0.0874
14485TIP3    H164946   2.982   4.924   5.809 -0.7458  3.2923  0.9950
14485TIP3    H264947   3.074   4.906   5.691  0.5520  0.2663  2.4108
14486TIP3   OH264948   4.680   5.514  14.184 -0.1511  0.3528 -0.4692
14486TIP3    H164949   4.741   5.567  14.132 -0.8341  1.2147 -0.4070
14486TIP3    H264950   4.597   5.561  14.178  0.2214  1.6530  3.1032
14487TIP3   OH264951   0.077   1.078  14.196 -0.2027  0.1930  0.7677
14487TIP3    H164952   0.051   1.170  14.182 -0.5196  0.1603  1.1339
14487TIP3    H264953   0.048   1.033  14.117 -0.4443  0.3259  0.7806
14488TIP3   OH264954   3.865   5.143  13.795  0.5640 -0.6520 -0.3813
14488TIP3    H164955   3.841   5.165  13.885  3.2284  2.6544 -0.3513
14488TIP3    H264956   3.942   5.087  13.803  0.0037 -1.4671 -0.6143
14489TIP3   OH264957   3.963   0.356  16.699  0.2644 -0.3521  0.0019
14489TIP3    H164958   3.931   0.307  16.624 -0.3723 -1.4211  0.9633
14489TIP3    H264959   3.967   0.447  16.668 -2.7776 -0.3187 -0.4570
14490TIP3   OH264960   2.077   3.760  13.265 -0.1631  0.5515 -0.6645
14490TIP3    H164961   2.086   3.822  13.193  0.5633  1.0503 -0.1450
14490TIP3    H264962   1.994   3.715  13.247 -0.0155  0.7033 -1.7821
14491TIP3   OH264963   1.310   3.284   4.826  0.0704  0.7637 -0.1270
14491TIP3    H164964   1.393   3.259   4.869 -0.3232 -0.7844 -0.2187
14491TIP3    H264965   1.332   3.362   4.776  1.7324 -0.1637 -0.9069
14492TIP3   OH264966   3.347   5.575  16.055 -0.0866  0.2578 -0.1935
14492TIP3    H164967   3.252   5.566  16.048 -0.2233  1.3623  0.1935
14492TIP3    H264968   3.362   5.615  16.140  0.7328  0.1050 -0.2533
14493TIP3   OH264969   2.175   0.327   0.623 -0.6423 -0.2398 -0.4343
14493TIP3    H164970   2.207   0.412   0.654 -1.4554  0.6411 -1.9367
14493TIP3    H264971   2.139   0.285   0.701 -1.5937  1.4372  0.0567
14494TIP3   OH264972   5.917   4.808  15.676 -0.1691  0.5563 -0.5383
14494TIP3    H164973   5.873   4.891  15.693  2.5526  1.3585  3.2425
14494TIP3    H264974   5.885   4.748  15.743  0.2174 -0.5642 -1.3261
14495TIP3   OH264975   0.783   2.223   2.937  0.1819 -0.0876 -0.2911
14495TIP3    H164976   0.783   2.235   2.842  0.9919  1.3593 -0.1208
14495TIP3    H264977   0.693   2.197   2.958 -0.4858  1.3848 -1.2399
14496TIP3   OH264978   4.629   3.451  12.513 -0.1238 -0.1615 -0.1941
14496TIP3    H164979   4.706   3.508  12.511 -0.5121  0.3349 -1.3880
14496TIP3    H264980   4.618   3.422  12.422 -0.5727 -1.2830  0.2068
14497TIP3   OH264981   4.101   3.432   5.555 -0.2447  0.1542 -0.0931
14497TIP3    H164982   4.172   3.492   5.574  2.8247 -2.9810 -1.0882
14497TIP3    H264983   4.126   3.351   5.599 -3.1097 -1.1161 -0.6581
14498TIP3   OH264984   0.858   1.906   6.864  0.7872 -0.2157  0.1584
14498TIP3    H164985   0.878   1.970   6.795 -0.3505 -0.6909 -0.6368
14498TIP3    H264986   0.897   1.824   6.833  1.0524 -0.2204  0.5080
14499TIP3   OH264987   3.824   0.214   5.891 -0.8526  0.2409 -0.1211
14499TIP3    H164988   3.902   0.215   5.837 -1.2999  1.0110 -0.7616
14499TIP3    H264989   3.804   0.121   5.903 -0.4556  0.0638 -0.8326
14500TIP3   OH264990   6.541   5.762  12.482  0.4387 -0.3683 -0.0539
14500TIP3    H164991   6.505   5.804  12.404  2.6930  0.9945 -0.4255
14500TIP3    H264992   6.480   5.785  12.552 -0.6546 -0.1014 -1.0824
14501TIP3   OH264993   3.539   2.084  16.213 -0.2307 -0.2258  0.0789
14501TIP3    H164994   3.487   2.120  16.141 -0.3380  0.0285  0.2814
14501TIP3    H264995   3.546   1.990  16.194 -1.3499 -0.3771  0.4184
14502TIP3   OH264996   0.710   5.746   0.279 -0.4806  0.3349 -0.0215
14502TIP3    H164997   0.696   5.657   0.310  0.4261  0.7518  1.6028
14502TIP3    H264998   0.713   5.799   0.358 -2.7066  2.0756 -1.0428
14503TIP3   OH264999   5.361   5.395  16.516 -0.4133 -0.2084  0.1373
14503TIP3    H165000   5.401   5.481  16.500 -0.9747 -0.0568 -0.4692
14503TIP3    H265001   5.435   5.335  16.524 -0.0323  0.2538  0.0865
14504TIP3   OH265002   6.228   3.059  11.089 -0.3198 -0.2827 -0.3482
14504TIP3    H165003   6.161   3.010  11.041 -1.0436  0.4388 -0.0973
14504TIP3    H265004   6.278   3.104  11.021 -1.0739  0.3980 -0.4581
14505TIP3   OH265005   5.848   2.016   4.098 -0.5975 -0.5344  0.0817
14505TIP3    H165006   5.764   2.058   4.112 -0.9211 -0.4782 -1.8460
14505TIP3    H265007   5.903   2.084   4.060  0.2488 -0.6412  1.0830
14506TIP3   OH265008   5.983   3.158   4.379  0.0097  0.3245  0.6242
14506TIP3    H165009   5.916   3.193   4.320 -0.0989  0.4406  0.8167
14506TIP3    H265010   5.951   3.072   4.404 -0.8063  1.0042  1.9251
14507TIP3   OH265011   1.637   6.252  14.647  0.6161 -0.5061 -0.4639
14507TIP3    H165012   1.613   6.228  14.736  0.7989 -2.2566 -0.8615
14507TIP3    H265013   1.579   6.325  14.625 -0.7130 -1.2758  0.4257
14508TIP3   OH265014   4.639   3.621  14.116 -0.6200  0.0476 -0.5208
14508TIP3    H165015   4.612   3.535  14.084 -1.9476  0.5424 -0.7649
14508TIP3    H265016   4.612   3.622  14.208 -0.4493  0.1396 -0.4722
14509TIP3   OH265017   4.611   1.651   1.198 -0.0441  0.7616  0.7928
14509TIP3    H165018   4.549   1.588   1.233  1.8137 -2.6748 -1.7930
14509TIP3    H265019   4.569   1.685   1.119 -0.2228  1.3630  1.1392
14510TIP3   OH265020   2.197   1.478  11.834 -0.6278  0.0265 -0.0707
14510TIP3    H165021   2.245   1.556  11.805 -1.0025  1.0798  2.0118
14510TIP3    H265022   2.256   1.405  11.816  0.5083  0.9946 -0.3197
14511TIP3   OH265023   1.599   4.152  13.278  0.3406  0.0888  0.1574
14511TIP3    H165024   1.563   4.107  13.355 -2.4625  0.7158 -0.7387
14511TIP3    H265025   1.620   4.239  13.310 -2.1513  0.8086 -0.0667
14512TIP3   OH265026   5.733   4.252   1.169  0.2244 -0.5483  0.0270
14512TIP3    H165027   5.785   4.186   1.215  2.6483  1.7339  0.7089
14512TIP3    H265028   5.675   4.287   1.236  1.0011  0.0284  0.4124
14513TIP3   OH265029   0.219   2.085  11.416  0.2652 -0.3779  0.0849
14513TIP3    H165030   0.223   2.049  11.328  1.0291 -0.2876  0.0832
14513TIP3    H265031   0.253   2.016  11.472 -1.8989 -1.1346  0.5295
14514TIP3   OH265032   2.533   5.792  16.676  0.2514  0.5957 -0.0119
14514TIP3    H165033   2.503   5.740  16.751  1.8233  0.5005  0.5839
14514TIP3    H265034   2.455   5.806  16.623 -0.4406 -1.3627  0.4341
14515TIP3   OH265035   5.398   0.698   2.338 -0.6339  0.2979  0.0727
14515TIP3    H165036   5.492   0.679   2.335 -0.6161  0.4641 -0.5854
14515TIP3    H265037   5.365   0.647   2.412  0.2112  1.3168  1.1803
14516TIP3   OH265038   3.948   6.261  10.534 -0.0387 -0.2639 -0.3812
14516TIP3    H165039   4.026   6.207  10.517  1.7952  1.7831  1.3190
14516TIP3    H265040   3.957   6.335  10.474  0.5790  1.1718  1.4329
14517TIP3   OH265041   1.753   4.753  16.118 -0.1942  0.9999 -0.3429
14517TIP3    H165042   1.809   4.703  16.177 -0.7326  0.0236 -0.6328
14517TIP3    H265043   1.749   4.699  16.039 -0.7531  1.5275 -0.6782
14518TIP3   OH265044   3.886   0.859   4.994  0.0404  0.2336  0.7104
14518TIP3    H165045   3.937   0.845   5.074 -0.1073  0.3059  0.8170
14518TIP3    H265046   3.910   0.786   4.938  1.9498  1.4187 -0.0987
14519TIP3   OH265047   0.276   1.582   2.338  0.3743 -0.4707 -0.1272
14519TIP3    H165048   0.266   1.661   2.286  0.1777 -0.2871  0.1910
14519TIP3    H265049   0.197   1.578   2.392  0.2517 -1.0313 -0.3434
14520TIP3   OH265050   5.106   2.587  10.572  0.0011 -0.2167 -0.4586
14520TIP3    H165051   5.113   2.494  10.594  2.1667 -0.1672 -0.8750
14520TIP3    H265052   5.025   2.615  10.615  0.5773 -1.7305  1.7238
14521TIP3   OH265053   5.642   0.600  15.683 -0.3223  0.1511  0.0107
14521TIP3    H165054   5.636   0.682  15.731  2.5607 -0.6505  1.8867
14521TIP3    H265055   5.587   0.538  15.731  0.3540  0.0699  0.6824
14522TIP3   OH265056   4.109   1.079  15.581 -0.1768 -0.2066  0.0479
14522TIP3    H165057   4.020   1.084  15.615 -0.4856 -0.6274 -0.7102
14522TIP3    H265058   4.103   1.107  15.490  0.6381  0.7790  0.2836
14523TIP3   OH265059   2.919   1.501   2.458 -0.1522  0.2717  0.2570
14523TIP3    H165060   2.945   1.481   2.368 -0.1348  0.0117  0.3222
14523TIP3    H265061   3.001   1.503   2.508 -0.4584 -3.2550  1.0201
14524TIP3   OH265062   2.249   2.051  11.854  0.1571 -0.1026  0.1502
14524TIP3    H165063   2.245   2.004  11.770 -0.8740 -0.6116  0.4689
14524TIP3    H265064   2.168   2.025  11.899 -0.6658  2.3718  0.1362
14525TIP3   OH265065   4.837   6.569   1.189  0.1996 -0.7586 -0.7644
14525TIP3    H165066   4.787   6.493   1.157  0.5782 -1.4021  0.1279
14525TIP3    H265067   4.840   6.629   1.115 -0.0988 -1.6272 -1.4900
14526TIP3   OH265068   0.602   3.703  13.005  0.1736 -0.5774 -0.0994
14526TIP3    H165069   0.681   3.756  13.003  0.6700 -1.3317 -1.1114
14526TIP3    H265070   0.535   3.758  12.964  0.7924 -0.8959 -1.5483
14527TIP3   OH265071   5.891   4.620   1.984  0.7042 -0.0469  0.1151
14527TIP3    H165072   5.851   4.543   1.943  0.3493 -0.4380  1.1865
14527TIP3    H265073   5.933   4.666   1.911 -0.8660 -0.1402 -0.8790
14528TIP3   OH265074   6.079   6.010  14.802 -0.3127 -0.4133 -0.5290
14528TIP3    H165075   6.113   6.084  14.751 -0.0473 -0.4536 -0.4122
14528TIP3    H265076   6.035   5.955  14.737  0.5711 -0.7855 -0.8208
14529TIP3   OH265077   4.012   6.094  14.739 -0.3214  0.5440  0.4771
14529TIP3    H165078   4.085   6.044  14.775 -0.3771  1.6061  2.1469
14529TIP3    H265079   3.937   6.069  14.794 -0.4728  1.9790  0.9454
14530TIP3   OH265080   4.496   2.870   0.249 -0.6069 -0.0423  0.3206
14530TIP3    H165081   4.555   2.810   0.205  0.0459  1.0833 -0.3775
14530TIP3    H265082   4.410   2.828   0.245 -0.2648 -0.6560 -0.6503
14531TIP3   OH265083   1.141   4.717   4.814 -0.5327 -1.1653 -0.0759
14531TIP3    H165084   1.077   4.703   4.884 -0.8436 -3.5109 -0.7890
14531TIP3    H265085   1.088   4.725   4.734 -0.0140 -1.4593 -0.4503
14532TIP3   OH265086   1.452   1.376   0.337 -0.4127 -0.2599  0.3974
14532TIP3    H165087   1.452   1.467   0.367 -0.9552  0.0908 -0.6658
14532TIP3    H265088   1.395   1.375   0.260 -1.0769 -1.6652  0.8883
14533TIP3   OH265089   3.026   1.585  12.075 -0.1427 -0.2376  0.3979
14533TIP3    H165090   2.964   1.572  12.146 -2.1550  1.1275 -1.0826
14533TIP3    H265091   3.021   1.678  12.054 -0.4705 -0.7995 -2.2962
14534TIP3   OH265092   4.278   1.844   2.648  0.3340  0.5306 -0.2121
14534TIP3    H165093   4.248   1.863   2.559 -1.1577  2.1925  0.6143
14534TIP3    H265094   4.373   1.835   2.640  0.1524 -0.0755 -2.0891
14535TIP3   OH265095   6.417   1.040  11.584  0.2327 -0.3640 -0.1038
14535TIP3    H165096   6.484   1.108  11.578 -0.4207  0.3475  0.6704
14535TIP3    H265097   6.450   0.980  11.651  0.5856 -0.5672 -0.4574
14536TIP3   OH265098   2.635   5.387  15.222  0.0001  0.4450 -0.1418
14536TIP3    H165099   2.575   5.325  15.264 -2.1228  1.2845 -1.8290
14536TIP3    H265100   2.719   5.372  15.265 -0.9613 -2.1316  0.9423
14537TIP3   OH265101   2.738   2.509  17.253 -0.2415 -0.2810  0.0694
14537TIP3    H165102   2.703   2.421  17.248 -0.8048 -0.0310 -0.3234
14537TIP3    H265103   2.831   2.499  17.233 -0.2047 -0.8546  0.5298
14538TIP3   OH265104   3.825   0.909  11.139  0.4077 -0.0669 -0.3357
14538TIP3    H165105   3.875   0.878  11.214  1.7082  3.4791  0.3669
14538TIP3    H265106   3.876   0.983  11.105 -2.8666  1.8301 -1.3873
14539TIP3   OH265107   1.465   4.873  15.168  0.3487  0.1839  0.1649
14539TIP3    H165108   1.410   4.899  15.242  0.9938 -1.2569  1.1945
14539TIP3    H265109   1.403   4.844  15.101 -0.1724 -0.8191  1.0682
14540TIP3   OH265110   1.151   2.177  14.040  0.4029 -0.0843  0.4144
14540TIP3    H165111   1.133   2.099  13.988  1.2307 -0.6801  1.0150
14540TIP3    H265112   1.215   2.148  14.106  0.4456  1.0064  0.8610
14541TIP3   OH265113   0.406   3.787  13.914 -0.6676 -1.0423 -0.4301
14541TIP3    H165114   0.377   3.874  13.887 -2.1050 -1.3726  0.0378
14541TIP3    H265115   0.464   3.803  13.989  1.9622 -0.2495 -2.5529
14542TIP3   OH265116   5.177   3.138   0.998 -0.0999  0.5251  0.0737
14542TIP3    H165117   5.207   3.157   1.087  2.0919  1.9481 -0.9183
14542TIP3    H265118   5.156   3.223   0.961  2.9180  0.4093 -2.0753
14543TIP3   OH265119   5.512   3.434   1.987  0.5224  0.1360 -0.2191
14543TIP3    H165120   5.526   3.375   1.913 -0.3591 -0.4982  0.1121
14543TIP3    H265121   5.546   3.519   1.957  0.2094 -0.1258 -1.3379
14544TIP3   OH265122   2.248   5.969  15.544 -0.0253  0.6338 -0.0876
14544TIP3    H165123   2.241   5.929  15.458  1.4419  0.9748 -0.3737
14544TIP3    H265124   2.205   5.906  15.603  0.0232 -0.1657 -0.8904
14545TIP3   OH265125   3.147   4.367  13.177  0.0797  1.0231  0.2353
14545TIP3    H165126   3.066   4.321  13.199  0.1168  0.3990 -0.8773
14545TIP3    H265127   3.189   4.384  13.261 -0.2950 -0.3324  0.7145
14546TIP3   OH265128   1.001   4.303   2.274 -0.5001 -0.0682 -0.1625
14546TIP3    H165129   0.989   4.282   2.366 -1.2234 -1.9123 -0.6441
14546TIP3    H265130   1.084   4.261   2.251 -0.2811  0.4549 -0.3140
14547TIP3   OH265131   4.628   2.073  17.156 -0.5836  0.3231 -0.5491
14547TIP3    H165132   4.676   2.156  17.154  1.4592 -0.8331 -1.6788
14547TIP3    H265133   4.578   2.076  17.237  0.7572  1.9703  0.2520
14548TIP3   OH265134   0.515   6.672  11.935  0.0051  0.3021  0.4778
14548TIP3    H165135   0.566   6.729  11.993 -0.1163  1.4706 -0.5360
14548TIP3    H265136   0.503   6.724  11.856  0.5392 -1.4453 -0.7706
14549TIP3   OH265137   0.064   2.296   3.601 -0.0924  0.1815  0.1248
14549TIP3    H165138   0.037   2.348   3.676 -0.0372 -0.8868  0.8964
14549TIP3    H265139   0.109   2.220   3.639 -1.5583 -1.2269 -0.9097
14550TIP3   OH265140   2.174   0.483  10.571  0.3031  0.0509  0.2315
14550TIP3    H165141   2.175   0.556  10.633 -0.0281 -0.4966  0.8893
14550TIP3    H265142   2.088   0.490  10.529 -0.1943 -0.6347  1.1144
14551TIP3   OH265143   0.538   1.620  16.062 -0.3018 -0.4170  0.1355
14551TIP3    H165144   0.595   1.552  16.097  0.7715  0.4950  0.1944
14551TIP3    H265145   0.450   1.593  16.088  0.2096 -1.2386  1.0717
14552TIP3   OH265146   1.081   5.264   4.232  0.3334 -0.5967  0.3591
14552TIP3    H165147   1.062   5.186   4.180  0.5609 -0.7028  0.4316
14552TIP3    H265148   1.150   5.308   4.183  0.2555 -0.4793  0.3556
14553TIP3   OH265149   3.051   0.898   2.575  0.0264  0.4220 -0.3668
14553TIP3    H165150   3.050   0.811   2.614  0.4648  0.7313  0.3449
14553TIP3    H265151   2.964   0.908   2.536 -0.4087  0.1031  0.5211
14554TIP3   OH265152   4.012   0.277   1.807  0.4068  0.3427 -0.0228
14554TIP3    H165153   4.068   0.290   1.731  0.2289 -2.1266 -0.6183
14554TIP3    H265154   3.930   0.243   1.771  0.5921 -1.5869  1.3014
14555TIP3   OH265155   1.162   4.387  14.004 -0.1202 -0.8212 -0.2132
14555TIP3    H165156   1.110   4.374  13.925 -0.0597 -2.5403  0.0123
14555TIP3    H265157   1.250   4.360  13.980  0.5845  1.6060 -0.4478
14556TIP3   OH265158   3.887   5.852   4.588 -0.1480  0.0139 -0.1412
14556TIP3    H165159   3.925   5.906   4.519  0.3334 -1.0383 -0.7158
14556TIP3    H265160   3.824   5.796   4.543  0.6561 -1.1456  0.1744
14557TIP3   OH265161   4.926   0.907  17.025  0.0015 -0.1281  0.0493
14557TIP3    H165162   4.981   0.830  17.038  1.8492  1.2647  0.7588
14557TIP3    H265163   4.890   0.926  17.111 -2.0247 -1.3262 -0.5087
14558TIP3   OH265164   5.332   4.797   5.051  0.4035  0.2125  0.2243
14558TIP3    H165165   5.289   4.867   5.100 -1.3432 -1.4605  1.1599
14558TIP3    H265166   5.422   4.797   5.083 -0.7062 -0.8576  3.5254
14559TIP3   OH265167   0.140   3.313   3.638 -0.5381 -0.0842  0.0477
14559TIP3    H165168   0.160   3.360   3.719 -0.0411  0.9056 -0.6520
14559TIP3    H265169   0.225   3.296   3.598 -0.7455 -1.1097  0.0319
14560TIP3   OH265170   2.970   3.533  12.525 -0.0455 -0.6163 -0.3443
14560TIP3    H165171   2.980   3.588  12.603 -0.1012 -2.0668  0.6970
14560TIP3    H265172   3.059   3.525  12.490  0.4335 -2.3198  1.2055
14561TIP3   OH265173   4.794   3.591  11.250 -0.3956  0.7030 -0.2039
14561TIP3    H165174   4.843   3.556  11.324 -0.9238 -1.4878 -0.8275
14561TIP3    H265175   4.710   3.619  11.288  0.2746  1.9140  0.4125
14562TIP3   OH265176   0.455   3.273   3.572 -0.0932  0.1406  0.0472
14562TIP3    H165177   0.473   3.287   3.665 -1.4702 -0.2767  0.3866
14562TIP3    H265178   0.462   3.359   3.533 -1.3615  0.6410  0.8719
14563TIP3   OH265179   5.122   3.316   1.499  0.3097  0.1938 -0.3739
14563TIP3    H165180   5.152   3.260   1.571 -0.2906  0.3200 -0.0200
14563TIP3    H265181   5.178   3.393   1.504  1.3359 -0.5011 -1.0476
14564TIP3   OH265182   0.105   5.553   2.418 -0.1042  0.4769 -0.9353
14564TIP3    H165183   0.132   5.610   2.489 -0.1957  0.1137 -0.6070
14564TIP3    H265184   0.034   5.500   2.455  0.5722 -0.4709 -0.9519
14565TIP3   OH265185   4.643   1.838  15.073 -0.3275  0.2525  0.3519
14565TIP3    H165186   4.661   1.867  15.163  1.1977 -2.4655  0.9755
14565TIP3    H265187   4.713   1.877  15.021  0.0262  0.0959  0.7057
14566TIP3   OH265188   2.203   5.415   6.377 -0.7698  0.0534 -0.1634
14566TIP3    H165189   2.182   5.395   6.469 -0.0979 -0.0370 -0.0278
14566TIP3    H265190   2.295   5.391   6.368 -1.1769 -1.1730 -1.2204
14567TIP3   OH265191   0.943   1.547   2.185  0.2972  0.2185  0.0234
14567TIP3    H165192   0.950   1.640   2.166 -0.5317  0.2588 -0.0764
14567TIP3    H265193   0.872   1.516   2.130  0.1265 -0.3415  0.5522
14568TIP3   OH265194   3.490   0.668   2.502  0.4208  0.1816  0.8328
14568TIP3    H165195   3.514   0.701   2.588  2.1332  0.8457  0.1138
14568TIP3    H265196   3.519   0.736   2.441  2.4647 -1.8577 -0.5410
14569TIP3   OH265197   2.820   6.484   3.330  0.1978  0.0022  0.1902
14569TIP3    H165198   2.895   6.544   3.319  0.0871 -0.3238 -2.7307
14569TIP3    H265199   2.855   6.411   3.380  1.3818  0.6607  0.3463
14570TIP3   OH265200   3.834   6.642  11.330  0.1009 -0.2668 -0.2643
14570TIP3    H165201   3.830   6.556  11.289  0.1203 -0.3637 -0.0642
14570TIP3    H265202   3.874   6.698  11.264  0.2084 -0.4401 -0.3469
14571TIP3   OH265203   6.152   6.218  15.706  0.1996  0.2842  0.0891
14571TIP3    H165204   6.150   6.277  15.631  0.9193 -0.0533 -0.1894
14571TIP3    H265205   6.168   6.276  15.781  0.1254  0.5392 -0.0930
14572TIP3   OH265206   6.538   1.721  10.526  0.5874 -0.5963 -0.5353
14572TIP3    H165207   6.508   1.683  10.444  2.0139 -0.1355 -1.2803
14572TIP3    H265208   6.633   1.706  10.526  0.9641  1.6368 -0.1532
14573TIP3   OH265209   6.049   3.588  16.657 -0.6103 -0.1075  0.2287
14573TIP3    H165210   6.131   3.632  16.636 -0.9133  0.0853 -0.6070
14573TIP3    H265211   6.001   3.587  16.574 -0.5204 -2.2019  0.1850
14574TIP3   OH265212   5.855   2.806  15.588  0.0786  0.1547  0.0284
14574TIP3    H165213   5.917   2.844  15.650  0.0379  0.5166 -0.1517
14574TIP3    H265214   5.794   2.756  15.642  0.9132 -0.7437  0.1499
14575TIP3   OH265215   5.723   4.408   0.458  0.2884 -0.1715  0.2766
14575TIP3    H165216   5.704   4.488   0.408 -0.3976  0.0395  0.8622
14575TIP3    H265217   5.789   4.434   0.521  1.3573 -0.5047 -0.6900
14576TIP3   OH265218   4.059   1.515   0.409 -0.9156  0.4727  0.1585
14576TIP3    H165219   3.990   1.461   0.369 -0.3829 -0.8072  0.9585
14576TIP3    H265220   4.013   1.566   0.476 -1.4640  1.2216 -0.7684
14577TIP3   OH265221   1.251   1.263   4.927 -0.1010 -0.3164 -0.4262
14577TIP3    H165222   1.253   1.259   5.023  2.4082  0.4519 -0.4131
14577TIP3    H265223   1.252   1.171   4.900  1.4520 -0.5335  0.2930
14578TIP3   OH265224   3.736   3.299  15.419  0.3075  0.3375 -0.0079
14578TIP3    H165225   3.758   3.248  15.342  0.6271 -0.1281  0.3833
14578TIP3    H265226   3.778   3.252  15.492  0.5457  1.1186  0.3644
14579TIP3   OH265227   6.632   2.120  16.834 -0.5614 -0.5056 -0.2546
14579TIP3    H165228   6.570   2.119  16.907  1.0322  1.5572  1.1626
14579TIP3    H265229   6.718   2.105  16.874  0.2009 -0.6171 -1.8683
14580TIP3   OH265230   2.716   2.717  14.901  0.2176 -0.0285 -0.2439
14580TIP3    H165231   2.750   2.749  14.817  1.4868 -3.8188 -1.2461
14580TIP3    H265232   2.786   2.664  14.937 -1.7548 -1.6233  1.3782
14581TIP3   OH265233   6.713   6.392   3.382  0.1356 -0.4889  0.0353
14581TIP3    H165234   6.796   6.356   3.414 -0.3076 -1.1150  0.4930
14581TIP3    H265235   6.668   6.318   3.342 -0.5546 -0.3332  0.5177
14582TIP3   OH265236   0.737   5.328   3.130 -0.0441  0.3593 -0.3773
14582TIP3    H165237   0.741   5.412   3.177  0.5920  0.6099 -0.8770
14582TIP3    H265238   0.742   5.351   3.038  3.1783 -0.3838 -0.4582
14583TIP3   OH265239   5.095   0.877   2.195 -0.2253 -0.4124  0.2566
14583TIP3    H165240   5.012   0.888   2.148  0.8695 -0.4795 -1.7497
14583TIP3    H265241   5.102   0.782   2.207 -0.7676 -0.3535  1.0273
14584TIP3   OH265242   0.665   4.444   4.768  0.2473 -0.4776  0.8826
14584TIP3    H165243   0.598   4.508   4.794 -0.6872 -1.2592  0.4375
14584TIP3    H265244   0.622   4.359   4.781  0.9256 -0.9654 -0.0685
14585TIP3   OH265245   5.613   6.490   0.333  0.2831  0.1951  0.2929
14585TIP3    H165246   5.555   6.428   0.290 -1.1291  1.1483  0.7774
14585TIP3    H265247   5.621   6.458   0.423 -1.2103  1.2100  0.8035
14586TIP3   OH265248   3.364   5.113   5.265  0.5477 -0.9024  0.2441
14586TIP3    H165249   3.426   5.101   5.193 -0.0758  0.4085 -0.5333
14586TIP3    H265250   3.355   5.208   5.274 -1.2087 -1.0655  0.4500
14587TIP3   OH265251   1.650   5.892  14.233 -0.4303  0.2245  0.2022
14587TIP3    H165252   1.630   5.930  14.319  0.3911  0.9860  0.0606
14587TIP3    H265253   1.585   5.823  14.222 -0.6253  0.2070  1.3817
14588TIP3   OH265254   2.339   4.611  16.906  0.1178  0.0188  0.0622
14588TIP3    H165255   2.345   4.660  16.988 -0.2412  0.5210 -0.2077
14588TIP3    H265256   2.309   4.524  16.932 -2.2773  0.8414  0.2534
14589TIP3   OH265257   2.715   6.809   1.393 -0.3075 -0.2886  0.4677
14589TIP3    H165258   2.731   6.873   1.324 -0.1170  0.6934  1.4190
14589TIP3    H265259   2.800   6.765   1.404 -0.5778 -1.0761 -0.5519
14590TIP3   OH265260   5.876   3.018  12.760  0.1591 -0.4908  0.5085
14590TIP3    H165261   5.789   2.983  12.741  0.0306  0.1854 -0.1548
14590TIP3    H265262   5.935   2.969  12.704 -0.0645  0.5982 -0.6909
14591TIP3   OH265263   6.148   2.676  16.197  0.2755 -0.6438 -0.2156
14591TIP3    H165264   6.206   2.680  16.121 -0.3733 -0.3532 -0.6988
14591TIP3    H265265   6.208   2.678  16.272  0.9333 -1.2760 -0.7159
14592TIP3   OH265266   0.291   5.517   5.753  0.1183  0.7324  0.2508
14592TIP3    H165267   0.319   5.467   5.829 -1.2292 -0.1552  0.1775
14592TIP3    H265268   0.243   5.454   5.699  0.7347  1.4371 -1.1534
14593TIP3   OH265269   4.688   2.042   4.601 -0.1446  0.0836  0.1912
14593TIP3    H165270   4.717   2.101   4.532  0.6046  1.3111  1.5264
14593TIP3    H265271   4.714   2.085   4.682  0.4218 -2.0953  1.1981
14594TIP3   OH265272   4.008   2.845  15.131  0.7173  0.0571  0.2226
14594TIP3    H165273   4.073   2.780  15.108 -1.5876 -2.6158  0.9302
14594TIP3    H265274   4.025   2.865  15.223  1.1756  0.1775  0.1126
14595TIP3   OH265275   3.027   2.890   2.738  0.2573  0.5170 -0.1681
14595TIP3    H165276   2.999   2.968   2.691  1.0567  0.8295 -0.1293
14595TIP3    H265277   3.071   2.923   2.817 -0.4014  0.0111  0.4213
14596TIP3   OH265278   0.283   0.819  12.781 -0.4728  0.2394  0.7458
14596TIP3    H165279   0.337   0.740  12.776 -1.0951 -0.2024  0.8571
14596TIP3    H265280   0.254   0.834  12.691  0.5406  0.9807  0.5402
14597TIP3   OH265281   2.853   3.459  13.144  0.2352  0.1681  0.1435
14597TIP3    H165282   2.926   3.517  13.167  1.6289 -0.3278 -2.7101
14597TIP3    H265283   2.843   3.401  13.219  0.1274  2.7913  2.2432
14598TIP3   OH265284   4.386   3.116   3.213 -0.0054 -0.4088  0.7383
14598TIP3    H165285   4.371   3.164   3.294  1.7392  1.5077 -0.0333
14598TIP3    H265286   4.388   3.024   3.240  2.8686  0.2944  3.2946
14599TIP3   OH265287   1.245   1.103  12.055 -0.0272  0.8250  0.1278
14599TIP3    H165288   1.221   1.175  12.113 -0.5602 -0.0082  0.9764
14599TIP3    H265289   1.340   1.094  12.066 -0.2920 -0.1293  1.8692
14600TIP3   OH265290   5.726   1.506  11.584  0.3777  0.4212  0.5684
14600TIP3    H165291   5.741   1.597  11.557 -2.3239  0.8214  0.3187
14600TIP3    H265292   5.727   1.509  11.679  2.1349  0.3663  0.5684
14601TIP3   OH265293   5.800   1.799  16.611 -0.1675  0.1232  0.0920
14601TIP3    H165294   5.864   1.731  16.633 -1.5008 -0.7217  1.4794
14601TIP3    H265295   5.851   1.881  16.611  1.1917 -0.7028 -0.3144
14602TIP3   OH265296   2.943   1.664  11.364  0.2990 -0.8765  0.6290
14602TIP3    H165297   2.902   1.734  11.313 -1.6069 -1.1848  1.6735
14602TIP3    H265298   2.971   1.600  11.299  0.4094  0.0245 -0.2116
14603TIP3   OH265299   1.216   1.062   3.150 -0.9531  0.3329  0.1453
14603TIP3    H165300   1.230   1.110   3.232  1.0650  2.2185 -1.2539
14603TIP3    H265301   1.139   1.105   3.111 -0.9017  0.5413  0.2684
14604TIP3   OH265302   6.018   1.432  13.742 -0.3464  0.3598  0.3434
14604TIP3    H165303   5.933   1.399  13.714 -0.2543  0.6194 -0.2594
14604TIP3    H265304   6.006   1.527  13.747  0.1238  0.4663 -0.5053
14605TIP3   OH265305   1.356   2.014   0.371 -0.3166  0.5239 -0.0273
14605TIP3    H165306   1.297   2.074   0.327 -0.2641  0.8541  0.3402
14605TIP3    H265307   1.301   1.941   0.399 -0.0382 -0.5264 -2.1571
14606TIP3   OH265308   0.428   1.261  15.864 -0.0114 -0.2506  0.2556
14606TIP3    H165309   0.446   1.298  15.778 -2.0098 -0.7707 -0.3974
14606TIP3    H265310   0.444   1.167  15.854 -1.8540 -0.5579 -0.0309
14607TIP3   OH265311   5.679   1.761   2.854  0.0380  0.5406 -0.3964
14607TIP3    H165312   5.686   1.836   2.794 -0.8014  0.2044 -0.9384
14607TIP3    H265313   5.705   1.795   2.939  1.2783  1.0231 -0.9599
14608TIP3   OH265314   0.134   1.837  17.010 -0.0462 -0.6402 -0.0008
14608TIP3    H165315   0.179   1.840  17.094  2.1083 -1.3275 -1.1010
14608TIP3    H265316   0.142   1.926  16.975  0.4561 -0.7589 -0.1910
14609TIP3   OH265317   0.153   0.449  13.889 -0.1011  0.2635 -0.2784
14609TIP3    H165318   0.196   0.405  13.962 -0.9217 -0.3153 -0.1402
14609TIP3    H265319   0.217   0.515  13.860  0.8570 -0.5579 -0.0596
14610TIP3   OH265320   2.077   1.946  14.260 -0.3742 -0.0295  0.1363
14610TIP3    H165321   1.994   1.916  14.295 -0.2632 -0.8735 -0.3153
14610TIP3    H265322   2.135   1.950  14.336  0.2547 -3.1765 -0.1386
14611TIP3   OH265323   5.648   1.491   0.953 -0.2331  0.6815 -0.2171
14611TIP3    H165324   5.594   1.526   0.882  0.4694 -2.0303 -2.1738
14611TIP3    H265325   5.589   1.488   1.028 -1.1457  3.1379 -0.7833
14612TIP3   OH265326   4.598   3.894  15.123 -0.0827 -0.3549 -0.4785
14612TIP3    H165327   4.624   3.931  15.039  3.2018 -1.9624 -0.2713
14612TIP3    H265328   4.652   3.941  15.187 -0.2652 -1.2966  0.3765
14613TIP3   OH265329   4.104   0.401   0.681  0.3703  0.4397  0.3284
14613TIP3    H165330   4.143   0.466   0.623  1.7435 -0.8540 -0.2419
14613TIP3    H265331   4.010   0.413   0.672  0.6194  2.1442  0.0120
14614TIP3   OH265332   3.369   2.133  15.102 -0.0013  0.3618 -0.7382
14614TIP3    H165333   3.453   2.090  15.090 -0.5573 -0.7215 -0.8022
14614TIP3    H265334   3.305   2.062  15.098 -0.8172  1.0037  0.6333
14615TIP3   OH265335   5.131   6.732  10.865 -0.3619 -0.0414 -0.2629
14615TIP3    H165336   5.063   6.666  10.862 -1.2666  0.8658 -0.1407
14615TIP3    H265337   5.113   6.781  10.946  0.3008  0.3350 -0.3398
14616TIP3   OH265338   1.141   5.460   0.320 -0.3253  0.3954  0.2668
14616TIP3    H165339   1.176   5.458   0.409 -0.4780  1.5790  0.3648
14616TIP3    H265340   1.142   5.368   0.292 -0.0809  0.0358  1.4055
14617TIP3   OH265341   6.348   3.830   6.393 -0.7810 -0.5195  0.1572
14617TIP3    H165342   6.316   3.818   6.304 -1.3325 -3.5537  0.7098
14617TIP3    H265343   6.362   3.741   6.426  2.2515  0.5796  2.0983
14618TIP3   OH265344   6.543   0.759  16.904  0.1114  0.4272 -0.5377
14618TIP3    H165345   6.503   0.796  16.825 -0.7513  0.4009 -0.1114
14618TIP3    H265346   6.602   0.691  16.871 -0.5417  0.1500 -1.1398
14619TIP3   OH265347   5.284   4.476   1.890  0.0949  0.3101 -0.2056
14619TIP3    H165348   5.304   4.464   1.982  1.1196  1.2709 -0.2890
14619TIP3    H265349   5.281   4.388   1.853  3.1134  0.0623  0.0419
14620TIP3   OH265350   2.082   3.126  10.817 -0.1431 -0.0103  0.2214
14620TIP3    H165351   2.154   3.187  10.797  0.5089 -1.2844 -1.4680
14620TIP3    H265352   2.035   3.117  10.734 -1.8654  0.2871  1.1523
14621TIP3   OH265353   5.909   1.493   3.968  0.0085 -0.3216 -0.2931
14621TIP3    H165354   5.955   1.429   3.914  1.0400 -0.2426  0.4900
14621TIP3    H265355   5.864   1.441   4.034  0.4977 -0.2676  0.0823
14622TIP3   OH265356   4.153   4.244   0.944 -0.3819  0.1589  0.1735
14622TIP3    H165357   4.171   4.193   0.865  1.2657  2.3295 -0.8973
14622TIP3    H265358   4.082   4.304   0.919  0.8630  1.5902 -0.0360
14623TIP3   OH265359   1.129   6.490  12.073  0.1009  0.6387 -0.1231
14623TIP3    H165360   1.125   6.536  11.989  1.7040  2.1230  0.5555
14623TIP3    H265361   1.130   6.397  12.050 -1.4608  0.9617 -1.6276
14624TIP3   OH265362   5.897   5.740   1.155  0.3952 -0.0173  0.2597
14624TIP3    H165363   5.986   5.772   1.168  0.2532  0.6162 -0.2992
14624TIP3    H265364   5.903   5.645   1.167  0.9546  0.1412  1.2169
14625TIP3   OH265365   0.594   3.140   0.925 -0.4703  0.2526 -0.1714
14625TIP3    H165366   0.514   3.170   0.882 -0.1683  0.3462 -0.6751
14625TIP3    H265367   0.612   3.054   0.886 -1.5670 -0.8045  1.5686
14626TIP3   OH265368   2.004   0.226  16.274  0.1603 -0.6106  0.2985
14626TIP3    H165369   1.925   0.236  16.328  0.1206  0.8694 -0.0182
14626TIP3    H265370   2.063   0.296  16.305  1.2664 -1.5762  0.3961
14627TIP3   OH265371   4.777   1.208   0.271 -0.1133 -0.3624  0.4263
14627TIP3    H165372   4.711   1.228   0.206 -0.2934 -0.5285  0.5590
14627TIP3    H265373   4.741   1.135   0.322  0.4396 -0.8809  0.0905
14628TIP3   OH265374   5.964   2.495   3.527  0.2524  0.7017  0.0769
14628TIP3    H165375   5.989   2.587   3.535  0.0173  0.6891  0.9345
14628TIP3    H265376   5.871   2.498   3.507  0.3108  0.6518 -0.2125
14629TIP3   OH265377   4.571   1.582  12.358 -0.0656  0.7206  0.2902
14629TIP3    H165378   4.477   1.572  12.347 -0.0153  0.4268  0.1195
14629TIP3    H265379   4.606   1.493  12.355  0.8013  1.0880 -4.9968
14630TIP3   OH265380   0.661   2.178   5.820 -0.0580  0.7090  0.1217
14630TIP3    H165381   0.627   2.214   5.902 -1.7581  0.5737 -0.5072
14630TIP3    H265382   0.667   2.084   5.837  0.2993  0.7683  0.3344
14631TIP3   OH265383   6.464   1.285  15.325  0.1593 -0.5287 -0.2107
14631TIP3    H165384   6.533   1.253  15.383  0.8818  0.4751 -0.4953
14631TIP3    H265385   6.392   1.223  15.336  0.6136 -0.8358  1.1032
14632TIP3   OH265386   3.950   1.777  15.605 -0.0371 -0.0311 -0.2532
14632TIP3    H165387   3.905   1.745  15.683  0.5271 -1.4711 -0.4962
14632TIP3    H265388   3.880   1.785  15.539 -0.6536  1.9912  0.6127
14633TIP3   OH265389   2.032   3.458   3.366  1.0359 -0.5695  0.0173
14633TIP3    H165390   2.069   3.546   3.361 -0.8432  0.1652 -1.4734
14633TIP3    H265391   2.048   3.420   3.280 -0.9727 -0.5111 -0.4063
14634TIP3   OH265392   5.464   4.140   1.103 -0.5811 -0.4784 -0.2107
14634TIP3    H165393   5.459   4.055   1.059  0.6755 -0.5099 -0.3318
14634TIP3    H265394   5.557   4.149   1.125 -1.2579 -0.6947  2.9274
14635TIP3   OH265395   2.816   2.967   5.442 -0.3937 -0.1508  0.6270
14635TIP3    H165396   2.893   2.974   5.499 -1.2447 -0.4283  1.8331
14635TIP3    H265397   2.842   3.013   5.362  1.4638 -1.3140  0.5199
14636TIP3   OH265398   5.081   2.226  17.202  0.9667  0.0661 -0.2567
14636TIP3    H165399   5.172   2.225  17.174  1.3350  0.1398  0.8977
14636TIP3    H265400   5.032   2.253  17.124  1.8153 -0.9844 -1.1649
14637TIP3   OH265401   4.827   1.043  14.357 -0.4221 -0.3654 -0.0186
14637TIP3    H165402   4.799   0.979  14.291  0.3807 -0.6630 -0.0787
14637TIP3    H265403   4.755   1.046  14.420 -0.3840 -1.4792  0.0874
14638TIP3   OH265404   4.536   1.079  15.817  0.6197  0.2157  0.1729
14638TIP3    H165405   4.619   1.116  15.786  1.6450 -2.0507  0.0961
14638TIP3    H265406   4.487   1.060  15.738  1.1259 -0.8447  0.1004
14639TIP3   OH265407   0.173   4.955   0.391  0.3040  0.2036  0.2931
14639TIP3    H165408   0.229   5.026   0.362 -0.9540  0.7587 -0.8272
14639TIP3    H265409   0.214   4.876   0.355  0.0608  0.6563 -1.0016
14640TIP3   OH265410   4.743   0.128   2.795  0.7689 -0.0471  0.4317
14640TIP3    H165411   4.787   0.116   2.711  2.5808  0.3134  1.3068
14640TIP3    H265412   4.705   0.043   2.815  2.2191 -0.7397  0.2954
14641TIP3   OH265413   2.668   5.495  14.323 -0.5245  0.1196  0.2322
14641TIP3    H165414   2.638   5.572  14.372  0.2730  1.1294 -0.8520
14641TIP3    H265415   2.591   5.466  14.274 -0.7248  0.4572  0.3448
14642TIP3   OH265416   2.677   5.936  15.516  0.5562 -1.0978 -0.0746
14642TIP3    H165417   2.615   5.996  15.474  1.2157 -0.0435  0.4278
14642TIP3    H265418   2.646   5.849  15.492 -1.0187 -0.5886  0.0258
14643TIP3   OH265419   0.710   6.472   3.568 -0.2718 -0.2451  0.6144
14643TIP3    H165420   0.690   6.479   3.661 -1.0233  0.6423  0.4042
14643TIP3    H265421   0.629   6.500   3.525  0.0548 -0.6933 -0.3031
14644TIP3   OH265422   4.422   2.503  14.153 -0.2284  0.0325 -0.3401
14644TIP3    H165423   4.346   2.541  14.197 -0.3351 -0.0781 -0.4265
14644TIP3    H265424   4.452   2.572  14.093  0.8641  0.7562  1.0229
14645TIP3   OH265425   6.584   0.600  11.592 -0.6081 -0.2017  0.1428
14645TIP3    H165426   6.656   0.538  11.602 -1.3266 -0.9667  0.6924
14645TIP3    H265427   6.623   0.686  11.608 -0.5602 -0.8904  4.3012
14646TIP3   OH265428   4.830   1.841   6.898  0.0579 -0.2433 -0.4122
14646TIP3    H165429   4.827   1.917   6.839 -0.9558  0.3811  0.4152
14646TIP3    H265430   4.923   1.826   6.912  0.2790  0.8900 -0.5529
14647TIP3   OH265431   4.799   3.002   3.944 -0.2602  0.7058 -0.0006
14647TIP3    H165432   4.884   2.995   3.900 -0.8024 -2.2938 -0.6977
14647TIP3    H265433   4.820   3.005   4.037  0.6180 -0.6350 -0.1416
14648TIP3   OH265434   2.378   5.437  15.521 -0.1171  0.0927 -0.3705
14648TIP3    H165435   2.302   5.449  15.464 -0.5080  4.9356  0.9318
14648TIP3    H265436   2.341   5.421  15.608  0.4159 -1.0085 -0.3360
14649TIP3   OH265437   0.190   3.537  15.510 -0.1469  0.7943  0.0537
14649TIP3    H165438   0.122   3.533  15.443  0.7839 -0.6069 -0.8128
14649TIP3    H265439   0.231   3.451  15.508  1.7256  1.6553  0.5069
14650TIP3   OH265440   6.104   3.368   0.093  0.2350 -0.5424  0.0152
14650TIP3    H165441   6.154   3.428   0.038 -0.2903 -0.3100 -0.2120
14650TIP3    H265442   6.121   3.281   0.055 -0.5765 -0.3253 -0.8741
14651TIP3   OH265443   6.315   4.094  13.363  0.2689  0.3079  0.0379
14651TIP3    H165444   6.293   4.042  13.286 -1.5638  1.2724 -0.1118
14651TIP3    H265445   6.399   4.135  13.340  0.3421 -0.3600 -0.9483
14652TIP3   OH265446   0.875   1.505  14.472  0.2439 -0.3196  0.5532
14652TIP3    H165447   0.813   1.492  14.400  1.2069 -0.1322 -0.3078
14652TIP3    H265448   0.961   1.485  14.435  0.7833  0.0527  1.5740
14653TIP3   OH265449   1.027   4.517  10.708  0.6601 -0.4264  0.6354
14653TIP3    H165450   0.967   4.573  10.659  1.8483  0.0735 -0.2699
14653TIP3    H265451   0.992   4.429  10.697 -0.5369 -0.0139  1.0472
14654TIP3   OH265452   5.443   1.977   1.434 -0.4904 -0.0826 -0.2625
14654TIP3    H165453   5.467   2.012   1.348 -1.3729  0.3470 -0.3359
14654TIP3    H265454   5.361   1.930   1.419 -2.7369  3.2424  1.0678
14655TIP3   OH265455   4.437   4.725  13.967 -0.0095  0.4599 -0.2501
14655TIP3    H165456   4.366   4.741  14.028 -0.2450 -0.3378 -0.3193
14655TIP3    H265457   4.469   4.813  13.944  0.2717  0.7497  1.2255
14656TIP3   OH265458   3.878   6.379  17.020  0.2093 -0.2821  0.2681
14656TIP3    H165459   3.958   6.337  17.051  1.8595  1.3627 -1.6369
14656TIP3    H265460   3.815   6.365  17.090  2.9558  0.7768  3.0544
14657TIP3   OH265461   1.126   6.091  13.157 -0.6710 -0.1759 -0.1031
14657TIP3    H165462   1.180   6.169  13.172 -0.3742 -0.2993 -0.5378
14657TIP3    H265463   1.065   6.117  13.088  0.5550 -0.8806 -1.4631
14658TIP3   OH265464   3.444   5.263  15.743 -0.6859  0.2131 -0.3717
14658TIP3    H165465   3.458   5.236  15.834  3.0624  1.4137 -0.4911
14658TIP3    H265466   3.450   5.182  15.692 -0.2463 -0.1409  0.2385
14659TIP3   OH265467   4.112   3.131  16.361 -0.3346 -0.5400  0.1961
14659TIP3    H165468   4.161   3.209  16.385 -1.2497  0.2481 -0.4807
14659TIP3    H265469   4.140   3.065  16.424  1.8931 -0.2220 -0.4310
14660TIP3   OH265470   5.671   4.700  16.187  0.3984  0.4355 -0.3466
14660TIP3    H165471   5.603   4.638  16.161 -1.0327  1.8322  0.0223
14660TIP3    H265472   5.664   4.705  16.283  0.5404  1.1322 -0.3672
14661TIP3   OH265473   3.138   4.956  12.779  0.2385 -0.1325  0.1871
14661TIP3    H165474   3.143   4.883  12.717  1.3399 -0.4226  0.5845
14661TIP3    H265475   3.055   4.999  12.760 -0.5536 -1.6644  0.1315
14662TIP3   OH265476   3.272   3.146   0.066 -0.1403  0.5453  0.0079
14662TIP3    H165477   3.187   3.114   0.096 -0.3156  2.3847  1.5401
14662TIP3    H265478   3.252   3.206  -0.006  0.0322 -0.7961 -1.1811
14663TIP3   OH265479   1.922   0.255   6.768  0.5996 -0.2874 -0.1026
14663TIP3    H165480   2.003   0.301   6.792  1.3937 -1.1138 -1.1191
14663TIP3    H265481   1.867   0.322   6.728  0.7903  0.2793  0.5668
14664TIP3   OH265482   6.487   2.719  15.584  0.2287  0.1387 -0.1313
14664TIP3    H165483   6.399   2.708  15.621  0.0843 -0.1839 -0.5690
14664TIP3    H265484   6.508   2.811  15.600 -0.7449  0.5719 -1.2152
14665TIP3   OH265485   4.169   1.008  16.660 -0.1583 -0.1324  0.3512
14665TIP3    H165486   4.195   0.946  16.728 -1.8482 -0.1496  1.0103
14665TIP3    H265487   4.132   0.953  16.590  2.1585 -0.1624 -0.8759
14666TIP3   OH265488   2.735   6.012   3.563 -0.0227  0.2387  0.3283
14666TIP3    H165489   2.693   5.948   3.621  0.9361  2.0162  3.0899
14666TIP3    H265490   2.822   5.975   3.547 -1.2607 -1.6621 -2.4303
14667TIP3   OH265491   1.454   3.384  14.415 -0.6623  0.0240 -0.6770
14667TIP3    H165492   1.384   3.434  14.456 -0.4635  0.2331 -0.5925
14667TIP3    H265493   1.492   3.333  14.487  0.7956  1.6701 -0.2591
14668TIP3   OH265494   1.809   3.659  16.077  0.5246  0.0310  0.5185
14668TIP3    H165495   1.730   3.608  16.096 -0.6189  0.1699 -3.3576
14668TIP3    H265496   1.848   3.675  16.163 -1.6178 -3.2544  2.2333
14669TIP3   OH265497   0.761   3.536   6.327 -0.4436  0.3874  0.1792
14669TIP3    H165498   0.774   3.609   6.387  2.2688  0.2832 -0.2222
14669TIP3    H265499   0.758   3.577   6.240  1.1009  0.0514 -0.0482
14670TIP3   OH265500   6.798   5.771  12.410 -0.1543  0.0210 -0.0117
14670TIP3    H165501   6.817   5.687  12.452 -1.2768 -0.3606 -0.2591
14670TIP3    H265502   6.705   5.786  12.426  0.4798  2.2603  1.8294
14671TIP3   OH265503   5.845   3.760  17.006 -0.0537  0.5573 -0.3805
14671TIP3    H165504   5.754   3.758  17.033 -0.0157 -0.4618 -0.2852
14671TIP3    H265505   5.845   3.722  16.918  0.3910 -0.3371 -0.0019
14672TIP3   OH265506   4.842   4.366   3.157  0.5114  0.0188 -0.5788
14672TIP3    H165507   4.913   4.413   3.202 -0.3964  1.5330 -0.6833
14672TIP3    H265508   4.883   4.289   3.120  1.5401 -0.6464  1.8447
14673TIP3   OH265509   1.450   3.764  16.142  0.0303  0.5868  0.6036
14673TIP3    H165510   1.427   3.716  16.222 -1.9954  0.1106 -0.2209
14673TIP3    H265511   1.490   3.698  16.086 -0.1532  0.5140  0.5595
14674TIP3   OH265512   2.059   0.222  10.763 -0.4534 -0.0852 -0.1063
14674TIP3    H165513   2.102   0.255  10.684 -0.2138 -1.3738 -0.5297
14674TIP3    H265514   2.060   0.296  10.824  1.4209  0.2243 -0.4870
14675TIP3   OH265515   4.864   0.029  15.340 -0.0871  0.1104  0.1509
14675TIP3    H165516   4.946   0.064  15.306  0.4804  0.6652  2.0229
14675TIP3    H265517   4.847   0.081  15.419 -1.6545 -0.7512  0.3986
14676TIP3   OH265518   0.634   4.074   5.296 -0.6423 -0.0484  0.2011
14676TIP3    H165519   0.627   4.071   5.392 -1.7761  0.0790  0.1256
14676TIP3    H265520   0.724   4.102   5.280 -0.4654 -0.0062  1.2353
14677TIP3   OH265521   4.654   3.668   0.189  0.2181 -0.1797 -0.1226
14677TIP3    H165522   4.658   3.761   0.169  1.4894 -0.3656 -0.8006
14677TIP3    H265523   4.629   3.665   0.281  0.7741  0.8546  0.0775
14678TIP3   OH265524   0.341   4.781  15.323  0.6818 -0.2102 -0.0657
14678TIP3    H165525   0.309   4.795  15.412 -0.2667  1.8764 -0.7008
14678TIP3    H265526   0.436   4.775  15.333  0.7927  2.3940  0.8489
14679TIP3   OH265527   2.948   5.950  15.578  0.3055 -0.0898  0.0809
14679TIP3    H165528   2.950   6.043  15.601  0.8583  0.2082 -1.1424
14679TIP3    H265529   2.867   5.939  15.529  0.6148 -0.0904 -0.4356
14680TIP3   OH265530   3.617   3.315  12.302 -0.3163  0.2991 -0.4051
14680TIP3    H165531   3.671   3.248  12.344  0.2145  1.0044  0.0377
14680TIP3    H265532   3.552   3.265  12.252  0.7906 -0.5474 -1.0084
14681TIP3   OH265533   0.559   2.791  15.115  0.1322 -0.3977  0.4589
14681TIP3    H165534   0.598   2.705  15.099  3.1735  0.9792  0.1851
14681TIP3    H265535   0.629   2.841  15.158 -0.6155  2.8155 -1.9276
14682TIP3   OH265536   6.158   0.348  13.047  0.6743  0.1216 -0.5369
14682TIP3    H165537   6.134   0.435  13.079 -1.2918 -1.4403  2.5853
14682TIP3    H265538   6.253   0.351  13.039  0.8366  1.9804  1.4835
14683TIP3   OH265539   6.353   0.979   1.130  0.1258  0.1831 -0.1247
14683TIP3    H165540   6.402   0.904   1.095 -1.4888 -0.6105 -0.7577
14683TIP3    H265541   6.412   1.019   1.193  1.2237 -1.3203 -0.1595
14684TIP3   OH265542   1.749   3.256  15.665  0.7271  0.0745  0.4339
14684TIP3    H165543   1.806   3.221  15.597 -1.0685 -0.7945 -0.6621
14684TIP3    H265544   1.777   3.212  15.746  0.8436 -1.2250 -0.3008
14685TIP3   OH265545   2.915   0.937   2.048 -0.4744  0.3216 -0.3536
14685TIP3    H165546   2.905   0.843   2.059 -0.5883  0.3633 -0.0815
14685TIP3    H265547   2.936   0.969   2.136 -1.4683  0.6781 -0.2371
14686TIP3   OH265548   2.485   3.177  12.418  0.0516  0.3292  0.6068
14686TIP3    H165549   2.525   3.139  12.496 -0.1866 -0.8497  0.1784
14686TIP3    H265550   2.468   3.268  12.440  1.9055  0.5357  1.1954
14687TIP3   OH265551   0.142   4.062  11.084  0.1307  0.2191  0.6303
14687TIP3    H165552   0.193   4.133  11.123  0.1254  0.2212  0.6336
14687TIP3    H265553   0.051   4.092  11.089  0.1596  0.3511  0.3352
14688TIP3   OH265554   2.089   6.240   3.158  0.1759  0.1128 -0.0576
14688TIP3    H165555   2.022   6.242   3.226  1.1702  2.9704  0.9157
14688TIP3    H265556   2.056   6.299   3.090  0.8529  0.0804 -0.4143
14689TIP3   OH265557   6.675   0.563   4.580  0.2878 -0.4783  0.2384
14689TIP3    H165558   6.659   0.619   4.656  1.1537  0.2743 -0.1324
14689TIP3    H265559   6.597   0.574   4.526  0.3344  0.1424  0.3019
14690TIP3   OH265560   2.750   2.070   0.873 -0.4212  0.3151 -1.0534
14690TIP3    H165561   2.800   2.139   0.918  2.0518 -1.2492 -1.3630
14690TIP3    H265562   2.663   2.075   0.913  0.2725  2.3413  0.2920
14691TIP3   OH265563   6.315   4.404   0.576 -0.2609 -0.3358 -0.0314
14691TIP3    H165564   6.246   4.459   0.538 -1.4709 -0.0723  2.3943
14691TIP3    H265565   6.344   4.453   0.653  0.3504 -1.9696  0.7918
14692TIP3   OH265566   5.917   4.599  10.610  0.5646  0.1879 -0.0279
14692TIP3    H165567   6.008   4.615  10.584  0.6208  0.5352  0.3727
14692TIP3    H265568   5.883   4.686  10.631  0.0503  0.0932 -0.4618
14693TIP3   OH265569   2.579   4.299   6.276  0.0364 -0.3535  0.7208
14693TIP3    H165570   2.533   4.370   6.321  0.7092 -0.3073  1.3519
14693TIP3    H265571   2.589   4.232   6.343  0.5553 -0.5158  0.4773
14694TIP3   OH265572   0.078   6.633  15.309 -0.0452 -0.3474 -0.1071
14694TIP3    H165573   0.048   6.562  15.365 -2.9433  0.4866 -0.5117
14694TIP3    H265574   0.104   6.590  15.227 -0.6375 -1.0537  0.0744
14695TIP3   OH265575   2.381   6.622  13.117  0.1044 -0.2616 -0.3222
14695TIP3    H165576   2.455   6.645  13.060 -0.9431  1.1205 -1.1649
14695TIP3    H265577   2.304   6.653  13.069 -0.9973 -1.4172  0.6842
14696TIP3   OH265578   5.466   1.031  12.952 -0.8610 -0.2835 -0.1338
14696TIP3    H165579   5.380   1.057  12.918 -0.3622  0.9437 -0.4846
14696TIP3    H265580   5.465   1.060  13.043 -0.3888  0.7990 -0.4637
14697TIP3   OH265581   0.521   3.182  16.509  0.1790  0.2072  0.0391
14697TIP3    H165582   0.552   3.254  16.454 -0.5129 -0.0921 -0.7601
14697TIP3    H265583   0.586   3.113  16.497 -0.0915  0.0564 -0.6014
14698TIP3   OH265584   1.793   1.612   2.931 -0.2315  1.0563 -0.8582
14698TIP3    H165585   1.828   1.679   2.989  2.0038 -0.3462 -0.5193
14698TIP3    H265586   1.761   1.544   2.990 -1.2263  1.1980 -1.2243
14699TIP3   OH265587   1.749   6.630  11.300  0.9374 -0.5669 -0.2135
14699TIP3    H165588   1.747   6.643  11.205  0.5215  2.1033  0.1237
14699TIP3    H265589   1.817   6.564  11.314  1.8277 -0.1070 -2.2744
14700TIP3   OH265590   2.196   4.410   4.376  0.0619 -0.1883  0.6714
14700TIP3    H165591   2.127   4.476   4.375  0.1075 -0.1444 -1.0388
14700TIP3    H265592   2.163   4.341   4.432 -0.9223  0.3147  0.7164
14701TIP3   OH265593   2.109   2.321  13.198 -0.2847 -0.6200  0.2387
14701TIP3    H165594   2.085   2.362  13.115 -0.1631  1.8420  1.3611
14701TIP3    H265595   2.204   2.327  13.200 -0.3353  0.0867  0.8993
14702TIP3   OH265596   5.788   5.392   3.793  0.3690 -0.4174  0.5091
14702TIP3    H165597   5.715   5.388   3.731  1.0129  0.4753 -0.3202
14702TIP3    H265598   5.837   5.311   3.778  0.1995 -0.4722  0.2496
14703TIP3   OH265599   4.820   3.870  16.389 -0.1095  0.4085  0.7341
14703TIP3    H165600   4.831   3.816  16.467  0.9060  1.7653  1.5364
14703TIP3    H265601   4.906   3.871  16.347 -1.0698 -1.8423 -1.4513
14704TIP3   OH265602   6.294   1.988  15.151  0.2670  0.3402  0.7779
14704TIP3    H165603   6.329   1.927  15.086 -0.7163 -2.8741  3.1172
14704TIP3    H265604   6.254   2.058  15.099  0.3928 -1.5998 -2.0718
14705TIP3   OH265605   1.599   3.220  16.707 -0.2126 -0.1067  0.4242
14705TIP3    H165606   1.548   3.253  16.781  0.2674  0.0608  0.6844
14705TIP3    H265607   1.669   3.169  16.748  1.2382  1.6268  0.1616
14706TIP3   OH265608   4.176   6.150  10.491  0.1995  0.2034  0.3102
14706TIP3    H165609   4.247   6.180  10.548 -0.0253  1.2864  0.0179
14706TIP3    H265610   4.185   6.055  10.491  1.3141  0.3003  0.7127
14707TIP3   OH265611   6.199   5.799  17.111  0.8154  0.6539 -0.5332
14707TIP3    H165612   6.126   5.792  17.173  1.7212  0.1213  0.4989
14707TIP3    H265613   6.212   5.709  17.080  0.1934  0.9640 -1.7064
14708TIP3   OH265614   5.481   3.106  14.386 -0.7808 -0.3555  0.0976
14708TIP3    H165615   5.509   3.046  14.455  0.2088 -0.3611 -0.2924
14708TIP3    H265616   5.509   3.064  14.305  0.0727  0.6982 -0.1718
14709TIP3   OH265617   3.858   4.805   1.491  0.3138  0.1196 -0.1853
14709TIP3    H165618   3.781   4.750   1.478 -0.6729  1.8790 -1.9538
14709TIP3    H265619   3.930   4.743   1.501 -1.4235 -1.5780  2.5370
14710TIP3   OH265620   1.712   3.759  13.949  0.0999 -0.5135  0.1941
14710TIP3    H165621   1.617   3.765  13.937  0.4527  0.0453 -2.7707
14710TIP3    H265622   1.735   3.841  13.993 -0.5996  0.1466 -0.6411
14711TIP3   OH265623   6.218   1.115   3.207  0.4819  0.0007 -0.3836
14711TIP3    H165624   6.165   1.171   3.150 -1.7544  1.5638  3.0867
14711TIP3    H265625   6.291   1.171   3.235 -0.8485  0.7219  1.7579
14712TIP3   OH265626   6.025   6.413  11.182  0.0881  0.2391 -0.3258
14712TIP3    H165627   6.098   6.399  11.243 -1.5050 -1.2532  1.2918
14712TIP3    H265628   6.065   6.404  11.095  1.3580 -3.2643  0.5491
14713TIP3   OH265629   0.888   4.139   5.432  0.4551 -0.2155  0.1524
14713TIP3    H165630   0.864   4.111   5.520  0.0355 -0.5705 -0.0709
14713TIP3    H265631   0.982   4.120   5.425  0.1805 -1.5454  0.0173
14714TIP3   OH265632   6.205   2.544  11.124 -0.6274 -0.5034  0.3383
14714TIP3    H165633   6.196   2.461  11.077  0.5437 -0.9879  0.9694
14714TIP3    H265634   6.192   2.611  11.056 -4.3998 -1.1415  0.3095
14715TIP3   OH265635   2.762   0.819  13.313  0.4642  0.1233 -0.0552
14715TIP3    H165636   2.715   0.890  13.357  2.1549  1.6129 -0.6046
14715TIP3    H265637   2.829   0.792  13.376  1.3847  0.6714 -0.7963
14716TIP3   OH265638   2.554   3.016   3.799 -0.5936 -0.1927 -0.2794
14716TIP3    H165639   2.532   2.969   3.719 -0.6447 -0.0838 -0.3293
14716TIP3    H265640   2.642   3.051   3.783 -0.6215 -0.1340 -0.3052
14717TIP3   OH265641   3.051   2.177  16.018  0.1530  0.1260  0.7187
14717TIP3    H165642   3.039   2.085  16.041  1.3197 -0.6032 -1.3940
14717TIP3    H265643   3.097   2.175  15.933  2.8826  2.6270  2.0080
14718TIP3   OH265644   4.417   1.019  17.012 -0.0068 -0.1237 -0.6406
14718TIP3    H165645   4.504   0.979  17.010 -0.5435 -1.3144 -0.6636
14718TIP3    H265646   4.434   1.113  17.005  1.2181 -0.4077 -1.7398
14719TIP3   OH265647   5.305   2.568  16.311  0.3207  0.4152 -0.1314
14719TIP3    H165648   5.375   2.606  16.365 -0.0425  1.1010 -0.1439
14719TIP3    H265649   5.347   2.494  16.267  1.1969  1.1530 -0.5637
14720TIP3   OH265650   2.139   1.112   4.107  0.0995  0.3671  0.4166
14720TIP3    H165651   2.050   1.113   4.142  0.1499 -0.8549  0.5946
14720TIP3    H265652   2.163   1.205   4.100 -1.8792  0.7829 -1.4296
14721TIP3   OH265653   0.535   0.656  14.076 -0.4795 -0.0249  0.0189
14721TIP3    H165654   0.481   0.591  14.121 -0.7147  0.6935  0.7897
14721TIP3    H265655   0.475   0.729  14.060 -0.1229  0.1528 -0.5194
14722TIP3   OH265656   5.371   5.596  12.004 -0.1993  0.1184  0.4197
14722TIP3    H165657   5.362   5.559  12.091  2.3895 -1.7465 -0.0430
14722TIP3    H265658   5.307   5.549  11.950 -1.6030  1.0779  1.2250
14723TIP3   OH265659   4.370   1.780  16.182 -0.2819  0.1974  0.3985
14723TIP3    H165660   4.393   1.693  16.149  2.5516  1.4430 -1.1610
14723TIP3    H265661   4.367   1.770  16.277 -1.2703 -1.8795  0.1504
14724TIP3   OH265662   1.534   3.671  15.485  0.1636  0.4045 -0.6095
14724TIP3    H165663   1.578   3.649  15.567 -0.3537  0.2995 -0.3515
14724TIP3    H265664   1.492   3.589  15.458  0.4388  0.4062 -1.0464
14725TIP3   OH265665   4.642   1.662   3.234 -0.1744  0.3843 -0.0114
14725TIP3    H165666   4.629   1.733   3.296 -0.0619  2.7503 -2.5810
14725TIP3    H265667   4.678   1.590   3.286  1.5655  2.8637  2.3222
14726TIP3   OH265668   3.983   3.587  16.559 -0.4267  0.2491  0.3486
14726TIP3    H165669   4.044   3.516  16.577 -0.0050  0.7651  0.9447
14726TIP3    H265670   3.965   3.626  16.645 -0.9362  0.6288  0.0719
14727TIP3   OH265671   1.902   2.217  16.785  0.5557  0.6627  0.0045
14727TIP3    H165672   1.869   2.200  16.697 -0.0951  1.1179  0.1587
14727TIP3    H265673   1.852   2.292  16.816  2.3133  1.8911 -0.0576
14728TIP3   OH265674   0.114   4.602  12.339  0.1983 -0.0554 -0.3966
14728TIP3    H165675   0.110   4.507  12.328  0.4037  0.0398 -1.4140
14728TIP3    H265676   0.120   4.615  12.433 -0.4554 -1.0305 -0.2023
14729TIP3   OH265677   3.637   5.216   0.733  0.3840 -0.0369 -0.2023
14729TIP3    H165678   3.621   5.193   0.825 -1.2038 -0.1960 -0.4960
14729TIP3    H265679   3.663   5.308   0.735  1.3172 -0.3136  0.4933
14730TIP3   OH265680   6.139   2.421  14.327 -0.0312  0.1702 -0.5366
14730TIP3    H165681   6.057   2.421  14.376 -0.8454  1.1606 -1.8536
14730TIP3    H265682   6.200   2.369  14.380 -1.3735 -0.1731  0.6747
14731TIP3   OH265683   0.494   1.026   2.519  0.1108  0.1831 -0.4243
14731TIP3    H165684   0.457   1.111   2.498 -1.0856 -0.1393  0.3407
14731TIP3    H265685   0.474   1.014   2.612  1.0848 -0.5230 -0.2981
14732TIP3   OH265686   1.879   0.082   5.264  0.3472  0.2933  0.3438
14732TIP3    H165687   1.894   0.009   5.324  0.1254 -1.6258 -1.8907
14732TIP3    H265688   1.788   0.073   5.237 -0.7817  3.5232  2.7564
14733TIP3   OH265689   4.806   5.561   3.958  0.1726  0.1792 -0.0758
14733TIP3    H165690   4.890   5.540   3.918  0.2233  0.1101  0.0680
14733TIP3    H265691   4.771   5.631   3.903  0.3204  0.2041 -0.1391
14734TIP3   OH265692   0.120   2.104  16.902 -0.1004  0.4973 -0.3101
14734TIP3    H165693   0.193   2.107  16.841 -0.0148  0.2780 -0.2155
14734TIP3    H265694   0.149   2.155  16.977  0.8528 -1.4889  0.7143
14735TIP3   OH265695   1.308   5.434  13.509 -0.1131 -0.1337  0.4169
14735TIP3    H165696   1.277   5.350  13.475  0.5468 -0.7820  1.3908
14735TIP3    H265697   1.396   5.444  13.474  0.3740 -0.5610  1.5079
14736TIP3   OH265698   0.863   1.611  13.105  0.3071  0.0580 -0.3722
14736TIP3    H165699   0.898   1.662  13.032 -0.4405  0.6837 -0.2999
14736TIP3    H265700   0.776   1.648  13.121 -0.1547 -1.0836 -0.1724
14737TIP3   OH265701   1.036   5.241  12.351 -0.3483  0.0683  0.7735
14737TIP3    H165702   1.018   5.286  12.433  0.9908  0.2574  0.9805
14737TIP3    H265703   0.997   5.155  12.362 -1.8341  0.7247  0.8608
14738TIP3   OH265704   5.275   0.655  14.320 -0.0714  0.5939  0.0651
14738TIP3    H165705   5.205   0.706  14.361 -2.2335 -0.7261 -1.8651
14738TIP3    H265706   5.245   0.565  14.324  1.6675 -0.0395 -0.5438
14739TIP3   OH265707   3.104   0.153   4.013  0.2378 -0.3025  0.2982
14739TIP3    H165708   3.054   0.231   4.034  1.1395  0.2515  0.4225
14739TIP3    H265709   3.040   0.093   3.974 -0.7716 -0.0874  1.5751
14740TIP3   OH265710   3.239   2.066  14.106  0.6445  0.2737  0.2195
14740TIP3    H165711   3.182   1.992  14.128 -0.8443  0.8574 -1.5960
14740TIP3    H265712   3.326   2.027  14.094 -0.5449 -1.5604 -2.8851
14741TIP3   OH265713   1.302   4.611   2.971  0.5441 -0.2354  0.1001
14741TIP3    H165714   1.279   4.700   2.999 -0.0700 -0.4219  0.1949
14741TIP3    H265715   1.377   4.588   3.026  0.7354  0.2449  0.0402
14742TIP3   OH265716   3.574   5.269  16.180 -0.4720 -0.2019 -0.4000
14742TIP3    H165717   3.665   5.291  16.160 -0.9165 -0.4914 -2.9544
14742TIP3    H265718   3.547   5.335  16.243  0.8728  1.1814 -1.2247
14743TIP3   OH265719   5.430   1.217   1.984  0.4113 -0.1672  0.0467
14743TIP3    H165720   5.351   1.197   1.935  0.6993  0.4678 -0.6747
14743TIP3    H265721   5.426   1.158   2.060  0.2745 -1.6001 -1.0407
14744TIP3   OH265722   3.629   1.053   5.989 -0.7514  0.3883 -0.6558
14744TIP3    H165723   3.545   1.072   5.947 -1.3990  0.7697  0.7687
14744TIP3    H265724   3.611   0.979   6.046 -0.6735  1.8384  1.2902
14745TIP3   OH265725   4.982   3.898  15.309 -0.0375  0.2835  0.6029
14745TIP3    H165726   4.974   3.804  15.297  3.3469 -0.1761  1.4922
14745TIP3    H265727   5.042   3.926  15.239  0.4930  1.4658  1.5170
14746TIP3   OH265728   5.529   0.797   0.949 -0.1962 -0.3366  0.0492
14746TIP3    H165729   5.597   0.730   0.946 -0.6711 -0.8545  0.5678
14746TIP3    H265730   5.567   0.867   1.002  0.6202  0.1782 -1.1994
14747TIP3   OH265731   5.763   6.573  16.739  0.1444  0.0518 -0.4144
14747TIP3    H165732   5.742   6.541  16.827 -0.3948  1.8302  0.1249
14747TIP3    H265733   5.855   6.600  16.744 -0.1039  0.8420 -0.2018
14748TIP3   OH265734   1.789   1.371  16.262  0.4443  0.0169 -0.6293
14748TIP3    H165735   1.839   1.395  16.341 -1.7741 -0.2303  0.8891
14748TIP3    H265736   1.764   1.455  16.223  0.8129  0.1358 -0.6186
14749TIP3   OH265737   3.450   0.182   5.914 -0.6507  0.9357 -0.5037
14749TIP3    H165738   3.477   0.116   5.978 -3.0723  0.5485  0.1557
14749TIP3    H265739   3.513   0.173   5.842 -0.2332 -1.2609  0.1064
14750TIP3   OH265740   2.229   6.433  14.620  0.1485  0.0745  0.1889
14750TIP3    H165741   2.321   6.454  14.603  0.3742  0.5314  1.8559
14750TIP3    H265742   2.230   6.392  14.706 -1.1158 -0.7452 -0.1831
14751TIP3   OH265743   4.514   3.657  12.058 -0.0258 -0.0468  0.0654
14751TIP3    H165744   4.588   3.709  12.025 -1.1441  1.5792  0.0336
14751TIP3    H265745   4.438   3.713  12.044 -0.9831 -0.7632  2.2005
14752TIP3   OH265746   5.873   5.398   5.011 -0.4430  0.2042 -0.5318
14752TIP3    H165747   5.926   5.420   5.088  0.2655 -0.6707 -0.7491
14752TIP3    H265748   5.783   5.400   5.042 -0.2282  0.9519  0.0460
14753TIP3   OH265749   3.094   6.243  15.045  0.0744  0.1921  0.0249
14753TIP3    H165750   3.097   6.155  15.082  0.6415 -1.1008 -2.9534
14753TIP3    H265751   3.033   6.235  14.971  1.3076  1.9267 -1.1999
14754TIP3   OH265752   4.999   3.333  11.969 -0.3891  0.3685 -0.4430
14754TIP3    H165753   4.914   3.293  11.953  0.2988 -0.3438 -2.4107
14754TIP3    H265754   4.981   3.427  11.968 -1.5813  0.2140  1.8076
14755TIP3   OH265755   5.352   1.698   3.490 -0.1334  0.0385  0.0939
14755TIP3    H165756   5.301   1.739   3.560 -0.1444 -0.1408  0.1885
14755TIP3    H265757   5.290   1.685   3.418  0.2728  1.9423 -0.6564
14756TIP3   OH265758   3.138   5.293   2.020  0.2009  0.2390 -0.2234
14756TIP3    H165759   3.195   5.361   1.984 -0.0114  0.7645  0.4359
14756TIP3    H265760   3.055   5.337   2.037 -0.2373 -0.4015 -0.6598
14757TIP3   OH265761   0.978   5.127   3.078 -0.3365  0.7728  0.7257
14757TIP3    H165762   1.046   5.164   3.022 -0.9141 -0.3626 -0.7434
14757TIP3    H265763   0.910   5.195   3.080 -0.0982  1.0240  0.4533
14758TIP3   OH265764   0.227   1.680  11.372 -0.2242 -0.0634  0.2839
14758TIP3    H165765   0.195   1.766  11.400 -1.2530 -0.2581 -0.2719
14758TIP3    H265766   0.248   1.691  11.279  0.8715 -0.0742  0.5222
14759TIP3   OH265767   1.649   2.200  14.900 -0.6537 -0.3450  0.4728
14759TIP3    H165768   1.712   2.249  14.847 -1.0969  0.3951  0.6082
14759TIP3    H265769   1.607   2.267  14.955 -0.2540 -1.0927  1.7098
14760TIP3   OH265770   5.678   2.677   4.777 -0.0888 -0.8313 -0.1992
14760TIP3    H165771   5.720   2.627   4.847  0.2765  1.1958  1.0847
14760TIP3    H265772   5.668   2.614   4.705  3.2124 -1.9184  0.1901
14761TIP3   OH265773   0.760   6.069  11.821 -0.4366  0.2219 -0.5320
14761TIP3    H165774   0.772   6.004  11.890  0.1804  0.6429 -0.2443
14761TIP3    H265775   0.760   6.017  11.740  0.0278 -0.1368 -0.3007
14762TIP3   OH265776   1.416   5.988  14.984 -0.3391 -0.0301 -0.4324
14762TIP3    H165777   1.449   6.048  15.051  2.5284 -0.7612 -1.1346
14762TIP3    H265778   1.382   6.045  14.915  0.8420  0.7762 -0.3571
14763TIP3   OH265779   5.217   3.543   1.746 -0.0415  0.3872  0.2031
14763TIP3    H165780   5.195   3.633   1.722  0.2965 -0.0130 -1.6543
14763TIP3    H265781   5.294   3.522   1.694 -0.6157 -1.2576  0.0008
14764TIP3   OH265782   5.303   1.428  17.212  0.2659  0.1811 -0.4486
14764TIP3    H165783   5.268   1.461  17.129 -0.3202  1.9949  0.4923
14764TIP3    H265784   5.229   1.430  17.272  1.1423  0.7101  0.6297
14765TIP3   OH265785   0.670   5.213  14.387  0.2166  0.4745  0.0181
14765TIP3    H165786   0.728   5.232  14.314 -1.0099  1.1636 -0.7953
14765TIP3    H265787   0.721   5.156  14.444  1.4468  0.5323 -1.0043
14766TIP3   OH265788   0.299   5.672   4.471 -0.2909 -0.0108 -0.3892
14766TIP3    H165789   0.288   5.590   4.423  0.0098 -0.2326 -0.0818
14766TIP3    H265790   0.267   5.740   4.412  0.6757 -0.2113 -1.1408
14767TIP3   OH265791   0.557   4.261   0.379  0.1876  0.0337  0.0712
14767TIP3    H165792   0.563   4.239   0.472 -0.9233  1.6087  0.5544
14767TIP3    H265793   0.642   4.299   0.358 -0.1694  1.3676  0.9416
14768TIP3   OH265794   5.645   1.598  15.952 -0.2535  0.4976  0.4108
14768TIP3    H165795   5.713   1.659  15.922 -0.5814  1.3046  1.2985
14768TIP3    H265796   5.661   1.519  15.901  1.3810  0.6629  0.6170
14769TIP3   OH265797   0.196   2.879   2.081  1.1305  0.0098  0.5695
14769TIP3    H165798   0.220   2.972   2.078 -1.1844  0.5813 -1.8643
14769TIP3    H265799   0.270   2.835   2.038  1.9451  0.7782  1.1556
14770TIP3   OH265800   5.720   1.100   2.510  0.3784  0.2163  0.4910
14770TIP3    H165801   5.674   1.015   2.511 -1.0139  0.9614  1.6292
14770TIP3    H265802   5.656   1.162   2.546  0.9096  2.0089 -1.5660
14771TIP3   OH265803   3.666   1.451   0.409  0.5203  0.1640  0.2380
14771TIP3    H165804   3.657   1.358   0.429 -0.7309  0.2860  0.2594
14771TIP3    H265805   3.741   1.455   0.349  0.2437 -0.9188 -0.1936
14772TIP3   OH265806   5.848   6.672  13.019 -0.2319 -0.4029 -0.5920
14772TIP3    H165807   5.806   6.646  12.936 -0.2129 -1.1511 -0.3729
14772TIP3    H265808   5.792   6.633  13.086 -1.4038  1.9070 -0.1874
14773TIP3   OH265809   0.152   4.798   1.001 -0.2853 -0.2492  0.7628
14773TIP3    H165810   0.103   4.870   1.041 -1.5864 -0.8098  0.2027
14773TIP3    H265811   0.119   4.792   0.911  0.6351 -0.8049  0.4432
14774TIP3   OH265812   2.694   2.892  17.085  0.2503  0.0038 -0.0756
14774TIP3    H165813   2.733   2.835  17.019 -0.7059  0.8878 -1.4250
14774TIP3    H265814   2.637   2.834  17.135 -0.2189 -0.3769 -1.0333
14775TIP3   OH265815   0.520   6.213  13.139 -0.2445 -0.4940  0.0479
14775TIP3    H165816   0.480   6.293  13.172  0.0344 -0.4023  0.1643
14775TIP3    H265817   0.561   6.239  13.057  2.4552  0.1879  1.5549
14776TIP3   OH265818   0.341   2.972   3.901  0.6307  0.5249 -0.2810
14776TIP3    H165819   0.414   2.963   3.839  1.0731  1.4864  0.0868
14776TIP3    H265820   0.271   2.918   3.863  0.8504  1.2023 -1.6915
14777TIP3   OH265821   0.876   3.077  14.165  0.1786 -0.5441 -0.1795
14777TIP3    H165822   0.944   3.010  14.158 -1.1911 -1.8739 -0.9425
14777TIP3    H265823   0.906   3.147  14.106  1.6157 -0.4428  0.6325
14778TIP3   OH265824   2.304   4.158  11.921  0.0973  0.3478  0.6154
14778TIP3    H165825   2.298   4.226  11.854  0.9394 -1.8138 -1.7726
14778TIP3    H265826   2.357   4.196  11.990  0.3203  2.2157 -0.5535
14779TIP3   OH265827   2.679   0.012   4.933 -0.0777 -0.1361 -1.1603
14779TIP3    H165828   2.694   0.089   4.987  0.5569 -0.3754 -0.9859
14779TIP3    H265829   2.584  -0.001   4.934 -0.1658  0.5178 -1.0258
14780TIP3   OH265830   1.794   0.370  13.367  0.3148  0.6962 -0.0250
14780TIP3    H165831   1.805   0.354  13.461 -1.9214 -0.5945  0.0675
14780TIP3    H265832   1.703   0.345  13.349 -0.2628  3.9016 -1.9365
14781TIP3   OH265833   5.897   5.206   0.625 -0.1826  0.1971 -0.1739
14781TIP3    H165834   5.821   5.177   0.675 -0.4835 -0.2773 -0.8981
14781TIP3    H265835   5.929   5.283   0.672 -0.2313 -0.4654  0.9648
14782TIP3   OH265836   3.998   0.537   4.309 -0.8955  0.1258  0.0363
14782TIP3    H165837   4.023   0.609   4.368 -0.6426  0.9701 -1.0881
14782TIP3    H265838   4.041   0.460   4.346  0.1365  0.8453  0.3561
14783TIP3   OH265839   3.555   3.293  11.288 -0.6461 -0.1171  0.3751
14783TIP3    H165840   3.465   3.268  11.267 -1.2064  0.5899  1.8546
14783TIP3    H265841   3.575   3.245  11.369  1.0242 -1.8481 -1.0363
14784TIP3   OH265842   2.406   1.512   6.362  0.1493 -0.2379  0.1865
14784TIP3    H165843   2.496   1.479   6.366  0.7007  1.2002 -0.0823
14784TIP3    H265844   2.365   1.478   6.442  1.2893  0.1035  0.9306
14785TIP3   OH265845   1.805   2.236   3.588  0.5045 -0.6522 -0.2973
14785TIP3    H165846   1.821   2.258   3.497  0.4510  1.1057  0.0965
14785TIP3    H265847   1.888   2.255   3.632  0.7071 -2.0243 -0.0640
14786TIP3   OH265848   4.576   2.473  16.854 -0.5416 -0.4053 -0.4679
14786TIP3    H165849   4.658   2.497  16.898  1.1460 -0.7524 -3.3357
14786TIP3    H265850   4.526   2.427  16.921  1.5537 -0.0778  1.3883
14787TIP3   OH265851   2.738   6.484   2.395 -0.0304  0.2611 -0.0683
14787TIP3    H165852   2.738   6.478   2.491 -0.4994  1.1493 -0.0067
14787TIP3    H265853   2.730   6.393   2.366 -0.2536  0.0123  0.7396
14788TIP3   OH265854   6.172   1.691   4.274 -0.0221 -0.1848 -0.6509
14788TIP3    H165855   6.123   1.649   4.344  0.5002  0.8498  0.3573
14788TIP3    H265856   6.256   1.644   4.271  0.3877  0.4843  0.1740
14789TIP3   OH265857   6.424   6.069  17.167 -0.1295 -0.2822  0.5755
14789TIP3    H165858   6.508   6.113  17.178  0.8461 -1.6653 -1.0768
14789TIP3    H265859   6.442   5.977  17.186 -1.4920 -0.4429  1.1606
14790TIP3   OH265860   2.935   4.924   2.199 -0.0526 -0.3549  0.0743
14790TIP3    H165861   2.917   5.008   2.157 -1.7987  0.1764  1.7738
14790TIP3    H265862   2.853   4.875   2.191  0.1872 -0.9554  1.1942
14791TIP3   OH265863   6.535   0.399  12.784  0.0394  0.0295 -0.4452
14791TIP3    H165864   6.575   0.339  12.721 -1.9919 -0.4995 -1.2719
14791TIP3    H265865   6.496   0.468  12.730  0.1380  0.7346  0.3683
14792TIP3   OH265866   2.245   3.835   3.443  0.0226 -0.0162 -0.3083
14792TIP3    H165867   2.315   3.770   3.431  1.1919  0.8958  1.3728
14792TIP3    H265868   2.249   3.889   3.364  1.2778  0.0902 -0.1838
14793TIP3   OH265869   3.030   3.984   1.261  0.5289 -0.2509  0.4621
14793TIP3    H165870   3.034   4.008   1.354  1.1565  1.0852  0.1111
14793TIP3    H265871   3.041   3.889   1.260  1.3020 -0.1853  1.7071
14794TIP3   OH265872   2.785   1.111   3.663 -0.3381 -0.3677 -0.3292
14794TIP3    H165873   2.769   1.066   3.580  0.0792 -0.1375 -0.5329
14794TIP3    H265874   2.880   1.122   3.668 -0.4501  0.7696 -0.4332
14795TIP3   OH265875   2.346   0.154   1.304 -0.6919  0.8872  0.3346
14795TIP3    H165876   2.361   0.127   1.213 -0.9587 -1.7171  1.0301
14795TIP3    H265877   2.362   0.249   1.303 -0.2741  0.8454 -2.3280
14796TIP3   OH265878   3.896   0.940   3.064 -0.5508 -0.0278 -0.0586
14796TIP3    H165879   3.822   0.899   3.109  0.4686  0.0948  1.7755
14796TIP3    H265880   3.962   0.871   3.060  0.0188  0.5033  0.2249
14797TIP3   OH265881   2.057   1.135  12.100  0.2826 -0.1741 -0.2862
14797TIP3    H165882   2.054   1.170  12.189  0.7096  0.3107 -0.4517
14797TIP3    H265883   2.145   1.157  12.069  0.9021 -2.2383 -0.0745
14798TIP3   OH265884   3.469   4.120  15.818 -0.4000 -0.0601 -0.8076
14798TIP3    H165885   3.492   4.087  15.905 -0.2692 -1.5585 -1.3921
14798TIP3    H265886   3.409   4.055  15.783  2.7301 -1.6469 -3.4638
14799TIP3   OH265887   5.581   1.213   4.804 -0.3054  0.8364 -0.1376
14799TIP3    H165888   5.579   1.127   4.761 -2.2430  1.1683 -0.7315
14799TIP3    H265889   5.589   1.193   4.897 -2.0643 -0.0393 -0.1536
14800TIP3   OH265890   2.360   5.964  16.113  0.0631  0.3383  0.4106
14800TIP3    H165891   2.369   6.050  16.154 -0.0034  0.3272  0.4489
14800TIP3    H265892   2.324   5.908  16.182 -2.7787  0.9923 -0.4937
14801TIP3   OH265893   1.200   0.990   4.275 -0.2794  0.8008  0.0998
14801TIP3    H165894   1.265   1.000   4.205  0.8243  0.0080  0.9878
14801TIP3    H265895   1.216   1.065   4.333 -1.5024  1.7171 -0.7215
14802TIP3   OH265896   5.102   0.087  11.094  0.1557  0.3684  0.3498
14802TIP3    H165897   5.083   0.168  11.047  0.7739  0.3918  0.1382
14802TIP3    H265898   5.158   0.115  11.167 -1.4496  0.4547  1.5782
14803TIP3   OH265899   5.457   0.768  12.847  0.4148 -0.3280 -0.8896
14803TIP3    H165900   5.492   0.852  12.877 -0.6502 -0.3353  0.4636
14803TIP3    H265901   5.440   0.719  12.928  0.1883 -1.5123 -1.6295
14804TIP3   OH265902   1.420   2.192   1.845 -0.1236 -0.3220  0.6233
14804TIP3    H165903   1.500   2.153   1.810  0.5739  0.4507  1.3342
14804TIP3    H265904   1.400   2.263   1.785  0.4321  0.2730  1.1248
14805TIP3   OH265905   6.686   3.747   0.958  0.1663 -0.7201 -0.5917
14805TIP3    H165906   6.612   3.798   0.925 -1.2950 -3.4740 -1.7882
14805TIP3    H265907   6.710   3.691   0.884  1.2192 -2.2687  0.8923
14806TIP3   OH265908   2.713   3.216  12.034 -0.5013 -0.4458 -0.2693
14806TIP3    H165909   2.656   3.291  12.051  0.1741  0.5794 -2.3116
14806TIP3    H265910   2.802   3.251  12.040 -0.1801 -1.0671 -1.2730
14807TIP3   OH265911   3.810   5.068  16.519  0.3603 -0.2812 -0.4543
14807TIP3    H165912   3.715   5.080  16.523  0.4620  0.6532 -0.8029
14807TIP3    H265913   3.826   4.991  16.574 -0.7692 -1.4508 -1.7137
14808TIP3   OH265914   3.916   4.451  14.052  0.1109  0.5760  0.5087
14808TIP3    H165915   3.863   4.527  14.029 -0.1651  0.4582  0.7573
14808TIP3    H265916   3.972   4.481  14.123 -1.8750 -0.1972  2.4668
14809TIP3   OH265917   3.487   6.440  14.703 -0.2490  0.0118 -0.3596
14809TIP3    H165918   3.562   6.390  14.736 -0.5443  0.3097  0.7935
14809TIP3    H265919   3.457   6.491  14.779 -1.9025 -0.4635 -0.6542
14810TIP3   OH265920   4.657   3.462  12.228 -0.2227  0.0879  0.2884
14810TIP3    H165921   4.751   3.477  12.212 -0.1782 -3.5761 -3.8155
14810TIP3    H265922   4.616   3.544  12.199  1.4652  0.3745 -1.4482
14811TIP3   OH265923   6.096   2.838  13.314 -0.4289  0.1817 -0.1038
14811TIP3    H165924   6.011   2.875  13.335 -0.8481 -0.6039 -0.3919
14811TIP3    H265925   6.159   2.903  13.345 -1.1741  1.6892 -1.6630
14812TIP3   OH265926   0.409   3.335   4.213 -0.7423 -0.0022  0.2549
14812TIP3    H165927   0.346   3.378   4.271  1.8415  1.0439  2.4019
14812TIP3    H265928   0.391   3.242   4.224 -0.7922  0.2033  2.2367
14813TIP3   OH265929   4.122   2.198   0.385 -0.3163  0.2558  0.4452
14813TIP3    H165930   4.029   2.174   0.379 -0.2884 -0.3017  2.0342
14813TIP3    H265931   4.162   2.127   0.435  1.4532 -0.7668 -2.3065
14814TIP3   OH265932   2.521   3.587   0.204  0.1562  0.2639 -0.1362
14814TIP3    H165933   2.467   3.508   0.195 -0.8641  1.0362 -0.9603
14814TIP3    H265934   2.606   3.561   0.168  0.4507 -1.0461  1.4315
14815TIP3   OH265935   3.687   3.407   2.623  0.0177 -0.3754  0.4352
14815TIP3    H165936   3.737   3.395   2.542  1.6489 -1.1045  1.5315
14815TIP3    H265937   3.678   3.502   2.632  1.4167 -0.2252  0.3419
14816TIP3   OH265938   5.798   6.818   3.798  0.2776  0.2885 -0.6815
14816TIP3    H165939   5.730   6.884   3.784  1.2579  1.5743  0.4929
14816TIP3    H265940   5.866   6.864   3.847  1.6210 -1.2093 -1.1016
14817TIP3   OH265941   6.325   6.527   4.737 -0.0496  0.5413  0.1078
14817TIP3    H165942   6.306   6.454   4.796 -1.7912  1.7156  1.0366
14817TIP3    H265943   6.245   6.537   4.686  1.0177  0.3143 -1.6586
14818TIP3   OH265944   1.818   5.998   1.873 -0.5125  0.0813  0.1921
14818TIP3    H165945   1.885   6.063   1.852  0.1027 -0.3060  0.9239
14818TIP3    H265946   1.799   5.954   1.790 -0.9969  1.2508 -0.3207
14819TIP3   OH265947   5.975   0.352  16.217 -0.4124 -0.0259  1.0598
14819TIP3    H165948   5.891   0.395  16.232 -0.7327 -0.4506  0.4866
14819TIP3    H265949   6.038   0.424  16.211 -1.2788  0.5285 -2.1449
14820TIP3   OH265950   5.036   3.474  14.183  0.3655  0.0564 -0.5137
14820TIP3    H165951   5.003   3.389  14.155  0.5198  0.3431 -1.5972
14820TIP3    H265952   5.089   3.455  14.260 -0.0138 -0.7619 -0.4506
14821TIP3   OH265953   1.757   4.688  15.476 -0.0932  0.0298 -0.1493
14821TIP3    H165954   1.846   4.667  15.503 -0.6631  0.4015  2.1206
14821TIP3    H265955   1.765   4.713  15.384  2.1761  0.3856  0.1162
14822TIP3   OH265956   4.083   0.568   5.804  0.2894  0.3560  0.3390
14822TIP3    H165957   4.154   0.632   5.805  0.5774  0.0277  1.4733
14822TIP3    H265958   4.125   0.486   5.831 -0.5172  0.1544  1.0017
14823TIP3   OH265959   1.565   1.061   3.364  0.3034 -0.4271 -0.2142
14823TIP3    H165960   1.528   1.149   3.366  0.6798 -0.2980  1.3107
14823TIP3    H265961   1.620   1.056   3.442 -1.8993 -2.9516  1.2469
14824TIP3   OH265962   6.602   1.392   0.821 -0.4654 -0.1138 -0.8761
14824TIP3    H165963   6.688   1.414   0.785  0.2170 -0.1019  0.7030
14824TIP3    H265964   6.576   1.313   0.775  0.4254 -0.1571 -1.3193
14825TIP3   OH265965   1.102   0.781   3.088 -0.5617 -0.5779  0.0648
14825TIP3    H165966   1.130   0.800   2.999 -0.5216 -1.7515 -0.1926
14825TIP3    H265967   1.135   0.853   3.141  1.7628 -1.2397 -0.4372
14826TIP3   OH265968   0.495   5.752   1.099  0.0392 -0.2306  0.4770
14826TIP3    H165969   0.546   5.672   1.107  1.4521  0.5666 -0.4477
14826TIP3    H265970   0.409   5.729   1.134  0.7137 -1.8752  1.0906
14827TIP3   OH265971   0.763   2.781  16.265 -0.1140 -0.1010 -0.3432
14827TIP3    H165972   0.834   2.843  16.247  0.3816 -0.2646  0.9375
14827TIP3    H265973   0.699   2.797  16.196  1.4998 -0.4786 -1.9756
14828TIP3   OH265974   0.535   3.921  13.591 -0.3493 -0.0503  0.5469
14828TIP3    H165975   0.629   3.925  13.575 -0.1528  2.2289  2.0303
14828TIP3    H265976   0.521   3.834  13.628  0.8450 -1.1635 -1.5132
14829TIP3   OH265977   5.883   6.600   0.350 -0.3008  0.4702  0.3376
14829TIP3    H165978   5.823   6.536   0.389  0.3857 -0.7433 -0.5998
14829TIP3    H265979   5.828   6.677   0.336 -1.2516 -0.0656  1.0128
14830TIP3   OH265980   6.698   4.620  10.817 -0.0007 -0.3630  0.5391
14830TIP3    H165981   6.736   4.546  10.863 -0.7995 -0.9434  0.2939
14830TIP3    H265982   6.612   4.588  10.787  1.0219 -0.4755 -2.4929
14831TIP3   OH265983   5.855   4.869  12.092  0.2599 -0.2472 -0.1978
14831TIP3    H165984   5.929   4.912  12.136  0.8956 -1.6191  0.0924
14831TIP3    H265985   5.820   4.809  12.157 -0.7263 -0.0710 -0.5559
14832TIP3   OH265986   0.921   2.400  12.177 -0.2915  0.5850 -0.2701
14832TIP3    H165987   1.016   2.406  12.168  0.0510 -0.5995  2.0878
14832TIP3    H265988   0.886   2.471  12.123  1.9933  2.0344  0.1367
14833TIP3   OH265989   0.376   1.076   6.441  0.0272 -0.2357 -0.1765
14833TIP3    H165990   0.468   1.076   6.466  0.4034  0.9301 -1.5376
14833TIP3    H265991   0.363   0.992   6.397  0.8855  0.3368 -1.5544
14834TIP3   OH265992   4.536   6.386   2.469 -0.6952 -0.7154 -0.0815
14834TIP3    H165993   4.512   6.470   2.431  0.4968 -0.2812  0.1251
14834TIP3    H265994   4.505   6.321   2.405 -0.2442 -0.0683 -0.9680
14835TIP3   OH265995   1.877   2.433  15.440  0.2539  0.2624  0.6298
14835TIP3    H165996   1.960   2.408  15.482  0.0479 -1.1644  0.2243
14835TIP3    H265997   1.875   2.382  15.359 -0.6263  0.9433  0.2167
14836TIP3   OH265998   5.883   5.916   6.798 -0.3107 -0.1883 -0.1976
14836TIP3    H165999   5.879   5.881   6.709 -0.6181 -1.6250  0.3621
14836TIP3    H266000   5.809   5.976   6.804  1.0004  1.6416 -1.5960
14837TIP3   OH266001   6.001   1.052  11.653 -0.1558  0.1197  0.1340
14837TIP3    H166002   5.948   0.993  11.707  0.1893 -0.9951 -0.7480
14837TIP3    H266003   5.966   1.139  11.674 -0.3357 -0.3281  1.8067
14838TIP3   OH266004   4.246   5.218   0.048  0.5586 -0.0475 -0.6012
14838TIP3    H166005   4.171   5.278   0.044  0.5332 -0.1087 -0.9947
14838TIP3    H266006   4.207   5.131   0.056  0.5835 -0.1055 -1.1072
14839TIP3   OH266007   0.328   4.982   4.839 -0.1044  0.4189 -0.3384
14839TIP3    H166008   0.404   5.038   4.825  0.1453  0.7083  1.9116
14839TIP3    H266009   0.362   4.893   4.833  0.6250  0.5467  1.5122
14840TIP3   OH266010   1.672   6.327   0.971 -0.4496  0.0852  0.2626
14840TIP3    H166011   1.732   6.324   0.897  2.8313  0.7582  2.7717
14840TIP3    H266012   1.586   6.343   0.932  1.1385  0.1986 -3.3621
14841TIP3   OH266013   1.645   3.854   3.084 -0.5702 -0.2440  0.0804
14841TIP3    H166014   1.605   3.825   3.166 -0.9483 -2.1798 -0.7846
14841TIP3    H266015   1.573   3.855   3.021 -0.1586  0.6660 -0.3809
14842TIP3   OH266016   0.575   2.750   2.506 -0.1455  0.3877 -0.0943
14842TIP3    H166017   0.494   2.773   2.551 -0.5478 -1.9198  0.4566
14842TIP3    H266018   0.550   2.743   2.413  0.0191  2.2066 -0.2891
14843TIP3   OH266019   6.461   4.906  11.040  0.7150 -0.4399  0.2522
14843TIP3    H166020   6.546   4.896  10.998  0.3380 -1.8357 -0.2094
14843TIP3    H266021   6.424   4.818  11.041 -0.3433  0.0002  1.2686
14844TIP3   OH266022   0.117   4.615   4.691  0.2949  0.3489 -1.1388
14844TIP3    H166023   0.211   4.617   4.679  0.3335  1.5690 -0.6500
14844TIP3    H266024   0.105   4.611   4.786 -0.1474  0.4804 -1.1882
14845TIP3   OH266025   0.749   2.336  12.384  0.6148  0.2770  0.0315
14845TIP3    H166026   0.816   2.355  12.319 -1.8440 -0.2915 -2.7618
14845TIP3    H266027   0.740   2.241  12.382  0.1082  0.3018  0.8176
14846TIP3   OH266028   5.962   0.391   3.249 -0.4776 -0.5087 -0.2695
14846TIP3    H166029   5.922   0.343   3.322 -0.4748  2.0160  1.4595
14846TIP3    H266030   5.891   0.445   3.214 -0.1184 -0.6498 -1.2206
14847TIP3   OH266031   2.393   2.421  15.038 -0.2365 -0.7155 -0.2424
14847TIP3    H166032   2.476   2.420  15.085 -0.8154  1.8421  0.9559
14847TIP3    H266033   2.334   2.367  15.091  0.0648 -0.6702  0.1436
14848TIP3   OH266034   2.654   0.417  11.412 -0.8559  0.4907  0.3201
14848TIP3    H166035   2.714   0.381  11.347 -1.6725 -0.5472  0.1293
14848TIP3    H266036   2.573   0.367  11.401 -0.4962 -0.8621  3.2251
14849TIP3   OH266037   2.230   5.103   4.865  0.0662 -0.0877 -0.3444
14849TIP3    H166038   2.148   5.084   4.820 -0.2512  0.2423  0.0909
14849TIP3    H266039   2.290   5.131   4.795  0.3707 -2.0944 -0.9167
14850TIP3   OH266040   1.179   2.478   3.041  0.3306 -0.6201  0.0683
14850TIP3    H166041   1.151   2.435   2.960 -3.7816 -0.5825  1.3677
14850TIP3    H266042   1.145   2.422   3.110 -0.0061  1.6494  1.7792
14851TIP3   OH266043   1.805   0.736  12.747 -0.3224 -0.3968  0.1110
14851TIP3    H166044   1.828   0.650  12.782  1.3647 -0.3070 -0.7364
14851TIP3    H266045   1.842   0.798  12.810  1.4880 -0.2527 -1.0911
14852TIP3   OH266046   1.127   5.540  11.711 -0.1188  0.2794  0.3201
14852TIP3    H166047   1.116   5.469  11.648  2.6486  1.1043 -1.1654
14852TIP3    H266048   1.177   5.502  11.783  0.0208  0.3352  0.2518
14853TIP3   OH266049   2.312   3.581  12.284 -0.3562  0.3928  0.1684
14853TIP3    H166050   2.406   3.567  12.292 -0.2350  0.5781 -0.9515
14853TIP3    H266051   2.297   3.668  12.321 -0.0918  0.3669  0.3350
14854TIP3   OH266052   4.103   0.376   0.319  0.0224 -0.9473  0.2205
14854TIP3    H166053   4.044   0.306   0.347 -2.7580  0.9711 -0.6330
14854TIP3    H266054   4.127   0.353   0.230 -2.0591 -0.0985 -0.5759
14855TIP3   OH266055   5.141   4.938   1.790  0.2896 -0.6225  0.4526
14855TIP3    H166056   5.056   4.963   1.754 -0.3232 -0.6328  1.8521
14855TIP3    H266057   5.126   4.852   1.829  0.7740 -0.3387  1.2758
14856TIP3   OH266058   5.354   4.555  14.702  0.2398 -0.2085 -0.1866
14856TIP3    H166059   5.402   4.545  14.784  0.1717  0.5004 -0.0576
14856TIP3    H266060   5.305   4.473  14.694  0.4686 -0.4042  0.3341
14857TIP3   OH266061   1.684   5.597   1.980 -0.0733  0.0700 -0.1008
14857TIP3    H166062   1.666   5.505   1.959 -0.6477  0.1591  0.0007
14857TIP3    H266063   1.661   5.605   2.072  1.0745  0.0350  0.1963
14858TIP3   OH266064   3.718   6.002   4.741  0.3083 -0.2216 -0.0476
14858TIP3    H166065   3.753   5.984   4.829  0.4004  1.0693  0.2008
14858TIP3    H266066   3.768   5.945   4.683  1.1546 -0.1630  0.5985
14859TIP3   OH266067   2.025   4.323  15.200 -0.0182  0.3338 -0.1426
14859TIP3    H166068   1.975   4.244  15.219  0.3853 -0.0335 -0.5853
14859TIP3    H266069   1.976   4.393  15.242  0.4043 -0.3462  1.5260
14860TIP3   OH266070   0.165   1.006   6.186 -0.0697 -0.1625  0.2071
14860TIP3    H166071   0.241   0.972   6.233  0.9020 -0.6390 -1.6596
14860TIP3    H266072   0.090   0.964   6.228  0.7740 -0.5641  1.3391
14861TIP3   OH266073   2.280   0.347  13.506  0.3318  0.2161  0.1657
14861TIP3    H166074   2.308   0.361  13.596  0.5682 -1.3486  0.3539
14861TIP3    H266075   2.199   0.399  13.497  0.7142  0.9670  1.0364
14862TIP3   OH266076   3.401   2.766   3.281 -0.7679 -0.2350 -0.4060
14862TIP3    H166077   3.447   2.788   3.361 -1.4633  0.9597 -0.3298
14862TIP3    H266078   3.447   2.689   3.247  2.1033  1.6838 -1.0111
14863TIP3   OH266079   2.976   3.679  14.807 -0.3978 -0.3073  0.0035
14863TIP3    H166080   2.912   3.737  14.766 -0.5594 -1.0677 -0.8590
14863TIP3    H266081   3.055   3.687  14.753  0.9696  2.2164  2.2778
14864TIP3   OH266082   3.814   2.513   0.003 -0.0349 -0.0963  0.1019
14864TIP3    H166083   3.789   2.489  -0.086  0.3725 -0.1279 -0.0045
14864TIP3    H266084   3.822   2.429   0.049  1.5477 -0.1824 -0.3162
14865TIP3   OH266085   2.643   2.857  11.564  0.1545  0.6491  0.2883
14865TIP3    H166086   2.558   2.851  11.519  0.4547  0.7724 -0.2967
14865TIP3    H266087   2.621   2.889  11.651 -0.3069  1.6267 -0.1817
14866TIP3   OH266088   6.201   0.365  16.847  0.4726 -0.5043 -0.0294
14866TIP3    H166089   6.179   0.272  16.856 -0.9620 -0.0881  1.0524
14866TIP3    H266090   6.173   0.404  16.930  0.5302  0.9937 -0.6949
14867TIP3   OH266091   0.838   3.883  15.948  0.1390 -0.2694 -1.3154
14867TIP3    H166092   0.921   3.923  15.924 -0.1512  1.1727  0.0016
14867TIP3    H266093   0.772   3.933  15.901 -0.1030 -0.3367 -1.0532
14868TIP3   OH266094   2.519   6.107  10.902  0.0690  0.5744 -0.3016
14868TIP3    H166095   2.553   6.065  10.822 -0.8562  3.6243 -2.3616
14868TIP3    H266096   2.587   6.170  10.926  0.1703 -0.0709  1.1786
14869TIP3   OH266097   2.667   6.725   4.481 -0.2137 -0.7141 -0.1560
14869TIP3    H166098   2.576   6.700   4.497 -0.1836  0.1249  1.4004
14869TIP3    H266099   2.677   6.810   4.522  0.9161 -0.1666 -1.5062
14870TIP3   OH266100   3.038   4.186   4.580  0.5405 -0.2306  0.7204
14870TIP3    H166101   3.038   4.269   4.627  1.2021  0.0298  0.2830
14870TIP3    H266102   3.101   4.200   4.508 -0.4544 -0.6128 -0.2321
14871TIP3   OH266103   2.514   1.025  16.436  0.0560  0.1490 -0.1144
14871TIP3    H166104   2.438   1.075  16.466 -1.1372 -1.4571 -0.3353
14871TIP3    H266105   2.516   1.039  16.341 -0.4052 -0.3705 -0.2044
14872TIP3   OH266106   1.387   4.775  14.540  0.4598 -0.1931  0.2580
14872TIP3    H166107   1.393   4.810  14.629  1.2197  0.0654  0.1084
14872TIP3    H266108   1.359   4.850  14.487 -1.6349 -0.7459  0.5288
14873TIP3   OH266109   5.502   4.287   2.515  0.1157 -0.3442  0.7920
14873TIP3    H166110   5.506   4.201   2.474  2.2897  0.9140 -1.7777
14873TIP3    H266111   5.419   4.324   2.486  2.1249  0.9976 -3.6601
14874TIP3   OH266112   3.245   4.255   4.383  0.1694  0.2590 -0.5704
14874TIP3    H166113   3.316   4.298   4.431  0.4146 -0.6722 -0.0932
14874TIP3    H266114   3.288   4.213   4.308 -0.0680  0.8048 -1.0219
14875TIP3   OH266115   3.113   1.047   4.773  0.1466 -0.2565  0.2063
14875TIP3    H166116   3.191   0.991   4.763  0.2368 -0.0381 -0.3604
14875TIP3    H266117   3.056   1.020   4.701 -0.2610 -0.3438  0.5621
14876TIP3   OH266118   2.427   2.887  12.389 -0.3596  0.0108  0.4850
14876TIP3    H166119   2.424   2.982  12.383 -0.5121 -0.1554 -2.5299
14876TIP3    H266120   2.520   2.865  12.391 -0.3080  0.1585 -0.1974
14877TIP3   OH266121   4.381   6.100  13.905  0.7905  0.2384  0.8127
14877TIP3    H166122   4.403   6.114  13.813 -2.7696 -2.0737 -0.4900
14877TIP3    H266123   4.339   6.182  13.932 -0.1150  0.1491 -0.2886
14878TIP3   OH266124   2.411   3.262  14.397 -0.0169  0.3319  0.2269
14878TIP3    H166125   2.456   3.199  14.339  0.3655 -0.9452  1.8664
14878TIP3    H266126   2.480   3.294  14.455 -0.6538  0.6143  0.8234
14879TIP3   OH266127   1.097   2.855  13.878 -0.2241 -0.3589  0.4120
14879TIP3    H166128   1.069   2.873  13.968  0.1105  1.2865  0.2004
14879TIP3    H266129   1.046   2.915  13.824  0.6239 -0.3021 -0.3511
14880TIP3   OH266130   5.001   2.601  16.477  1.1813 -0.7145  0.1053
14880TIP3    H166131   4.928   2.586  16.417  1.0183  0.1232  0.0941
14880TIP3    H266132   4.969   2.568  16.561 -0.3113  2.2358  0.7612
14881TIP3   OH266133   5.098   6.740  15.875  0.0959 -0.1722  0.1672
14881TIP3    H166134   5.090   6.778  15.962  0.2080  0.1495  0.0347
14881TIP3    H266135   5.032   6.786  15.822 -0.5554 -0.9530  0.2865
14882TIP3   OH266136   3.979   4.845  11.920 -0.0325  0.5120  0.2701
14882TIP3    H166137   4.016   4.927  11.951  1.4178 -0.1655  0.4051
14882TIP3    H266138   3.992   4.784  11.992 -0.4174 -0.0178 -0.1036
14883TIP3   OH266139   4.342   3.956  15.340  0.8371  0.4390 -0.2508
14883TIP3    H166140   4.352   3.968  15.246  1.0682 -1.2733 -0.4622
14883TIP3    H266141   4.415   4.005  15.378  2.4386 -1.2252 -1.1210
14884TIP3   OH266142   5.448   1.770   1.031 -0.0365 -0.3096  0.0841
14884TIP3    H166143   5.513   1.741   0.967  0.1469 -2.2865  1.1447
14884TIP3    H266144   5.495   1.833   1.085  0.6055 -0.7145  0.0041
14885TIP3   OH266145   1.946   0.736   0.663 -0.4224 -0.8267  0.5997
14885TIP3    H166146   1.952   0.643   0.685 -0.8693 -1.0976 -0.3760
14885TIP3    H266147   2.029   0.773   0.692 -0.3924 -1.4603  1.3295
14886TIP3   OH266148   4.550   5.376   2.409 -0.4053 -0.2110  0.0427
14886TIP3    H166149   4.543   5.420   2.325 -2.2480 -1.1862 -0.3405
14886TIP3    H266150   4.505   5.433   2.471 -0.2919 -0.1712  0.0878
14887TIP3   OH266151   5.151   5.388   6.366  0.0584 -0.2878 -0.1164
14887TIP3    H166152   5.246   5.378   6.365 -0.1038 -2.2490  1.4776
14887TIP3    H266153   5.117   5.302   6.342 -1.3171  0.2215 -0.0514
14888TIP3   OH266154   4.662   6.109   4.496 -0.8550  0.1156  0.4522
14888TIP3    H166155   4.676   6.200   4.471  1.7364 -0.1382  0.8604
14888TIP3    H266156   4.613   6.114   4.578 -1.2316  1.1196  0.1691
14889TIP3   OH266157   4.380   0.690  15.990 -0.0293 -0.3670 -0.2622
14889TIP3    H166158   4.293   0.719  16.017 -0.0015 -1.5259  1.0941
14889TIP3    H266159   4.370   0.668  15.897 -1.1094 -0.2493 -0.1799
14890TIP3   OH266160   3.438   5.618   1.683  0.2162 -0.8008 -0.0419
14890TIP3    H166161   3.527   5.584   1.680  0.5037  0.0311 -1.2860
14890TIP3    H266162   3.397   5.587   1.603  0.3024  1.2176 -0.9046
14891TIP3   OH266163   3.286   5.026   2.752 -0.1887 -0.1373  0.9715
14891TIP3    H166164   3.361   4.980   2.791  0.1667 -0.6274 -0.2507
14891TIP3    H266165   3.293   5.116   2.784  0.4184 -0.3912  1.5649
14892TIP3   OH266166   1.463   2.174  11.986 -0.5447 -0.3799  0.3320
14892TIP3    H166167   1.461   2.151  12.079 -0.1011 -0.8419  0.2342
14892TIP3    H266168   1.375   2.154  11.955 -0.1775 -1.9440  0.2614
14893TIP3   OH266169   3.039   3.026   5.604  0.3440  0.4205 -0.0540
14893TIP3    H166170   3.097   3.095   5.637  1.1196  0.1273 -0.7734
14893TIP3    H266171   3.083   2.995   5.524 -2.2086  2.1376 -2.2057
14894TIP3   OH266172   3.996   3.978  11.866 -0.5846 -0.4564 -0.0755
14894TIP3    H166173   4.032   4.062  11.894 -0.1742 -0.9398  0.8550
14894TIP3    H266174   3.925   4.001  11.806  0.7280  0.5212 -1.2908
14895TIP3   OH266175   2.407   2.942  15.233 -0.0981  0.4317 -0.1276
14895TIP3    H166176   2.428   2.905  15.318 -1.2520  1.0365  0.4284
14895TIP3    H266177   2.433   2.875  15.170  2.5407  0.7331  0.5785
14896TIP3   OH266178   4.691   2.459  14.919 -0.5008  0.1131  0.2936
14896TIP3    H166179   4.772   2.423  14.884 -0.6722  1.3362 -1.4089
14896TIP3    H266180   4.635   2.383  14.934  0.5451 -0.6408  0.4432
14897TIP3   OH266181   6.727   1.022  17.059  0.3583  0.1320  0.5001
14897TIP3    H166182   6.782   1.014  17.137 -1.3177 -0.3979  1.6637
14897TIP3    H266183   6.679   1.103  17.073  1.2859  0.9223 -0.8157
14898TIP3   OH266184   6.584   0.203  11.733  0.2434 -0.1717 -0.4076
14898TIP3    H166185   6.674   0.223  11.708  0.3274 -1.3113 -1.0598
14898TIP3    H266186   6.589   0.115  11.771 -0.6498 -0.3724 -0.7495
14899TIP3   OH266187   0.470   3.316   1.120  0.2306 -0.5904 -0.1190
14899TIP3    H166188   0.385   3.277   1.139 -0.5011  0.8750 -0.3611
14899TIP3    H266189   0.511   3.255   1.058 -0.5999 -1.3342  0.0563
14900TIP3   OH266190   1.425   0.645  12.719  0.0135  0.1584  0.3932
14900TIP3    H166191   1.500   0.687  12.679  1.2305 -1.7913  0.5566
14900TIP3    H266192   1.433   0.552  12.695 -2.3837 -0.0736  0.3295
14901TIP3   OH266193   3.041   2.080   1.331  0.2838  0.0348  0.0569
14901TIP3    H166194   3.041   2.065   1.426 -0.4441  1.5100  0.2951
14901TIP3    H266195   2.959   2.126   1.314  1.0603  1.0200 -1.0891
14902TIP3   OH266196   3.920   0.239  13.381  0.5007 -0.0159  0.0832
14902TIP3    H166197   3.990   0.175  13.370  0.9966 -0.1938  3.7164
14902TIP3    H266198   3.965   0.323  13.388  0.5771 -0.2713  3.7828
14903TIP3   OH266199   1.275   3.648  11.137 -0.1340  0.0776 -0.2130
14903TIP3    H166200   1.281   3.553  11.149  0.0214  0.3238  2.0083
14903TIP3    H266201   1.328   3.684  11.209  0.3183  1.8333 -1.4077
14904TIP3   OH266202   1.293   0.398  11.754  0.5642  0.2856  0.2435
14904TIP3    H166203   1.276   0.439  11.669  0.9968 -0.6970 -0.3245
14904TIP3    H266204   1.302   0.305  11.734  2.7194  0.2995  1.0569
14905TIP3   OH266205   3.636   1.201  13.626  0.1639 -0.2348 -0.1001
14905TIP3    H166206   3.718   1.233  13.664 -0.5464 -1.6125  2.6938
14905TIP3    H266207   3.621   1.116  13.668 -1.9908 -0.6530 -1.6064
14906TIP3   OH266208   5.995   4.718  15.083 -0.0281 -0.1635 -0.4462
14906TIP3    H166209   5.968   4.635  15.043 -0.8146  0.2742 -0.8133
14906TIP3    H266210   6.072   4.745  15.032  1.2619 -1.5152  0.7422
14907TIP3   OH266211   2.601   2.366  14.544 -0.1888 -0.0881  0.4547
14907TIP3    H166212   2.594   2.315  14.625  1.3826 -1.1185 -0.0208
14907TIP3    H266213   2.688   2.405  14.547 -0.8167  1.3904  0.1101
14908TIP3   OH266214   1.961   0.886   2.602  0.3586  0.2283  0.4758
14908TIP3    H166215   1.894   0.873   2.670 -1.6903  1.7836 -1.1848
14908TIP3    H266216   2.043   0.861   2.645 -1.2130 -1.3572  2.6856
14909TIP3   OH266217   5.065   5.815  15.047  0.6330 -0.3597 -0.6463
14909TIP3    H166218   5.102   5.846  15.129  0.2343  0.3098 -0.7100
14909TIP3    H266219   5.002   5.748  15.072 -1.6196  1.8475 -0.1582
14910TIP3   OH266220   0.742   1.043   6.360  0.0909 -0.1698  0.8559
14910TIP3    H166221   0.719   1.134   6.339  0.0268 -0.1926  0.8255
14910TIP3    H266222   0.740   0.998   6.276  1.5306  0.1006  0.6686
14911TIP3   OH266223   0.319   3.526  14.587  0.4225  0.3880 -0.0599
14911TIP3    H166224   0.267   3.475  14.524 -0.8485  1.0044  0.4854
14911TIP3    H266225   0.400   3.476  14.597 -1.8664 -3.0167  2.5216
14912TIP3   OH266226   1.745   1.001   6.386  0.3988 -0.0472 -0.4100
14912TIP3    H166227   1.733   0.933   6.453  0.0570  1.5308  1.1676
14912TIP3    H266228   1.838   1.022   6.390  0.1874  0.7800  0.3136
14913TIP3   OH266229   0.459   1.706   0.274 -0.1833 -0.0304 -0.0083
14913TIP3    H166230   0.528   1.710   0.207 -0.6870 -0.2206 -0.5454
14913TIP3    H266231   0.497   1.653   0.344  0.9005  1.3940  0.5157
14914TIP3   OH266232   0.261   2.065   4.157  0.1630 -0.0231 -0.2917
14914TIP3    H166233   0.301   2.147   4.185  1.0055 -0.1172 -1.1992
14914TIP3    H266234   0.313   2.037   4.082 -0.9462 -0.7023 -0.8222
14915TIP3   OH266235   3.557   0.772   5.192 -0.4446 -0.1130 -0.3339
14915TIP3    H166236   3.622   0.813   5.135  1.8549 -2.0577  0.7764
14915TIP3    H266237   3.539   0.687   5.151  0.4433 -1.0848  1.2475
14916TIP3   OH266238   3.076   0.245  16.562  0.3757 -0.2904  0.2353
14916TIP3    H166239   3.041   0.318  16.613  1.9397  1.8282 -1.6123
14916TIP3    H266240   3.128   0.195  16.624 -0.9439 -0.0209  1.5989
14917TIP3   OH266241   3.949   0.142   3.818 -0.5813 -0.3727  0.5132
14917TIP3    H166242   3.999   0.224   3.817 -1.7705  0.3757 -2.0528
14917TIP3    H266243   3.863   0.166   3.782 -0.6811 -2.8871 -1.0244
14918TIP3   OH266244   3.012   1.705   3.670 -0.6749 -0.0934  0.2818
14918TIP3    H166245   2.925   1.725   3.705 -0.4412  0.0578  0.7755
14918TIP3    H266246   2.996   1.639   3.602 -0.7701 -2.8560  2.9032
14919TIP3   OH266247   5.899   0.782  12.303 -0.1019  0.0180  0.0676
14919TIP3    H166248   5.979   0.821  12.268  0.1296 -1.0447 -0.6227
14919TIP3    H266249   5.862   0.733  12.230 -0.0311 -1.5754  1.0725
14920TIP3   OH266250   6.256   0.550   6.132  0.2786 -0.8743  0.3067
14920TIP3    H166251   6.281   0.596   6.212  0.7108 -0.2635 -0.1771
14920TIP3    H266252   6.329   0.565   6.072 -2.0730  2.5915 -1.8244
14921TIP3   OH266253   2.218   0.206  12.139 -0.2931  0.0975  0.1476
14921TIP3    H166254   2.150   0.218  12.205  0.3165 -1.1802  1.0198
14921TIP3    H266255   2.247   0.116  12.150  0.8683  0.3374 -0.8615
14922TIP3   OH266256   5.539   1.810   4.175  0.1757  0.2121  0.3576
14922TIP3    H166257   5.594   1.817   4.097 -2.3804 -0.8401 -1.6007
14922TIP3    H266258   5.517   1.901   4.196  0.1547  0.4450 -0.6531
14923TIP3   OH266259   3.243   6.706   3.871 -0.5954 -0.1442  0.4531
14923TIP3    H166260   3.215   6.796   3.890 -5.0096 -1.5966  1.4821
14923TIP3    H266261   3.318   6.691   3.929  0.0920  2.7700  0.3979
14924TIP3   OH266262   2.174   6.349  16.948  0.5527 -0.0023 -0.2416
14924TIP3    H166263   2.124   6.279  16.904 -0.2857  1.2318 -1.2886
14924TIP3    H266264   2.226   6.303  17.014 -1.3557 -1.4363  0.3385
14925TIP3   OH266265   1.915   6.031  12.416 -0.3461 -0.0522  0.2368
14925TIP3    H166266   1.824   6.003  12.407 -0.1950 -0.8291  1.0243
14925TIP3    H266267   1.910   6.126  12.428 -0.9806  0.0380 -0.7353
14926TIP3   OH266268   4.296   2.378  11.174  0.7702 -0.0835  0.8676
14926TIP3    H166269   4.275   2.457  11.123 -1.5590  0.1301  2.0593
14926TIP3    H266270   4.333   2.411  11.256 -2.4707 -0.0214  2.4064
14927TIP3   OH266271   3.628   5.321  10.947 -0.6884 -0.5149  0.1029
14927TIP3    H166272   3.543   5.357  10.920  0.2781  1.9021  0.0859
14927TIP3    H266273   3.651   5.371  11.026  1.7570  0.5380 -1.1997
14928TIP3   OH266274   1.544   6.265   2.120 -0.0404  0.3498 -0.1467
14928TIP3    H166275   1.632   6.254   2.084 -0.1327  0.7870 -0.5052
14928TIP3    H266276   1.498   6.319   2.056 -0.5153  0.2766  0.1295
14929TIP3   OH266277   2.328   5.058  11.467 -0.0731  0.3546 -0.7622
14929TIP3    H166278   2.345   5.080  11.559 -0.5369  0.2871 -0.6589
14929TIP3    H266279   2.303   4.965  11.469 -0.4678  0.4583 -0.9126
14930TIP3   OH266280   4.868   5.279   3.122 -0.5602  0.1339 -0.4840
14930TIP3    H166281   4.940   5.264   3.062 -1.8796 -2.5251 -1.4729
14930TIP3    H266282   4.797   5.312   3.067  0.0823  3.6470  0.6197
14931TIP3   OH266283   1.969   3.443  16.976 -0.5862 -0.0299 -0.4744
14931TIP3    H166284   1.969   3.347  16.971 -2.5485  0.0111 -1.6035
14931TIP3    H266285   2.010   3.471  16.894 -0.9027  0.1093 -0.5847
14932TIP3   OH266286   4.165   2.748  12.056  0.3415  0.1963  0.1706
14932TIP3    H166287   4.116   2.725  11.978  0.6921  0.0414 -0.0059
14932TIP3    H266288   4.256   2.726  12.035  0.3209 -0.7022  0.9446
14933TIP3   OH266289   6.337   1.887   0.315  0.3570 -0.4094  0.4124
14933TIP3    H166290   6.392   1.965   0.329  1.1937 -0.9737  0.2896
14933TIP3    H266291   6.311   1.860   0.403  0.0497  0.0175  0.4545
14934TIP3   OH266292   3.533   0.502   0.772  0.0702  0.3972 -0.0043
14934TIP3    H166293   3.610   0.527   0.822 -2.0037  0.8549  3.0576
14934TIP3    H266294   3.564   0.498   0.681  3.7467  0.1757  1.1893
14935TIP3   OH266295   2.115   4.299   6.669  0.5522 -0.3113  0.1134
14935TIP3    H166296   2.125   4.393   6.652  2.6390 -0.4608  0.3733
14935TIP3    H266297   2.184   4.279   6.732 -1.3349 -1.5682  1.8663
14936TIP3   OH266298   5.346   0.366   4.394 -0.0366 -0.3586 -0.0188
14936TIP3    H166299   5.320   0.429   4.327 -0.5664 -0.0848  0.4388
14936TIP3    H266300   5.315   0.404   4.476 -0.6147 -1.3470  0.2329
14937TIP3   OH266301   3.618   0.198  16.319 -0.0852 -0.4736  0.2339
14937TIP3    H166302   3.651   0.112  16.343 -0.9428 -0.7844  0.3262
14937TIP3    H266303   3.696   0.252  16.305  0.4445 -0.4186  3.1718
14938TIP3   OH266304   0.262   5.520   4.798 -0.3184 -0.4131 -0.3258
14938TIP3    H166305   0.230   5.430   4.808 -0.0688 -0.2960  2.0114
14938TIP3    H266306   0.190   5.567   4.755  0.1500 -2.0502 -2.9495
14939TIP3   OH266307   0.780   1.874  17.048 -0.0813  0.5777 -0.5817
14939TIP3    H166308   0.754   1.841  16.962  0.2199 -0.4639 -0.2805
14939TIP3    H266309   0.875   1.866  17.050 -0.2016 -1.0789  0.4885
14940TIP3   OH266310   1.566   6.696  11.602 -0.2067 -0.0352 -0.4035
14940TIP3    H166311   1.521   6.778  11.581  1.9141  1.4165  0.4121
14940TIP3    H266312   1.568   6.694  11.698 -0.3734 -1.1108 -0.4218
14941TIP3   OH266313   6.096   3.547  15.292  0.2874 -0.1260  0.3585
14941TIP3    H166314   6.139   3.632  15.298 -1.0050  0.5083  0.8914
14941TIP3    H266315   6.123   3.511  15.208  1.2021  0.6115  0.3362
14942TIP3   OH266316   4.876   3.004   5.682 -0.5210 -0.1468  0.4088
14942TIP3    H166317   4.794   2.999   5.632 -1.3636 -2.6036  1.9628
14942TIP3    H266318   4.939   2.954   5.631 -1.1274 -1.8283  1.2598
14943TIP3   OH266319   1.042   1.239  15.966 -0.2183  0.4813  0.7388
14943TIP3    H166320   0.951   1.259  15.944 -0.1382 -0.2285 -0.2512
14943TIP3    H266321   1.088   1.238  15.882  0.1195 -2.0820  0.8966
14944TIP3   OH266322   5.589   0.239  16.209  0.3360  0.0591 -0.6587
14944TIP3    H166323   5.617   0.298  16.280 -1.8590 -0.0195  0.3191
14944TIP3    H266324   5.618   0.283  16.129  2.6448  0.2684  0.2422
14945TIP3   OH266325   6.817   4.974  13.885  0.2523  0.4304 -0.3121
14945TIP3    H166326   6.842   5.030  13.811 -0.0832  0.4122 -0.4402
14945TIP3    H266327   6.726   4.997  13.903 -0.0773 -0.5319 -0.7641
14946TIP3   OH266328   4.954   1.380   3.272 -0.9493  0.0169 -0.2593
14946TIP3    H166329   4.942   1.304   3.329 -0.1144  0.6706  0.8145
14946TIP3    H266330   4.892   1.445   3.305 -0.1528  0.5516  0.1985
14947TIP3   OH266331   0.670   6.080  15.486 -0.4204  0.0334 -0.1772
14947TIP3    H166332   0.577   6.097  15.470  0.1338  3.5837 -0.1378
14947TIP3    H266333   0.703   6.047  15.402 -1.6414 -1.0069 -0.2655
14948TIP3   OH266334   1.929   6.818  13.045  0.1394 -0.3007  0.1881
14948TIP3    H166335   1.913   6.868  12.965 -1.0348 -1.6666 -0.4432
14948TIP3    H266336   1.934   6.885  13.114 -3.6452  0.5970 -0.2921
14949TIP3   OH266337   2.637   0.190   5.479 -0.1304  0.5110 -0.1138
14949TIP3    H166338   2.643   0.118   5.415  1.5316  0.6803 -0.1943
14949TIP3    H266339   2.705   0.170   5.543  0.7121  2.2567 -0.4158
14950TIP3   OH266340   3.679   4.329  12.466  0.4538 -0.3229  0.2366
14950TIP3    H166341   3.752   4.279  12.432 -0.7065 -0.4407 -2.1645
14950TIP3    H266342   3.675   4.408  12.412 -1.7608 -0.7687 -0.3219
14951TIP3   OH266343   3.111   0.425   1.631 -0.5002 -0.2188 -0.1821
14951TIP3    H166344   3.141   0.490   1.695 -2.3982 -0.5314  1.0741
14951TIP3    H266345   3.029   0.461   1.597 -0.2919 -0.7924 -1.3182
14952TIP3   OH266346   2.687   4.348   5.347  0.2263  0.2320  0.6640
14952TIP3    H166347   2.653   4.263   5.375  0.6805 -0.0974  0.2459
14952TIP3    H266348   2.612   4.394   5.311 -0.0143 -0.0121  0.8565
14953TIP3   OH266349   2.080   0.711  10.730 -0.0575 -0.1880  0.1555
14953TIP3    H166350   1.990   0.719  10.762 -0.0076  2.5426 -0.3104
14953TIP3    H266351   2.086   0.775  10.659  1.8630 -1.3353 -0.7538
14954TIP3   OH266352   5.077   4.112   0.258  0.3953 -0.4085  0.2690
14954TIP3    H166353   5.109   4.119   0.348  1.6335 -1.6939 -0.0531
14954TIP3    H266354   5.135   4.168   0.207 -0.6574  0.7686  0.3310
14955TIP3   OH266355   5.879   3.253   5.279 -0.2089 -0.3148 -0.4562
14955TIP3    H166356   5.878   3.185   5.211  1.0124  0.9493 -1.7801
14955TIP3    H266357   5.832   3.327   5.240 -0.4104  0.0526  0.4799
14956TIP3   OH266358   5.461   2.466  11.730  0.2405  0.2934 -0.3615
14956TIP3    H166359   5.434   2.386  11.686  1.9566 -0.0287 -0.8805
14956TIP3    H266360   5.380   2.516  11.742 -0.9162 -1.7071  0.3958
14957TIP3   OH266361   2.572   0.023  13.351  0.1055  0.4634  0.4128
14957TIP3    H166362   2.479   0.044  13.340  0.3246  1.6838  0.8214
14957TIP3    H266363   2.614   0.058  13.273 -0.0056 -1.6107 -0.5941
14958TIP3   OH266364   3.773   5.980   5.037 -0.0143  0.1473  0.0759
14958TIP3    H166365   3.794   5.887   5.047  0.0016  0.1176 -0.2300
14958TIP3    H266366   3.846   6.025   5.080 -0.9634 -0.0131  1.8979
14959TIP3   OH266367   3.082   4.450   2.327  0.2067 -0.0386  0.1696
14959TIP3    H166368   3.114   4.394   2.398 -0.8784 -0.6286  0.2103
14959TIP3    H266369   3.021   4.510   2.370 -1.0075 -0.8736 -0.3687
14960TIP3   OH266370   1.333   6.647   5.268 -0.1226 -0.3169  0.2472
14960TIP3    H166371   1.363   6.557   5.282  2.3469  0.4299 -0.1223
14960TIP3    H266372   1.304   6.648   5.177  1.2004 -0.3722 -0.1814
14961TIP3   OH266373   4.227   1.444  10.430 -0.2803 -0.1698 -0.2084
14961TIP3    H166374   4.185   1.360  10.449  1.1189 -0.9712 -0.5678
14961TIP3    H266375   4.252   1.479  10.515  1.3151 -1.2887 -0.1925
14962TIP3   OH266376   3.424   6.537  16.072  0.0890  0.1435 -0.3326
14962TIP3    H166377   3.375   6.617  16.091 -1.3302 -0.3759 -1.6987
14962TIP3    H266378   3.358   6.476  16.041  1.3642 -1.1562 -0.5277
14963TIP3   OH266379   1.860   6.646  17.273 -0.7196 -0.6639  0.2320
14963TIP3    H166380   1.940   6.600  17.300  0.8213 -0.3159 -3.3541
14963TIP3    H266381   1.866   6.732  17.314  0.0869 -1.1334  1.1075
14964TIP3   OH266382   0.630   0.039   4.567 -0.3951  0.2117  1.0074
14964TIP3    H166383   0.665  -0.049   4.574  0.6339  0.6503  1.4542
14964TIP3    H266384   0.567   0.034   4.495 -0.1555 -0.8161  0.8597
14965TIP3   OH266385   6.730   5.160  14.464 -0.0995  0.2108  0.0528
14965TIP3    H166386   6.805   5.162  14.524  1.3557 -0.1151 -1.7036
14965TIP3    H266387   6.752   5.224  14.396 -0.4303 -1.3769 -1.5911
14966TIP3   OH266388   5.202   1.498   4.891 -0.4820  0.4732 -0.0224
14966TIP3    H166389   5.256   1.432   4.935  1.4447  1.2861 -1.0972
14966TIP3    H266390   5.169   1.554   4.961  0.0341 -0.0662  0.6557
14967TIP3   OH266391   6.284   2.477   2.403  0.0039  0.5566  0.4465
14967TIP3    H166392   6.260   2.387   2.378 -0.9747  1.3131 -1.4376
14967TIP3    H266393   6.366   2.493   2.356  0.2707  0.5979  0.9226
14968TIP3   OH266394   4.100   0.388   5.395 -0.6326 -0.1715  0.2635
14968TIP3    H166395   4.087   0.475   5.433 -2.0282  0.0220 -0.6161
14968TIP3    H266396   4.034   0.333   5.438  0.2817 -0.8125  0.8558
14969TIP3   OH266397   4.243   6.722   5.198  0.0937 -0.1722 -0.3915
14969TIP3    H166398   4.324   6.713   5.249  0.7567 -0.1491 -1.4207
14969TIP3    H266399   4.180   6.759   5.259  0.6634 -0.8411  0.6207
14970TIP3   OH266400   3.672   3.627   2.221 -0.2794 -0.1580  0.2154
14970TIP3    H166401   3.742   3.634   2.156 -1.5092  1.5696 -0.9856
14970TIP3    H266402   3.602   3.579   2.176 -1.1516  1.0789  0.2273
14971TIP3   OH266403   3.609   6.159  15.206  0.1056 -0.1825 -0.5495
14971TIP3    H166404   3.576   6.160  15.117  0.5939 -0.2277 -0.7339
14971TIP3    H266405   3.532   6.143  15.260 -0.1345 -0.5144 -0.9897
14972TIP3   OH266406   5.582   2.272  11.451 -0.2005 -0.4570  0.2249
14972TIP3    H166407   5.638   2.240  11.521 -0.5105 -1.6490 -0.0602
14972TIP3    H266408   5.535   2.194  11.420 -0.8343  0.2402 -0.5993
14973TIP3   OH266409   4.690   0.621   1.027  0.0086 -0.1187 -0.3347
14973TIP3    H166410   4.701   0.697   0.971 -0.6970 -0.0286 -0.3541
14973TIP3    H266411   4.621   0.570   0.985  0.9416 -1.1124 -0.6942
14974TIP3   OH266412   3.940   4.340  17.009  0.3165 -0.7757 -0.5771
14974TIP3    H166413   3.855   4.341  17.054  0.5816 -2.3010  0.0208
14974TIP3    H266414   3.997   4.395  17.064 -0.4717  0.8489 -1.3842
14975TIP3   OH266415   2.159   1.263  12.923  0.1736  0.5682 -0.3640
14975TIP3    H166416   2.164   1.317  13.002  1.9504 -0.7059  0.4385
14975TIP3    H266417   2.243   1.276  12.879  0.8953 -1.9737  0.1675
14976TIP3   OH266418   0.278   5.873   6.169  0.0917 -0.5733 -0.1496
14976TIP3    H166419   0.233   5.803   6.122 -0.6370 -0.3923  0.2558
14976TIP3    H266420   0.362   5.837   6.193 -0.2241 -1.2580 -0.0720
14977TIP3   OH266421   4.234   6.788  15.141 -0.2225  0.3713  0.5226
14977TIP3    H166422   4.222   6.695  15.123  1.9238 -0.0530  1.1012
14977TIP3    H266423   4.189   6.833  15.070 -2.7441 -1.0603  1.1647
14978TIP3   OH266424   2.264   5.974  14.013  0.0830 -0.2350  0.4756
14978TIP3    H166425   2.218   5.898  14.050 -2.1505  1.4382  1.2136
14978TIP3    H266426   2.342   5.983  14.068 -0.7184 -0.7095  1.7180
14979TIP3   OH266427   4.359   4.933  11.387  0.5755 -0.0543 -0.0016
14979TIP3    H166428   4.430   4.876  11.417  2.1619  2.1794  0.6569
14979TIP3    H266429   4.335   4.984  11.464 -0.5810  0.3967 -0.6534
14980TIP3   OH266430   1.451   4.770  17.242 -0.6702 -0.2714  0.8600
14980TIP3    H166431   1.375   4.717  17.266 -0.8270  0.5032  2.1089
14980TIP3    H266432   1.414   4.848  17.200 -0.5929  0.3468  1.9333
14981TIP3   OH266433   2.253   0.082   0.270  0.3227 -0.8056 -0.0531
14981TIP3    H166434   2.318   0.126   0.324 -0.7037  0.7013 -0.0024
14981TIP3    H266435   2.169   0.099   0.314 -0.4574 -0.0052 -1.7977
14982TIP3   OH266436   4.962   6.614  15.197  0.0791  0.2297  0.0791
14982TIP3    H166437   5.029   6.678  15.221 -0.8963  0.8394  1.2252
14982TIP3    H266438   4.890   6.631  15.257 -0.5147 -1.4266 -0.1483
14983TIP3   OH266439   6.635   5.640   1.935 -0.7073 -0.5144  0.4357
14983TIP3    H166440   6.592   5.623   2.019 -1.9817 -0.1299 -0.1201
14983TIP3    H266441   6.578   5.599   1.870  0.3918 -1.0051 -0.2326
14984TIP3   OH266442   5.040   0.245  16.940 -0.0038  0.2859  0.5064
14984TIP3    H166443   5.073   0.238  17.030 -1.4540 -1.0499  0.9573
14984TIP3    H266444   4.959   0.296  16.947  0.5042  1.2143 -0.2225
14985TIP3   OH266445   2.423   6.755  17.013 -0.0459  0.2006 -0.3196
14985TIP3    H166446   2.380   6.775  16.930 -0.8765 -2.7350 -0.6552
14985TIP3    H266447   2.354   6.717  17.067  0.3341  2.6346  2.0058
14986TIP3   OH266448   5.385   0.557  15.611 -0.4818  0.0353 -0.0479
14986TIP3    H166449   5.334   0.632  15.582  0.5454  1.0565  0.7160
14986TIP3    H266450   5.471   0.593  15.632  0.0061 -1.3412  0.4009
14987TIP3   OH266451   4.837   1.735  13.605  0.0076 -0.2538 -0.0696
14987TIP3    H166452   4.892   1.809  13.631  0.4041 -0.0950 -1.3278
14987TIP3    H266453   4.839   1.676  13.681  1.3795  0.0508  0.1452
14988TIP3   OH266454   4.853   5.364  16.449 -0.1597 -0.3671 -0.7356
14988TIP3    H166455   4.878   5.272  16.440 -0.9170 -0.7445  0.8650
14988TIP3    H266456   4.757   5.363  16.455 -0.2439  0.6182 -1.7766
14989TIP3   OH266457   0.317   2.243  14.440 -0.3897  0.3568 -0.1779
14989TIP3    H166458   0.309   2.339  14.443  0.3962  0.4980 -1.7067
14989TIP3    H266459   0.344   2.225  14.350  1.8414 -1.1332  0.7674
14990TIP3   OH266460   4.890   0.974  16.393  0.1696 -0.4449 -0.0456
14990TIP3    H166461   4.976   0.948  16.425  1.3496  0.9281 -1.9392
14990TIP3    H266462   4.894   1.070  16.389 -0.1982 -0.5091 -3.3797
14991TIP3   OH266463   4.256   6.220   2.522  0.1104 -0.4433  0.5866
14991TIP3    H166464   4.180   6.278   2.525  0.5350  0.1541 -0.0420
14991TIP3    H266465   4.319   6.260   2.582  1.0972  0.7452 -1.2245
14992TIP3   OH266466   0.765   0.110  11.845  0.1686  0.5280  0.3783
14992TIP3    H166467   0.740   0.078  11.932  0.9487 -1.9478 -0.2591
14992TIP3    H266468   0.711   0.188  11.832  0.5115  1.3355  3.3345
14993TIP3   OH266469   2.598   6.377  10.363 -0.1778 -0.0593  0.3115
14993TIP3    H166470   2.688   6.352  10.343  0.1206  0.6351  0.7575
14993TIP3    H266471   2.563   6.303  10.413  0.2898 -0.1338  0.5324
14994TIP3   OH266472   4.084   2.206   2.042  0.3218 -0.7036  0.1676
14994TIP3    H166473   4.155   2.268   2.060 -0.2143 -0.1000  0.2494
14994TIP3    H266474   4.122   2.142   1.982  0.4817  0.5195 -1.0641
14995TIP3   OH266475   4.269   2.489   4.046 -0.0483 -0.0035 -0.1378
14995TIP3    H166476   4.349   2.537   4.025 -0.1647 -0.8765 -2.8197
14995TIP3    H266477   4.299   2.413   4.096  0.8169 -0.4044 -1.2472
14996TIP3   OH266478   0.767   3.789   5.331  0.6282 -0.5163 -0.8410
14996TIP3    H166479   0.850   3.826   5.300  1.9739 -0.8755  2.1129
14996TIP3    H266480   0.728   3.859   5.383 -0.8349 -0.4370 -2.0308
14997TIP3   OH266481   5.136   0.769  12.131  0.2464 -0.2153  0.6608
14997TIP3    H166482   5.191   0.840  12.096 -0.0542 -0.0050  0.6145
14997TIP3    H266483   5.144   0.778  12.226 -0.8263  0.7003  0.6797
14998TIP3   OH266484   5.791   1.961   4.734 -0.1228  0.2284  0.5552
14998TIP3    H166485   5.731   2.030   4.760  0.2323  0.4054  0.9156
14998TIP3    H266486   5.749   1.879   4.762 -0.4490  0.3152  0.3097
14999TIP3   OH266487   0.014   5.980   6.478  0.5212  0.4882 -0.1311
14999TIP3    H166488  -0.069   6.007   6.438  1.1588  0.1873 -1.7059
14999TIP3    H266489  -0.010   5.914   6.542 -0.2711 -1.1749 -2.0893
15000TIP3   OH266490   5.866   0.450  11.163  0.1278 -0.5955  0.5800
15000TIP3    H166491   5.940   0.505  11.139 -0.4708 -0.4029 -0.9035
15000TIP3    H266492   5.905   0.377  11.211  0.9349  1.0197  2.4370
15001TIP3   OH266493   1.154   2.879   4.389  0.3440 -0.1419  0.2806
15001TIP3    H166494   1.125   2.811   4.327 -0.5634  0.8071 -0.3574
15001TIP3    H266495   1.204   2.831   4.455  2.1781 -1.0444 -1.7068
15002TIP3   OH266496   6.789   0.155  17.009  0.3614  0.3581  0.3265
15002TIP3    H166497   6.735   0.233  16.994  1.2886  0.7177 -1.3081
15002TIP3    H266498   6.763   0.124  17.095  0.9913  3.3033  1.6389
15003TIP3   OH266499   1.731   2.661  16.318 -0.2296 -0.8801 -0.5076
15003TIP3    H166500   1.768   2.576  16.293 -1.0381 -1.3153 -0.2584
15003TIP3    H266501   1.807   2.714  16.343  0.4576 -0.8715 -2.5707
15004TIP3   OH266502   4.258   1.934  16.777 -0.1253 -0.1757 -0.1916
15004TIP3    H166503   4.208   1.853  16.790  1.3624 -1.1064 -0.1644
15004TIP3    H266504   4.197   2.004  16.802 -0.2049 -1.4636  3.3991
15005TIP3   OH266505   2.547   6.650  12.725  0.1966 -0.3780 -0.9217
15005TIP3    H166506   2.457   6.682  12.715  0.2513 -0.0561 -0.3611
15005TIP3    H266507   2.574   6.681  12.811  0.6685 -0.9104 -0.8805
15006TIP3   OH266508   0.950   6.241  11.775  0.3385  0.3600  0.1188
15006TIP3    H166509   0.983   6.202  11.856  2.0202 -2.8349 -2.0178
15006TIP3    H266510   0.871   6.191  11.755 -1.0917  2.3277  0.6486
15007TIP3   OH266511   3.710   3.675   6.693 -0.6627  0.1561 -0.0050
15007TIP3    H166512   3.719   3.770   6.689  1.1048  0.0058 -0.2045
15007TIP3    H266513   3.799   3.642   6.681 -1.4035 -1.5634 -1.0350
15008TIP3   OH266514   0.835   4.565   1.422  0.3410  0.6316 -0.0721
15008TIP3    H166515   0.795   4.631   1.366 -0.6701  0.2420  0.1912
15008TIP3    H266516   0.839   4.486   1.369  0.9284  0.7081 -0.1539
15009TIP3   OH266517   1.819   6.718  16.125  0.3023  0.5585  0.1894
15009TIP3    H166518   1.742   6.733  16.069  1.8329  0.6928 -1.9353
15009TIP3    H266519   1.816   6.624  16.144 -0.6253  0.6386  0.4847
15010TIP3   OH266520   5.621   2.120   4.899  0.1269  0.0313  0.0909
15010TIP3    H166521   5.622   2.211   4.926 -0.0116 -0.2992  1.2645
15010TIP3    H266522   5.529   2.100   4.884  0.2864  0.4903 -1.6712
15011TIP3   OH266523   1.629   6.105   2.562  0.0287 -0.0630  0.1338
15011TIP3    H166524   1.606   6.070   2.648  0.0634 -0.7502 -0.1378
15011TIP3    H266525   1.552   6.154   2.534 -0.5588 -1.1290 -0.1258
15012TIP3   OH266526   6.494   4.787  16.368  0.1293  0.0165  0.0711
15012TIP3    H166527   6.561   4.810  16.304 -0.0227 -2.0888 -0.8869
15012TIP3    H266528   6.516   4.839  16.445  0.0410  2.9628 -1.8038
15013TIP3   OH266529   6.553   0.280  16.394  0.1433  0.0222 -0.5345
15013TIP3    H166530   6.513   0.336  16.461 -0.9260 -0.6648 -0.5865
15013TIP3    H266531   6.635   0.325  16.370 -0.5968  1.4462 -0.4313
15014TIP3   OH266532   4.804   6.443  11.963  0.3079  0.2495 -0.1373
15014TIP3    H166533   4.821   6.535  11.942  0.6892  0.4487  0.9632
15014TIP3    H266534   4.872   6.421  12.027 -0.3387 -0.5346  0.2914
15015TIP3   OH266535   2.017   3.694  15.331 -0.3427  0.0871  0.9264
15015TIP3    H166536   2.010   3.613  15.381  0.6640 -0.3805  0.3256
15015TIP3    H266537   1.931   3.734  15.337 -0.9018 -1.1271  1.0619
15016TIP3   OH266538   6.532   2.567   2.260  0.2164 -0.1471 -0.1349
15016TIP3    H166539   6.497   2.654   2.282  1.1596 -0.0142  0.8984
15016TIP3    H266540   6.627   2.578   2.263  0.3484 -0.9207 -1.2254
15017TIP3   OH266541   2.023   5.806   2.541 -0.5700  0.3011 -0.8217
15017TIP3    H166542   1.996   5.884   2.493  0.0704 -0.2610 -2.1000
15017TIP3    H266543   2.043   5.741   2.474 -4.3985 -2.1394  0.2080
15018TIP3   OH266544   3.742   4.568   0.242 -0.0297  0.1464  0.0980
15018TIP3    H166545   3.649   4.543   0.246  0.2722 -1.3592 -1.7797
15018TIP3    H266546   3.754   4.598   0.152  2.0878 -2.8759 -0.6854
15019TIP3   OH266547   0.731   1.879   4.593  0.5512  0.1112 -0.2366
15019TIP3    H166548   0.721   1.802   4.650  0.6997  0.0720 -0.2629
15019TIP3    H266549   0.707   1.848   4.506  1.1310 -0.0425 -0.3404
15020TIP3   OH266550   2.998   4.468   2.734 -0.0164  0.0023  0.6395
15020TIP3    H166551   2.952   4.542   2.696  0.5480 -0.9055 -1.8701
15020TIP3    H266552   2.934   4.397   2.735  1.0276 -1.0235 -2.0893
15021TIP3   OH266553   6.817   5.921  16.453  0.0210  1.0592 -0.0488
15021TIP3    H166554   6.907   5.924  16.420  1.3501  1.3292  3.4418
15021TIP3    H266555   6.811   5.837  16.499 -0.7483  2.0699  1.7483
15022TIP3   OH266556   1.758   3.396   0.970 -0.2516 -0.0353 -0.9114
15022TIP3    H166557   1.836   3.366   1.017 -0.8260  0.6200  0.4597
15022TIP3    H266558   1.685   3.375   1.028 -1.0704 -0.2392 -1.9954
15023TIP3   OH266559   2.702   3.741  13.654  0.3805  0.2776  0.0981
15023TIP3    H166560   2.657   3.719  13.572 -1.3002 -0.1027  1.0987
15023TIP3    H266561   2.795   3.736  13.632  0.0595 -4.0357 -0.7572
15024TIP3   OH266562   2.383   3.176  13.001  0.4969 -0.0284  0.0312
15024TIP3    H166563   2.342   3.095  12.972 -0.5353  0.2246  0.7250
15024TIP3    H266564   2.418   3.216  12.921 -0.5119 -0.3256 -0.5632
15025TIP3   OH266565   3.760   5.892   0.054 -0.0468  0.3064 -0.2489
15025TIP3    H166566   3.710   5.868   0.133  0.9880 -0.2679  0.2390
15025TIP3    H266567   3.785   5.809   0.016 -0.3206  0.5905 -1.0553
15026TIP3   OH266568   2.428   1.207  14.754  0.3913 -0.6716  0.0205
15026TIP3    H166569   2.458   1.184  14.842  0.3584  0.8915  0.4540
15026TIP3    H266570   2.334   1.190  14.756  0.1381  0.6844  0.7579
15027TIP3   OH266571   5.278   6.437   1.671  0.8512  0.2447 -0.1433
15027TIP3    H166572   5.272   6.342   1.680  0.5869  0.2271 -0.4623
15027TIP3    H266573   5.350   6.451   1.610  1.4355  0.2839  0.5552
15028TIP3   OH266574   3.461   5.902  14.605  0.1013  0.0614  0.1244
15028TIP3    H166575   3.540   5.858  14.638  1.8532  1.9656 -1.4299
15028TIP3    H266576   3.463   5.887  14.510 -2.8679 -2.1377  0.3381
15029TIP3   OH266577   6.238   1.871   4.563  0.3192  0.0192  1.1673
15029TIP3    H166578   6.208   1.782   4.542  0.9271  0.3045 -1.0322
15029TIP3    H266579   6.173   1.904   4.625 -1.5261 -0.9054 -0.2405
15030TIP3   OH266580   3.264   2.637   1.908  0.5528 -0.1317  0.3771
15030TIP3    H166581   3.226   2.610   1.991 -0.9194  1.5124  0.2572
15030TIP3    H266582   3.290   2.728   1.921  0.3152  0.1451 -0.9513
15031TIP3   OH266583   3.448   1.338   2.431  0.4070 -0.0769  0.2631
15031TIP3    H166584   3.508   1.263   2.422 -0.0419 -0.3904 -0.1604
15031TIP3    H266585   3.448   1.357   2.524  0.6233 -0.5271  0.3595
15032TIP3   OH266586   3.698   0.082  11.171 -0.1868  0.4467 -0.0327
15032TIP3    H166587   3.749   0.117  11.244  0.3552 -0.2957 -0.0539
15032TIP3    H266588   3.762   0.065  11.102 -0.9288  2.9699 -1.4172
15033TIP3   OH266589   4.009   2.921  14.791  0.3379 -0.1088 -0.7149
15033TIP3    H166590   4.056   2.901  14.872 -0.7503  1.4604  0.3468
15033TIP3    H266591   4.078   2.925  14.724  1.3002 -1.0431  0.1990
15034TIP3   OH266592   0.969   1.073  13.998  0.2592 -0.0502  0.0380
15034TIP3    H166593   0.920   1.152  13.976 -0.9343 -0.7241  0.2219
15034TIP3    H266594   1.054   1.084  13.956  0.1981  1.4449  0.2883
15035TIP3   OH266595   1.129   5.878   5.467  0.0515  0.8356 -0.1348
15035TIP3    H166596   1.049   5.834   5.439 -0.1218  1.8246 -1.2318
15035TIP3    H266597   1.098   5.947   5.526 -0.0881  2.3586 -1.9385
15036TIP3   OH266598   2.626   6.050  11.691 -0.2535 -0.5397 -0.9962
15036TIP3    H166599   2.661   6.002  11.766 -0.6826 -0.1775 -0.5597
15036TIP3    H266600   2.577   5.983  11.642 -0.1366 -0.7384 -0.8474
15037TIP3   OH266601   0.642   6.393   2.232  0.0859 -0.2458 -0.1158
15037TIP3    H166602   0.636   6.464   2.168 -0.4428  0.7540  1.0080
15037TIP3    H266603   0.553   6.383   2.265  0.8203  1.1794  2.4627
15038TIP3   OH266604   6.623   2.185  13.739  0.2616 -0.2553  0.3825
15038TIP3    H166605   6.652   2.212  13.652 -0.3057  0.2639  0.3478
15038TIP3    H266606   6.703   2.170  13.789  0.5806  0.5559  0.1071
15039TIP3   OH266607   4.013   5.408   0.460 -0.5964 -0.1902  0.1532
15039TIP3    H166608   4.032   5.502   0.465 -1.9595  0.1084 -0.1993
15039TIP3    H266609   3.920   5.404   0.437 -0.9544 -1.6475  1.8472
15040TIP3   OH266610   4.869   6.204   5.498 -0.1584 -0.0851 -0.0023
15040TIP3    H166611   4.947   6.150   5.489 -1.6510 -2.3718  0.3738
15040TIP3    H266612   4.840   6.220   5.408 -0.3531 -0.9007 -0.0896
15041TIP3   OH266613   1.396   3.650   5.269  0.0235  0.3022  0.1619
15041TIP3    H166614   1.347   3.674   5.349  1.2803  2.4470  0.3330
15041TIP3    H266615   1.486   3.638   5.299  0.0796 -1.1055 -0.5715
15042TIP3   OH266616   3.413   5.910   3.524  0.0981 -0.0314  0.2783
15042TIP3    H166617   3.342   5.883   3.582 -1.5421  0.0055 -1.6560
15042TIP3    H266618   3.450   5.828   3.491 -0.4031 -0.0265 -0.3030
15043TIP3   OH266619   4.944   1.973  11.558  0.4609  0.4521 -0.6142
15043TIP3    H166620   4.908   2.047  11.605 -0.3018 -0.2072 -0.1453
15043TIP3    H266621   4.904   1.977  11.471  0.4378  0.5968 -0.5960
15044TIP3   OH266622   3.207   1.253  12.699 -0.0411 -0.1226  0.3667
15044TIP3    H166623   3.214   1.159  12.680 -0.6695 -0.1511  0.2670
15044TIP3    H266624   3.226   1.296  12.616  1.6883 -0.1140  0.7523
15045TIP3   OH266625   2.057   0.519   4.062 -0.2423 -0.0166 -0.1341
15045TIP3    H166626   2.140   0.525   4.108 -0.0258  0.1746 -0.5574
15045TIP3    H266627   2.049   0.426   4.041 -0.3318 -0.1027  0.2638
15046TIP3   OH266628   3.327   0.607   4.638  0.3419  0.0725  1.2030
15046TIP3    H166629   3.396   0.603   4.705  0.0203  2.4158  1.6866
15046TIP3    H266630   3.360   0.668   4.573 -0.5730 -0.0470  0.6242
15047TIP3   OH266631   5.722   6.388  13.519  0.1862 -0.1861 -0.7899
15047TIP3    H166632   5.698   6.325  13.451  0.8128  0.3617 -1.5246
15047TIP3    H266633   5.654   6.456  13.515 -1.0454 -1.2954  0.6675
15048TIP3   OH266634   6.044   3.734  11.339 -0.5681  0.1207 -0.2607
15048TIP3    H166635   6.117   3.739  11.277 -0.5021  0.6381 -0.1454
15048TIP3    H266636   6.074   3.673  11.406 -1.1567 -1.4775 -1.4217
15049TIP3   OH266637   0.310   2.932  13.051  0.5792  0.5722 -0.4533
15049TIP3    H166638   0.278   3.021  13.038  0.7830  1.0176  1.8277
15049TIP3    H266639   0.339   2.903  12.965  1.9027  3.2572 -0.9538
15050TIP3   OH266640   4.351   6.029   4.404 -0.0292 -0.2822 -0.9224
15050TIP3    H166641   4.387   6.111   4.370  2.1315 -0.8048  0.0246
15050TIP3    H266642   4.401   6.011   4.483 -1.2854 -1.9128 -0.4642
15051TIP3   OH266643   1.536   1.007  16.000 -0.0642 -0.0636 -0.4577
15051TIP3    H166644   1.532   0.918  15.967 -0.5942  0.4800 -1.8763
15051TIP3    H266645   1.629   1.029  15.999 -0.0988  0.0232 -1.7738
15052TIP3   OH266646   6.124   0.101   1.117 -0.0744 -0.1846 -0.2677
15052TIP3    H166647   6.130   0.038   1.046 -1.1124 -0.0440 -0.4894
15052TIP3    H266648   6.215   0.116   1.144  0.4105  0.3982 -2.1216
15053TIP3   OH266649   4.732   2.848   4.855  0.5143 -0.2762  0.0111
15053TIP3    H166650   4.820   2.874   4.883  0.8004  0.6063 -1.6475
15053TIP3    H266651   4.748   2.777   4.792  0.1915  1.3901 -2.0070
15054TIP3   OH266652   6.597   4.851  14.993 -0.5823 -0.0384 -0.0267
15054TIP3    H166653   6.591   4.928  14.936  1.3026 -1.8371 -2.8164
15054TIP3    H266654   6.681   4.811  14.970 -2.0166 -3.5659  0.4757
15055TIP3   OH266655   1.628   3.780  12.626  0.6209  0.2325 -0.7205
15055TIP3    H166656   1.646   3.844  12.557 -0.5801  1.4468  0.0623
15055TIP3    H266657   1.545   3.808  12.664  1.6401  0.0937  1.7565
15056TIP3   OH266658   3.348   5.329   0.766  0.5537 -0.0436 -0.3327
15056TIP3    H166659   3.304   5.257   0.810  0.6044  0.9169  1.3404
15056TIP3    H266660   3.294   5.348   0.689 -1.3943  0.4740  1.1597
15057TIP3   OH266661   3.119   6.753   1.202  0.0802 -0.3286  0.5666
15057TIP3    H166662   3.035   6.738   1.159 -0.0303 -1.2827  1.1053
15057TIP3    H266663   3.097   6.764   1.294  0.6876 -2.1693  0.9518
15058TIP3   OH266664   6.242   5.478  11.818 -0.1347  0.8292 -0.0901
15058TIP3    H166665   6.257   5.389  11.847 -0.6507  0.6140 -0.4589
15058TIP3    H266666   6.303   5.531  11.868  0.8698  0.1508 -0.5849
15059TIP3   OH266667   4.700   0.479   2.228 -0.0526  0.0611  0.1908
15059TIP3    H166668   4.735   0.493   2.316  0.8420  0.8874 -0.2901
15059TIP3    H266669   4.640   0.405   2.237 -1.7227  1.5983  1.9802
15060TIP3   OH266670   6.749   3.344   4.876 -0.3908 -0.1548  0.6307
15060TIP3    H166671   6.653   3.340   4.869 -0.4670  0.7888  0.9753
15060TIP3    H266672   6.769   3.437   4.864  0.5077 -0.3955  0.2768
15061TIP3   OH266673   0.891   2.788   0.604 -0.1949  0.1257 -0.0769
15061TIP3    H166674   0.932   2.815   0.687 -0.7858  2.1930 -0.4213
15061TIP3    H266675   0.938   2.709   0.578  1.5888  0.7983  1.0318
15062TIP3   OH266676   0.704   5.311  17.292 -0.4395  0.1462 -0.3795
15062TIP3    H166677   0.750   5.234  17.260 -2.2886 -1.0901 -0.1642
15062TIP3    H266678   0.719   5.378  17.226 -1.7658 -1.4839 -2.3809
15063TIP3   OH266679   4.317   6.727  16.173  0.7716 -0.7532 -0.2736
15063TIP3    H166680   4.324   6.632  16.184  2.6089 -0.4341  1.5450
15063TIP3    H266681   4.403   6.754  16.141  0.2318  0.3051 -0.8605
15064TIP3   OH266682   4.720   4.065  13.169 -0.6046 -0.5330  0.2058
15064TIP3    H166683   4.746   3.979  13.137  2.0829 -0.5926  2.3466
15064TIP3    H266684   4.800   4.102  13.206 -2.4718  1.4794  2.4002
15065TIP3   OH266685   0.479   4.906   5.421  0.5387  0.1434  0.2282
15065TIP3    H166686   0.489   4.947   5.335 -1.3149 -0.4313 -0.2761
15065TIP3    H266687   0.408   4.955   5.462  0.6988 -0.2939  1.0216
15066TIP3   OH266688   1.285   3.360   1.214 -0.2017  0.4833 -0.3917
15066TIP3    H166689   1.228   3.350   1.138  1.5199  0.5488 -1.7131
15066TIP3    H266690   1.374   3.356   1.179  0.6227  1.2791  1.5177
15067TIP3   OH266691   4.619   5.709   4.678  0.5397 -0.2395 -0.2492
15067TIP3    H166692   4.700   5.730   4.724  0.8189 -1.4612 -0.1718
15067TIP3    H266693   4.633   5.738   4.588  1.2634 -0.9333 -0.3610
15068TIP3   OH266694   1.190   1.846  15.043 -0.4611  0.3006  0.1847
15068TIP3    H166695   1.218   1.861  15.134  1.0023 -1.7791  0.1045
15068TIP3    H266696   1.257   1.887  14.990  0.4857 -1.3973  0.0315
15069TIP3   OH266697   0.493   4.915   1.986 -0.3667  0.1222  0.4742
15069TIP3    H166698   0.549   4.844   2.015  0.2289  0.7853  0.9487
15069TIP3    H266699   0.422   4.871   1.938  0.6700 -0.6979 -0.3451
15070TIP3   OH266700   2.532   1.099   2.188  0.7285  0.5846  0.3545
15070TIP3    H166701   2.510   1.075   2.278  3.0803  0.5669  0.9595
15070TIP3    H266702   2.506   1.022   2.136  0.5979  0.0461  1.2013
15071TIP3   OH266703   6.575   0.418  14.492 -0.3202 -0.6496  0.2603
15071TIP3    H166704   6.662   0.456  14.482  1.1323 -3.5743  1.1930
15071TIP3    H266705   6.550   0.391  14.404  0.0982 -0.5868  0.1199
15072TIP3   OH266706   5.474   4.315  14.884  0.2719 -0.5971  0.0818
15072TIP3    H166707   5.415   4.318  14.960 -0.5384  0.3466 -0.5725
15072TIP3    H266708   5.518   4.231  14.891  0.7037 -0.2350  1.9771
15073TIP3   OH266709   5.254   2.281   4.944  0.0668 -0.3171 -0.0043
15073TIP3    H166710   5.299   2.197   4.935  0.7569 -0.0938  1.1800
15073TIP3    H266711   5.207   2.274   5.027  0.5209  0.6358  0.3457
15074TIP3   OH266712   5.721   2.804  13.086 -0.1901 -0.0020  0.0603
15074TIP3    H166713   5.734   2.786  13.179 -0.5241 -2.3444 -0.3306
15074TIP3    H266714   5.804   2.843  13.058  0.6903 -1.2618  0.8661
15075TIP3   OH266715   5.845   1.442   3.584 -0.0522 -0.1847  0.5396
15075TIP3    H166716   5.814   1.403   3.666 -1.6135 -1.5463 -0.6589
15075TIP3    H266717   5.773   1.498   3.555 -0.3419 -1.2873 -0.9147
15076TIP3   OH266718   3.878   4.679  12.693  0.0533  0.0296  0.6722
15076TIP3    H166719   3.823   4.691  12.770  0.7446  0.8347  1.0429
15076TIP3    H266720   3.949   4.741  12.704  1.5810 -1.6757  0.6947
15077TIP3   OH266721   1.516   0.162   0.891 -0.1470 -0.6803 -0.5756
15077TIP3    H166722   1.428   0.187   0.920 -0.2891 -1.6082 -0.1684
15077TIP3    H266723   1.527   0.073   0.924  1.5291 -0.0372  0.7009
15078TIP3   OH266724   1.152   5.553   1.085  0.5341  0.1800  0.0581
15078TIP3    H166725   1.063   5.548   1.122  0.6785 -1.6821  0.1623
15078TIP3    H266726   1.156   5.641   1.047 -2.5289 -0.8435 -2.9271
15079TIP3   OH266727   5.398   6.032  13.416  0.3250  0.2807 -0.1057
15079TIP3    H166728   5.426   6.110  13.369  0.3139 -0.9823 -2.2776
15079TIP3    H266729   5.305   6.024  13.396 -0.3908  1.3346  2.5455
15080TIP3   OH266730   4.302   1.163   2.008  0.6796 -0.4628  0.0306
15080TIP3    H166731   4.213   1.192   2.026  0.1502 -2.0821  0.0498
15080TIP3    H266732   4.325   1.106   2.081  2.0463  0.5906  0.4564
15081TIP3   OH266733   6.220   3.081  13.146  0.6258  0.2880  0.4777
15081TIP3    H166734   6.161   3.147  13.181  0.1417  1.2008 -1.9312
15081TIP3    H266735   6.301   3.129  13.127  1.0154 -0.2657  0.7430
15082TIP3   OH266736   0.089   3.961  16.404 -0.6760 -0.3906  0.6322
15082TIP3    H166737   0.045   3.922  16.328  1.3024 -2.0368  0.2857
15082TIP3    H266738   0.173   3.990  16.371  0.2323 -1.1555  2.1870
15083TIP3   OH266739   3.845   1.380   3.792  0.1076  0.1869 -0.6102
15083TIP3    H166740   3.928   1.390   3.839  0.1257  0.5168 -0.7096
15083TIP3    H266741   3.832   1.465   3.749 -1.2823  0.8305  1.0249
15084TIP3   OH266742   4.606   2.707  15.393 -0.5051 -0.3343 -0.0803
15084TIP3    H166743   4.558   2.704  15.310 -0.6486 -0.4613  0.0063
15084TIP3    H266744   4.698   2.701  15.368 -0.5877 -1.3872 -0.1862
15085TIP3   OH266745   1.904   0.740  16.910  0.0443  0.1389 -0.1604
15085TIP3    H166746   1.841   0.674  16.938  0.3774  0.6707  1.9474
15085TIP3    H266747   1.989   0.708  16.942  0.6454  0.1547 -1.6882
15086TIP3   OH266748   2.002   5.472  11.490 -0.2199 -0.4268 -0.1909
15086TIP3    H166749   2.065   5.407  11.522  2.1038  1.9862  0.3245
15086TIP3    H266750   1.987   5.448  11.399  0.4626 -1.8014  0.0377
15087TIP3   OH266751   1.010   5.660   0.073  0.1936 -0.0681 -0.2181
15087TIP3    H166752   0.929   5.620   0.106  0.3930 -0.2031  0.1059
15087TIP3    H266753   1.023   5.619  -0.013  1.7711 -2.6395  1.1820
15088TIP3   OH266754   0.376   2.389   4.416  0.2767 -0.5934 -0.2953
15088TIP3    H166755   0.379   2.409   4.322 -2.0492 -0.3501 -0.3529
15088TIP3    H266756   0.289   2.351   4.430  0.9873 -1.6116  1.5900
15089TIP3   OH266757   3.622   3.037   3.431 -0.6101  0.3774 -0.0565
15089TIP3    H166758   3.573   3.097   3.374  0.4082  1.4614  0.1929
15089TIP3    H266759   3.714   3.058   3.415 -0.2702 -0.4537  0.7652
15090TIP3   OH266760   2.626   4.497  16.820  0.5054  0.0611 -0.8209
15090TIP3    H166761   2.601   4.455  16.902  1.7502  2.4492  0.8294
15090TIP3    H266762   2.676   4.429  16.773  0.4586 -1.0745  0.7427
15091TIP3   OH266763   4.616   4.296   1.407  0.1656  0.3804  0.0422
15091TIP3    H166764   4.583   4.237   1.476 -0.4715 -1.8124 -2.0522
15091TIP3    H266765   4.553   4.286   1.335  2.5737  0.1023 -2.0878
15092TIP3   OH266766   1.165   2.582   5.156 -0.3448  0.0740 -0.0746
15092TIP3    H166767   1.131   2.495   5.179 -0.0468 -0.0611 -0.1479
15092TIP3    H266768   1.105   2.613   5.088 -0.7884  0.1673  0.3519
15093TIP3   OH266769   6.346   0.655  10.908 -0.5535  0.1940  0.2897
15093TIP3    H166770   6.389   0.613  10.983  0.4440  0.4575 -0.1248
15093TIP3    H266771   6.265   0.605  10.896 -0.2903 -0.4138  0.9851
15094TIP3   OH266772   3.982   0.553  14.582 -0.3746 -0.1749  0.1703
15094TIP3    H166773   4.007   0.461  14.585  1.7811  0.3964  2.7612
15094TIP3    H266774   3.927   0.565  14.660 -0.7258  0.7153 -0.2085
15095TIP3   OH266775   6.568   5.194  10.763  0.2048 -0.3060  0.3227
15095TIP3    H166776   6.659   5.222  10.759  0.4983 -1.4197 -0.9503
15095TIP3    H266777   6.570   5.101  10.744 -1.1119 -0.5363  1.2116
15096TIP3   OH266778   0.483   3.677  12.325  0.2548 -0.4394 -0.5256
15096TIP3    H166779   0.430   3.599  12.307 -0.5686 -0.4046  1.6047
15096TIP3    H266780   0.424   3.751  12.307 -0.0510 -0.3814  0.6630
15097TIP3   OH266781   6.608   1.089   4.581 -0.5397  0.0180  0.4422
15097TIP3    H166782   6.641   1.079   4.491 -2.2908  0.7269 -0.3002
15097TIP3    H266783   6.681   1.062   4.636  1.3927  1.7751 -1.1494
15098TIP3   OH266784   0.287   3.127   5.510 -0.0423  0.0411 -0.0535
15098TIP3    H166785   0.195   3.112   5.531  0.5511 -2.4413  0.9791
15098TIP3    H266786   0.319   3.042   5.479  1.6577  1.1180 -1.3762
15099TIP3   OH266787   3.046   2.820  11.873  0.0389  0.0797 -0.1122
15099TIP3    H166788   3.106   2.763  11.921 -0.0580 -0.8596 -1.0834
15099TIP3    H266789   3.097   2.851  11.798 -0.2070  0.5156 -0.1006
15100TIP3   OH266790   2.351   4.129   4.112  0.2317  0.7890  0.0458
15100TIP3    H166791   2.255   4.123   4.110  0.2732 -0.1866  0.7302
15100TIP3    H266792   2.372   4.190   4.040 -0.8424  0.3407 -0.6697
15101TIP3   OH266793   6.532   4.211   1.478 -0.2563 -0.1550 -0.1485
15101TIP3    H166794   6.464   4.152   1.444 -1.0593  0.7535 -0.1229
15101TIP3    H266795   6.574   4.245   1.399 -0.3238 -0.1414 -0.1789
15102TIP3   OH266796   1.941   3.187  13.253  0.3001 -0.0301  0.0688
15102TIP3    H166797   1.865   3.147  13.295  0.8119 -2.7197 -1.4166
15102TIP3    H266798   2.014   3.128  13.274  1.5931  1.4579 -0.1465
15103TIP3   OH266799   5.200   6.334   5.448 -0.4099  0.0998  0.2895
15103TIP3    H166800   5.147   6.300   5.376  0.9860 -0.5837 -0.4358
15103TIP3    H266801   5.187   6.271   5.519  1.9322 -1.8800 -0.9493
15104TIP3   OH266802   1.740   3.917  12.853 -0.4956  0.0128 -0.4634
15104TIP3    H166803   1.746   3.896  12.946 -2.3472  1.3773 -0.0197
15104TIP3    H266804   1.695   3.842  12.814 -1.3971  0.2722  0.0654
15105TIP3   OH266805   1.192   1.429   3.583 -0.6522 -0.3948  0.3707
15105TIP3    H166806   1.251   1.493   3.622 -0.4201 -0.4045  0.0433
15105TIP3    H266807   1.250   1.364   3.543 -0.8764 -1.8322  2.3324
15106TIP3   OH266808   3.636   5.431   2.944  0.4865 -0.5998  0.0635
15106TIP3    H166809   3.686   5.487   2.885  0.9261 -0.4722  0.5433
15106TIP3    H266810   3.703   5.390   2.999  0.0303 -0.0165  1.0766
15107TIP3   OH266811   4.738   6.448   1.742 -0.2344 -0.2632  0.2278
15107TIP3    H166812   4.716   6.495   1.661  0.2703 -1.5429 -0.6706
15107TIP3    H266813   4.833   6.443   1.742 -0.2923 -1.4032  0.2458
15108TIP3   OH266814   1.407   4.571   1.032  0.5274 -0.0279  0.1884
15108TIP3    H166815   1.347   4.622   0.978  0.2707 -1.3969 -0.8468
15108TIP3    H266816   1.490   4.619   1.029 -0.1918  1.2442  0.6603
15109TIP3   OH266817   4.843   3.971  13.942 -0.4492 -0.0276 -0.2793
15109TIP3    H166818   4.767   4.027  13.924 -0.4707 -0.0219 -0.1686
15109TIP3    H266819   4.903   3.989  13.869  0.0587  1.0402  0.3975
15110TIP3   OH266820   1.670   6.437   5.392  0.0666 -0.3088  0.7039
15110TIP3    H166821   1.745   6.443   5.332 -0.8212  0.7021 -0.3124
15110TIP3    H266822   1.678   6.349   5.431  0.9983 -0.7324 -0.4136
15111TIP3   OH266823   6.177   2.364  16.031 -0.2851 -0.4217  0.2160
15111TIP3    H166824   6.086   2.365  16.062  0.3700 -2.7211  2.3622
15111TIP3    H266825   6.174   2.409  15.946 -3.4515 -0.6453  0.1537
15112TIP3   OH266826   4.989   3.671   4.037 -0.1241  0.0860 -0.3899
15112TIP3    H166827   4.962   3.734   4.103  1.4230  2.1414 -1.6687
15112TIP3    H266828   5.035   3.603   4.086 -1.6926 -0.0173  0.9884
15113TIP3   OH266829   5.022   3.595  16.766  0.0220  0.0382 -0.0953
15113TIP3    H166830   5.021   3.499  16.760 -0.2244 -0.1464  2.2251
15113TIP3    H266831   5.002   3.613  16.858  2.5024  2.2747  0.0717
15114TIP3   OH266832   3.200   0.108   4.715 -0.3694 -0.4312  0.3325
15114TIP3    H166833   3.209   0.203   4.713 -1.3317 -0.3088  1.1872
15114TIP3    H266834   3.286   0.075   4.692 -0.1437  0.6490 -0.3928
15115TIP3   OH266835   4.170   0.914   5.873 -0.1075  0.2911  0.5687
15115TIP3    H166836   4.116   0.907   5.794 -0.5555 -1.5566  1.0165
15115TIP3    H266837   4.236   0.845   5.863  1.6695  1.9593  0.4434
15116TIP3   OH266838   4.446   0.340   3.383  0.0202 -0.0320  0.1806
15116TIP3    H166839   4.382   0.307   3.320 -0.1112  1.3528 -0.4393
15116TIP3    H266840   4.504   0.265   3.400 -1.5915 -1.2197  0.5612
15117TIP3   OH266841   4.233   6.316   3.125  0.0880 -0.2150  0.3883
15117TIP3    H166842   4.251   6.377   3.196 -1.0245  0.2909  0.2469
15117TIP3    H266843   4.305   6.253   3.128  1.6771  1.5306  0.0440
15118TIP3   OH266844   4.201   4.166   2.293  0.1569  0.6553  0.1341
15118TIP3    H166845   4.279   4.156   2.238  1.1477  2.7285  1.1018
15118TIP3    H266846   4.135   4.109   2.253  0.4765  2.9396 -3.8509
15119TIP3   OH266847   0.036   5.000   2.631  0.0640  0.1168  0.4278
15119TIP3    H166848   0.063   5.081   2.589 -0.9450  0.5169  0.5431
15119TIP3    H266849  -0.007   4.950   2.561  0.5386 -0.2518  0.3957
15120TIP3   OH266850   1.169   6.280   4.498 -0.1989 -0.2399 -0.1592
15120TIP3    H166851   1.182   6.357   4.443  0.8850 -0.1446  0.2303
15120TIP3    H266852   1.236   6.218   4.470 -1.3088 -1.2097 -0.7389
15121TIP3   OH266853   0.026   3.942   2.944  0.5789  0.7527  0.3350
15121TIP3    H166854   0.006   3.985   2.861  0.8631  1.0255  0.4066
15121TIP3    H266855  -0.016   3.856   2.938  0.1029  1.0002  0.1489
15122TIP3   OH266856   0.893   5.094  11.082 -0.4579 -0.0019 -0.2632
15122TIP3    H166857   0.858   5.170  11.035 -1.8381 -0.4075  0.0874
15122TIP3    H266858   0.977   5.076  11.040 -0.6335  1.0390 -1.0711
15123TIP3   OH266859   6.457   2.419  13.814  0.6254 -0.7366 -0.1276
15123TIP3    H166860   6.540   2.372  13.805  0.7219 -0.4476 -0.7677
15123TIP3    H266861   6.392   2.359  13.781  0.8664 -0.0466 -1.8958
15124TIP3   OH266862   1.249   4.931  16.603 -0.1585 -0.0669 -0.7403
15124TIP3    H166863   1.196   4.852  16.591  0.0925 -0.2226 -0.8339
15124TIP3    H266864   1.316   4.925  16.536  0.0916  0.0311 -0.5024
15125TIP3   OH266865   2.704   6.265  12.505  0.6859 -0.4143  0.1387
15125TIP3    H166866   2.736   6.348  12.470  3.0888 -0.6537  1.6621
15125TIP3    H266867   2.616   6.284  12.536  0.4871  1.0722 -1.2828
15126TIP3   OH266868   6.267   0.190  11.354 -0.4913 -0.2786 -0.1658
15126TIP3    H166869   6.322   0.268  11.364  0.2140 -0.5929 -1.5781
15126TIP3    H266870   6.180   0.225  11.334 -0.1685  0.1501 -0.8494
15127TIP3   OH266871   2.903   3.162  10.590 -0.2540 -0.3274 -0.6686
15127TIP3    H166872   2.998   3.156  10.588 -0.1977 -0.0049  0.6132
15127TIP3    H266873   2.884   3.255  10.599 -0.6100 -0.6275  2.0253
15128TIP3   OH266874   1.566   2.468  14.896 -0.0685 -0.0700  0.1431
15128TIP3    H166875   1.645   2.471  14.841  0.2564  0.5811  0.6451
15128TIP3    H266876   1.494   2.460  14.833  0.4239 -1.1574 -0.3010
15129TIP3   OH266877   0.533   3.524   2.944 -0.2846  0.0512  0.1859
15129TIP3    H166878   0.447   3.515   2.986 -0.8381  1.0244 -0.7010
15129TIP3    H266879   0.514   3.567   2.861  1.1235  0.7765  0.2183
15130TIP3   OH266880   5.506   5.286  11.504  0.4537  0.5638 -0.5691
15130TIP3    H166881   5.598   5.311  11.489  1.0320 -0.1431  1.5660
15130TIP3    H266882   5.510   5.226  11.578 -1.9371  1.9933  0.7623
15131TIP3   OH266883   5.472   5.165   1.487 -0.1983 -0.8667  0.0347
15131TIP3    H166884   5.463   5.239   1.546  1.0960 -0.1277 -0.6794
15131TIP3    H266885   5.402   5.104   1.514 -2.4670  1.3849 -0.5639
15132TIP3   OH266886   6.338   5.661  12.014 -0.1183 -0.8125  0.4156
15132TIP3    H166887   6.418   5.661  12.066 -0.2400 -2.1330  0.6121
15132TIP3    H266888   6.333   5.749  11.978  2.6100 -1.3622 -1.4067
15133TIP3   OH266889   1.946   1.789   3.466 -0.1030 -0.0098  0.0719
15133TIP3    H166890   1.930   1.832   3.383  0.0637  0.7629  0.4378
15133TIP3    H266891   1.862   1.794   3.513 -0.1700 -0.3596 -0.0032
15134TIP3   OH266892   6.467   2.536  11.010 -0.3254  0.1633  0.1627
15134TIP3    H166893   6.550   2.494  11.032 -0.7893 -0.0252  1.6207
15134TIP3    H266894   6.403   2.464  11.013 -0.6134  0.3905 -0.4905
15135TIP3   OH266895   6.763   1.797  14.917 -0.0486  0.4283 -0.3743
15135TIP3    H166896   6.826   1.736  14.956 -0.6373 -0.5329 -0.9117
15135TIP3    H266897   6.748   1.763  14.829 -1.9098  0.2164  0.0145
15136TIP3   OH266898   4.536   5.331   3.305 -0.2828 -0.2923  1.0532
15136TIP3    H166899   4.573   5.327   3.217 -1.2748 -0.2000  0.6255
15136TIP3    H266900   4.606   5.299   3.362 -0.1577 -1.8363  0.0683
15137TIP3   OH266901   2.391   1.786  14.808 -0.2887  0.0526  0.2675
15137TIP3    H166902   2.468   1.842  14.805  0.6778 -1.1466  1.9020
15137TIP3    H266903   2.424   1.698  14.787 -1.2213 -0.4508  0.8626
15138TIP3   OH266904   5.232   0.167   0.969  0.4007 -0.0522  0.2805
15138TIP3    H166905   5.295   0.109   0.927 -0.2158 -2.1147  2.1109
15138TIP3    H266906   5.149   0.120   0.966 -0.5057  1.4891  0.2547
15139TIP3   OH266907   4.332   6.738  11.371 -0.4423  0.3659  0.4237
15139TIP3    H166908   4.251   6.788  11.372 -0.3599  0.4916  1.2203
15139TIP3    H266909   4.346   6.715  11.279 -1.0373  0.8978  0.2034
15140TIP3   OH266910   2.617   0.305   0.762 -0.0970  0.1229 -0.0594
15140TIP3    H166911   2.567   0.371   0.714 -1.4960 -1.0679 -0.2710
15140TIP3    H266912   2.678   0.269   0.697  0.2532  0.7644 -0.0950
15141TIP3   OH266913   2.233   2.306   0.020 -0.3934 -0.8768 -0.2330
15141TIP3    H166914   2.190   2.377  -0.028  1.3783  0.0490 -0.5144
15141TIP3    H266915   2.185   2.228  -0.004 -2.2550  0.1936 -0.0915
15142TIP3   OH266916   3.652   3.744  14.566 -0.1294  0.2245 -0.2640
15142TIP3    H166917   3.607   3.777  14.644  0.5825 -0.2774  0.3641
15142TIP3    H266918   3.613   3.657  14.551 -1.3240  0.9260 -1.3536
15143TIP3   OH266919   0.031   4.447   1.380  0.2234 -0.1170 -0.3477
15143TIP3    H166920   0.016   4.499   1.301  3.8949  0.8530 -0.4753
15143TIP3    H266921   0.014   4.357   1.353  1.3337  0.2063 -2.2285
15144TIP3   OH266922   6.442   1.287   0.304 -0.0595  0.1465  0.1587
15144TIP3    H166923   6.372   1.233   0.341  0.5382 -0.0205  1.0448
15144TIP3    H266924   6.486   1.228   0.242  0.0480 -0.1154  0.4822
15145TIP3   OH266925   1.864   4.592  11.982  0.0917 -0.2634 -0.3621
15145TIP3    H166926   1.774   4.582  12.012  0.1639  0.5349  0.1259
15145TIP3    H266927   1.915   4.604  12.062  0.1757  2.7597 -0.8216
15146TIP3   OH266928   4.190   0.641   2.898  0.1862 -0.1431 -0.0822
15146TIP3    H166929   4.117   0.598   2.942 -0.6263 -0.0854 -1.3487
15146TIP3    H266930   4.168   0.734   2.901 -0.5254 -0.2387 -1.7382
15147TIP3   OH266931   1.127   0.196  15.439 -0.4938  0.2252 -0.7650
15147TIP3    H166932   1.217   0.162  15.441 -1.2910 -2.0967 -2.4497
15147TIP3    H266933   1.092   0.167  15.355 -2.6300  1.6842 -0.4267
15148TIP3   OH266934   1.557   2.291   5.544 -0.2094  0.2012  0.3956
15148TIP3    H166935   1.521   2.228   5.481 -0.5667  0.6531  0.1446
15148TIP3    H266936   1.526   2.376   5.513 -0.7265  0.3869  1.4008
15149TIP3   OH266937   2.350   5.769  14.191 -0.2038  0.2020  0.0664
15149TIP3    H166938   2.440   5.801  14.202 -0.5553  1.2001  0.0870
15149TIP3    H266939   2.337   5.709  14.265  0.6681 -0.4795 -0.3180
15150TIP3   OH266940   1.230   4.721   0.127  0.6420 -0.1646  0.0467
15150TIP3    H166941   1.183   4.655   0.178  0.3938 -0.0486 -0.0357
15150TIP3    H266942   1.208   4.701   0.036 -0.4571  0.8294  0.0913
15151TIP3   OH266943   0.924   4.635   1.887  0.6830  0.4162  0.3706
15151TIP3    H166944   0.894   4.627   1.797  1.2384  0.1080  0.2119
15151TIP3    H266945   0.974   4.716   1.890  0.9877  0.2340  0.3056
15152TIP3   OH266946   3.677   1.909  16.959 -0.1359 -0.2843 -0.2283
15152TIP3    H166947   3.636   1.994  16.941  0.6356 -0.5523 -3.4658
15152TIP3    H266948   3.770   1.929  16.969 -0.0017 -0.6886 -0.6511
15153TIP3   OH266949   0.899   5.562  14.753  0.1604  0.9028 -0.0452
15153TIP3    H166950   0.870   5.651  14.734 -0.0933  0.9119  0.3910
15153TIP3    H266951   0.889   5.552  14.847 -3.5057 -0.8691 -0.4889
15154TIP3   OH266952   2.045   5.902   0.644  0.9601  0.6165 -0.3277
15154TIP3    H166953   2.125   5.861   0.611  1.6845 -0.2890  2.3849
15154TIP3    H266954   1.977   5.836   0.632  0.7302  1.1539 -2.0669
15155TIP3   OH266955   5.664   4.300  15.185  0.8154  0.3833 -0.0122
15155TIP3    H166956   5.641   4.390  15.162  0.5937  0.5131  0.7240
15155TIP3    H266957   5.585   4.265  15.226  0.5097 -0.5082 -1.3228
15156TIP3   OH266958   1.159   5.567   3.893 -0.1461  0.0503  0.4528
15156TIP3    H166959   1.104   5.563   3.971 -1.5203  0.0036 -0.5158
15156TIP3    H266960   1.177   5.476   3.871  1.3817  0.0681  1.4783
15157TIP3   OH266961   4.053   2.683   0.964  0.2964  0.2559  0.2748
15157TIP3    H166962   4.030   2.593   0.943 -0.8708  0.4131  0.8104
15157TIP3    H266963   3.989   2.709   1.030  0.6667  1.4561  0.1735
15158TIP3   OH266964   6.800   5.256  13.570  0.6760  0.1493  0.6430
15158TIP3    H166965   6.824   5.185  13.510  0.6795  0.5492  0.1622
15158TIP3    H266966   6.874   5.317  13.565  1.0608 -0.2185  1.7034
15159TIP3   OH266967   5.627   1.844   5.717 -0.4521 -0.2465  0.1618
15159TIP3    H166968   5.626   1.756   5.677  2.0771 -0.7363  1.0857
15159TIP3    H266969   5.535   1.863   5.735 -1.3117 -1.5678 -2.4915
15160TIP3   OH266970   6.368   3.551   0.964 -0.1105  0.7501 -0.1773
15160TIP3    H166971   6.291   3.500   0.991  0.3220  0.7104  1.0164
15160TIP3    H266972   6.337   3.642   0.963 -0.1119  0.7594  0.5313
15161TIP3   OH266973   2.102   4.345   2.873  0.6469 -0.0388 -0.3323
15161TIP3    H166974   2.029   4.287   2.897  0.2430  0.0391 -1.3573
15161TIP3    H266975   2.169   4.286   2.839  1.0426 -0.1014  0.5253
15162TIP3   OH266976   0.207   0.216  16.600 -0.1441  0.0155  0.4863
15162TIP3    H166977   0.255   0.171  16.530  2.5171  0.9875  1.6144
15162TIP3    H266978   0.190   0.148  16.665  0.4281 -0.1899  0.4285
15163TIP3   OH266979   2.626   2.089  14.367 -0.0253  0.4580  0.4906
15163TIP3    H166980   2.713   2.130  14.370  0.8287 -1.3240  0.9473
15163TIP3    H266981   2.603   2.089  14.274 -0.5130  2.8739  0.5677
15164TIP3   OH266982   3.758   1.617  11.966  0.0176  0.3949  0.2781
15164TIP3    H166983   3.745   1.525  11.989 -1.2838  0.3951 -0.4597
15164TIP3    H266984   3.672   1.648  11.937  0.4104  1.8847  0.6539
15165TIP3   OH266985   5.975   2.123  14.771 -0.2963  0.0598  0.4511
15165TIP3    H166986   6.006   2.125  14.862 -0.2693 -2.0374  0.5157
15165TIP3    H266987   5.883   2.150  14.777  0.2970  2.0855  0.8024
15166TIP3   OH266988   1.759   1.692  15.896 -0.2808 -0.5930  0.4642
15166TIP3    H166989   1.739   1.770  15.845  1.2417  0.2803  1.1495
15166TIP3    H266990   1.694   1.690  15.966 -2.2182 -1.6569 -1.3233
15167TIP3   OH266991   0.348   4.310  14.696  0.2173 -0.3247  0.7340
15167TIP3    H166992   0.440   4.317  14.721  1.1177 -0.9976 -2.2338
15167TIP3    H266993   0.333   4.387  14.641 -1.2389  0.1843  1.8079
15168TIP3   OH266994   3.598   1.945   2.014  0.1558 -0.2312 -0.1152
15168TIP3    H166995   3.527   1.924   2.076  0.6688  2.1201  1.3254
15168TIP3    H266996   3.553   1.989   1.941 -0.3058 -2.0204 -0.9429
15169TIP3   OH266997   2.128   1.062  10.886  0.0565 -0.0906 -0.1258
15169TIP3    H166998   2.048   1.020  10.917  0.7139 -2.1358 -1.0940
15169TIP3    H266999   2.109   1.090  10.797  0.2320 -0.0268 -0.1451
15170TIP3   OH267000   5.425   2.525   3.653 -0.0723 -0.5449 -0.2004
15170TIP3    H167001   5.350   2.499   3.599 -2.2712  0.2057  2.4287
15170TIP3    H267002   5.400   2.502   3.742  2.2315  1.0829  0.9097
15171TIP3   OH267003   4.538   1.287  13.495  0.3264  0.4859 -0.6748
15171TIP3    H167004   4.547   1.334  13.413  0.9973  0.1356 -0.8057
15171TIP3    H267005   4.563   1.350  13.563  0.8595  0.4372 -0.8226
15172TIP3   OH267006   1.688   0.457  15.630  0.0111 -0.2953 -0.2435
15172TIP3    H167007   1.701   0.481  15.721  0.8399 -1.5733 -0.0186
15172TIP3    H267008   1.721   0.368  15.623  0.3763 -0.0528 -1.8967
15173TIP3   OH267009   3.909   2.408  16.691  0.0021  0.2015  0.6538
15173TIP3    H167010   3.830   2.367  16.725  0.2371 -0.0436  0.9155
15173TIP3    H267011   3.941   2.462  16.763 -0.3618  0.9242  0.2706
15174TIP3   OH267012   0.868   1.950  16.497 -0.1249 -0.1473  0.1731
15174TIP3    H167013   0.796   1.955  16.435 -1.0649 -3.1589  0.9193
15174TIP3    H267014   0.828   1.916  16.577  1.4971  1.4110  1.6926
15175TIP3   OH267015   0.866   3.972  13.752  0.1826 -0.6451 -0.1466
15175TIP3    H167016   0.855   3.935  13.664 -0.9300  2.7312 -1.5152
15175TIP3    H267017   0.914   4.053  13.738  0.5195 -0.3518  2.4571
15176TIP3   OH267018   2.200   0.647   2.651  0.2636  0.4125  0.0173
15176TIP3    H167019   2.167   0.623   2.564  1.4988 -0.5953 -0.1824
15176TIP3    H267020   2.187   0.568   2.704 -1.0165  1.2076  0.9193
15177TIP3   OH267021   1.413   4.401   3.546 -0.3269 -0.2190  0.5649
15177TIP3    H167022   1.333   4.437   3.508  1.0385  2.3094 -0.0111
15177TIP3    H267023   1.443   4.336   3.483  0.3514  1.8735 -1.3319
15178TIP3   OH267024   2.987   1.401   5.134 -0.2959  0.3213 -0.2620
15178TIP3    H167025   2.959   1.311   5.150  0.4765  0.3988  1.6569
15178TIP3    H267026   3.067   1.393   5.083 -1.6694  0.0024 -2.4004
15179TIP3   OH267027   3.178   3.044   6.134 -0.0191 -0.3741 -0.3402
15179TIP3    H167028   3.192   3.003   6.049 -5.3180 -1.3847 -0.8828
15179TIP3    H267029   3.172   3.138   6.115  0.3843 -0.4333 -0.7803
15180TIP3   OH267030   0.951   2.796  15.053 -0.4376 -0.0503  0.0277
15180TIP3    H167031   0.987   2.712  15.023 -0.0405  0.3832 -0.7503
15180TIP3    H267032   0.986   2.860  14.990 -2.7484  0.3556 -0.8890
15181TIP3   OH267033   5.237   4.131   3.667  0.0211 -0.5298  0.3000
15181TIP3    H167034   5.264   4.211   3.713 -0.2060 -0.5160  0.4099
15181TIP3    H267035   5.175   4.089   3.726  0.6818 -1.1499  0.5457
15182TIP3   OH267036   0.354   0.308   4.207 -0.8244  0.2648  0.0022
15182TIP3    H167037   0.419   0.327   4.140  0.3420 -1.9508  0.4616
15182TIP3    H267038   0.278   0.277   4.159 -0.3265 -0.4146 -0.3579
15183TIP3   OH267039   0.444   1.332   0.390  0.2748 -0.8001  0.2217
15183TIP3    H167040   0.356   1.353   0.361  0.8717 -0.6353 -1.5139
15183TIP3    H267041   0.438   1.244   0.427 -0.3137 -1.3752 -1.2408
15184TIP3   OH267042   0.412   6.591   1.951  0.3287  0.3082 -0.1466
15184TIP3    H167043   0.325   6.560   1.977  0.2286 -0.2042 -1.0729
15184TIP3    H267044   0.425   6.670   2.002 -0.1393 -0.3237  0.9648
15185TIP3   OH267045   6.496   2.797   2.518  0.0243  0.3469  0.1537
15185TIP3    H167046   6.474   2.704   2.508 -0.3331  0.2915  1.4011
15185TIP3    H267047   6.435   2.829   2.584 -0.5373  1.7318 -1.0008
15186TIP3   OH267048   3.272   1.834   5.310 -0.1491  0.3420  0.6750
15186TIP3    H167049   3.209   1.779   5.264 -0.5349  0.1342  1.4505
15186TIP3    H267050   3.263   1.810   5.402  0.2069  1.1768  0.9321
15187TIP3   OH267051   6.329   5.478  11.254 -0.2042  0.1374 -0.2042
15187TIP3    H167052   6.263   5.465  11.322  1.5257  0.1763  1.5166
15187TIP3    H267053   6.378   5.396  11.250  0.9190  0.7814 -0.0482
15188TIP3   OH267054   3.556   3.962  11.436 -0.1768  0.0427  0.3992
15188TIP3    H167055   3.627   3.970  11.372 -0.1192  0.5450  0.5230
15188TIP3    H267056   3.477   3.989  11.388  0.0934  1.8352  0.9603
15189TIP3   OH267057   4.888   1.883   4.845  0.1192 -0.1850  0.0330
15189TIP3    H167058   4.853   1.829   4.774 -2.0293 -0.9442  1.6422
15189TIP3    H267059   4.862   1.972   4.822  2.2975  0.0478 -1.7995
15190TIP3   OH267060   1.747   1.684   6.124 -0.2347  0.2520  0.1059
15190TIP3    H167061   1.765   1.761   6.070  0.9308 -0.8578 -1.1225
15190TIP3    H267062   1.829   1.667   6.170 -0.1690 -0.8595 -0.4077
15191TIP3   OH267063   3.476   0.412   2.725  0.1929  0.4992  0.1202
15191TIP3    H167064   3.486   0.500   2.689  1.3894  1.3472  2.3996
15191TIP3    H267065   3.406   0.420   2.789 -0.1731 -0.3776 -0.1713
15192TIP3   OH267066   0.470   1.229   6.667 -0.1142  0.4305  0.4088
15192TIP3    H167067   0.557   1.222   6.708  0.3080  0.3742 -0.4853
15192TIP3    H267068   0.475   1.309   6.614 -0.4687  0.1885  0.0117
15193TIP3   OH267069   5.947   4.004   4.897 -0.0521  0.7153  0.2700
15193TIP3    H167070   5.993   4.005   4.814  3.4377  0.7041  2.1384
15193TIP3    H267071   5.961   4.091   4.934 -2.8122  1.2293  0.2607
15194TIP3   OH267072   2.994   4.913   5.988 -0.4438 -0.1893  0.2810
15194TIP3    H167073   2.946   4.982   6.034  0.1516  0.1590  0.3758
15194TIP3    H267074   2.977   4.834   6.039 -0.9511 -0.0786  0.2932
15195TIP3   OH267075   4.539   2.335   5.429 -0.3548  0.2877  0.4829
15195TIP3    H167076   4.621   2.304   5.390 -0.2561  0.9753  0.1251
15195TIP3    H267077   4.526   2.279   5.505  0.4037  0.1129  0.4906
15196TIP3   OH267078   0.783   1.436   5.632  0.1542  0.2161 -0.2113
15196TIP3    H167079   0.713   1.460   5.570 -1.0494  0.5782  1.2668
15196TIP3    H267080   0.786   1.509   5.693 -0.4703 -1.3422  1.7199
15197TIP3   OH267081   0.718   4.784   1.224 -0.1913 -0.5473  0.3142
15197TIP3    H167082   0.775   4.789   1.147  1.0857 -2.9693  1.0649
15197TIP3    H267083   0.631   4.808   1.191  0.1763 -2.3127 -2.0630
15198TIP3   OH267084   3.770   0.485  15.974  0.4166 -0.7003 -0.2070
15198TIP3    H167085   3.833   0.414  15.961 -0.8917 -2.2252  1.4288
15198TIP3    H267086   3.747   0.514  15.886 -0.2626 -3.4496 -0.9645
15199TIP3   OH267087   4.343   6.684  11.865 -0.1673  0.3725 -0.4310
15199TIP3    H167088   4.287   6.608  11.848 -0.5758  0.3181  1.0442
15199TIP3    H267089   4.344   6.692  11.961  1.4136  1.0803 -0.4903
15200TIP3   OH267090   0.631   5.205  14.755 -0.1093  0.4955 -0.4460
15200TIP3    H167091   0.648   5.240  14.842  0.3231 -0.1829 -0.2596
15200TIP3    H267092   0.611   5.112  14.770  0.8370  0.1679 -1.1517
15201TIP3   OH267093   4.064   3.627  13.825  0.0967  0.2561  0.2055
15201TIP3    H167094   4.126   3.576  13.876  0.4694 -0.8482 -1.3268
15201TIP3    H267095   4.117   3.670  13.758 -0.6662 -0.0680 -0.6199
15202TIP3   OH267096   3.014   1.145  11.547 -0.0719  0.1518  0.0087
15202TIP3    H167097   2.999   1.188  11.463 -0.3289 -0.4226 -0.2396
15202TIP3    H267098   3.068   1.207  11.597 -0.1117  0.5871 -0.4946
15203TIP3   OH267099   4.229   6.238  12.722  0.0738  0.8524 -0.4942
15203TIP3    H167100   4.304   6.224  12.665  0.4431  1.1737 -0.0930
15203TIP3    H267101   4.177   6.158  12.714  0.7545  0.3933 -0.3365
15204TIP3   OH267102   0.219   1.927   6.213 -0.4229 -0.1232 -0.5660
15204TIP3    H167103   0.168   2.006   6.194  0.1524  0.7510  1.4522
15204TIP3    H267104   0.160   1.871   6.264 -0.1644 -0.1407 -0.2840
15205TIP3   OH267105   0.065   5.391   0.315 -0.6485 -0.2000 -0.6605
15205TIP3    H167106   0.140   5.400   0.374  0.2947  1.6819 -2.1067
15205TIP3    H267107   0.100   5.412   0.228 -3.8069  5.6345 -0.7751
15206TIP3   OH267108   6.666   3.930  16.583  0.0462 -0.7341 -0.3284
15206TIP3    H167109   6.739   3.871  16.571  0.0109 -1.2623  1.8091
15206TIP3    H267110   6.703   4.017  16.569  1.2678 -0.9474  1.3589
15207TIP3   OH267111   6.414   3.849   1.720  0.3342 -0.1782  0.6592
15207TIP3    H167112   6.418   3.942   1.699  1.1765 -0.3409  0.0549
15207TIP3    H267113   6.395   3.806   1.636  1.5700 -0.6713  0.6188
15208TIP3   OH267114   1.249   1.525  12.050  0.4028 -0.1573  0.3784
15208TIP3    H167115   1.335   1.488  12.029  0.3829 -0.8667  1.5351
15208TIP3    H267116   1.246   1.608  12.001  0.4511 -1.6522 -2.2421
15209TIP3   OH267117   2.056   4.223   3.651 -0.2319 -0.1907 -0.2039
15209TIP3    H167118   1.977   4.171   3.634  1.1639 -2.6883  0.6731
15209TIP3    H267119   2.128   4.161   3.638  1.4468  1.2964  1.7248
15210TIP3   OH267120   1.382   1.013   2.061  0.5248 -0.1027  0.5629
15210TIP3    H167121   1.437   1.088   2.040 -0.8008  1.0471  1.1163
15210TIP3    H267122   1.357   1.025   2.153  0.9573 -1.6476  0.8997
15211TIP3   OH267123   5.842   0.577   1.984 -0.4293  0.1642 -0.1647
15211TIP3    H167124   5.812   0.489   1.961  2.4409 -0.6240 -1.0908
15211TIP3    H267125   5.762   0.628   1.996 -2.1069 -2.1785 -1.2042
15212TIP3   OH267126   2.910   6.178  12.660 -0.7716 -0.1040 -0.2862
15212TIP3    H167127   2.845   6.208  12.597 -0.9450 -0.4636 -0.2786
15212TIP3    H267128   2.871   6.196  12.746  0.6206  2.9745 -0.2277
15213TIP3   OH267129   2.224   4.315   3.153 -0.6973  0.6157  0.1448
15213TIP3    H167130   2.230   4.219   3.157  3.5533  0.8546  2.7581
15213TIP3    H267131   2.277   4.338   3.076 -0.8526  0.9216  0.1307
15214TIP3   OH267132   3.346   0.169   0.790  0.2979  0.4743  0.8398
15214TIP3    H167133   3.351   0.114   0.868 -0.4358 -1.0320 -0.1467
15214TIP3    H267134   3.436   0.196   0.774  0.9578 -1.9000  0.3469
15215TIP3   OH267135   5.412   4.833   2.265 -0.2052  0.0616  0.3549
15215TIP3    H167136   5.370   4.851   2.180  0.5225  0.0100 -0.0204
15215TIP3    H267137   5.349   4.778   2.311  0.0667 -1.2358 -0.7797
15216TIP3   OH267138   2.228   6.523   1.104  0.5726  0.0467  0.0459
15216TIP3    H167139   2.163   6.593   1.102  2.8671  2.3928  2.1442
15216TIP3    H267140   2.265   6.528   1.193  0.8797 -3.7908  0.1867
15217TIP3   OH267141   1.364   4.329  12.037 -0.5432  0.5592 -0.3364
15217TIP3    H167142   1.458   4.311  12.028 -0.6414  0.0168 -0.2713
15217TIP3    H267143   1.343   4.381  11.959 -0.2687  0.3646 -0.5417
15218TIP3   OH267144   3.706   5.731  14.628 -0.0046  0.4810 -0.1758
15218TIP3    H167145   3.797   5.731  14.656  0.2701 -2.4474 -0.8764
15218TIP3    H267146   3.710   5.714  14.534 -1.2883  0.0538 -0.1621
15219TIP3   OH267147   1.867   4.183  14.745  0.0527 -0.8129  0.0288
15219TIP3    H167148   1.881   4.234  14.665  1.0013 -0.8374  0.1749
15219TIP3    H267149   1.775   4.156  14.740 -0.2731  0.3338 -0.3827
15220TIP3   OH267150   2.674   1.864  13.936  0.0980  0.5146 -0.2376
15220TIP3    H167151   2.622   1.922  13.991 -1.4166 -0.6272 -0.4298
15220TIP3    H267152   2.708   1.920  13.867 -1.0477  1.2602 -0.2158
15221TIP3   OH267153   0.750   0.822   1.762 -0.2560 -0.2925  0.3319
15221TIP3    H167154   0.684   0.762   1.728 -1.4923  0.4702  1.3413
15221TIP3    H267155   0.825   0.766   1.784  0.0950 -0.9552 -2.3691
15222TIP3   OH267156   6.239   6.229   6.106 -0.2585  0.1249 -0.6048
15222TIP3    H167157   6.163   6.197   6.057 -0.3270 -0.0176 -0.4089
15222TIP3    H267158   6.265   6.154   6.160 -0.5966  0.4917  0.0737
15223TIP3   OH267159   3.479   4.715  13.501  0.4603 -0.2506 -0.2571
15223TIP3    H167160   3.405   4.771  13.525 -0.0448 -1.1174  0.2550
15223TIP3    H267161   3.536   4.717  13.578 -0.1842 -1.4448  0.2664
15224TIP3   OH267162   6.087   4.900   2.018  0.0994 -0.0872  0.1956
15224TIP3    H167163   6.029   4.829   1.992 -0.8569  0.8244 -0.1717
15224TIP3    H267164   6.044   4.940   2.094 -0.2051  1.1494 -0.6215
15225TIP3   OH267165   5.929   4.126  16.517  0.1463 -0.0838  0.1401
15225TIP3    H167166   5.886   4.050  16.478  0.9796  0.0211 -1.0279
15225TIP3    H267167   5.944   4.185  16.444 -1.4975  1.7240  1.2241
15226TIP3   OH267168   4.799   1.380  13.875  0.3534  0.3933 -0.5131
15226TIP3    H167169   4.804   1.306  13.815  1.0767  0.4314 -0.5045
15226TIP3    H267170   4.821   1.343  13.960 -1.7425  0.1228 -0.0849
15227TIP3   OH267171   0.992   5.523   2.941 -0.1832 -0.3591  0.0817
15227TIP3    H167172   0.953   5.449   2.894  3.3050 -1.4453 -1.2245
15227TIP3    H267173   1.016   5.585   2.872  0.2787  0.3579  0.8804
15228TIP3   OH267174   2.789   1.791  11.998  0.0685  0.4222  0.3973
15228TIP3    H167175   2.758   1.729  11.932  1.0722 -0.0587  0.3770
15228TIP3    H267176   2.794   1.740  12.079 -0.7524  0.9054  0.7575
15229TIP3   OH267177   3.118   6.077   4.201 -0.2385  0.4421 -0.0109
15229TIP3    H167178   3.055   6.146   4.221  0.5059  0.9332  0.6860
15229TIP3    H267179   3.154   6.102   4.116 -0.3142  0.6652  0.0217
15230TIP3   OH267180   4.267   2.855  17.104 -0.0650  0.1708 -0.3007
15230TIP3    H167181   4.245   2.888  17.017  1.5336  0.3601 -0.6579
15230TIP3    H267182   4.360   2.877  17.116  0.2038 -1.3554  0.7434
15231TIP3   OH267183   3.668   1.236  12.250  0.4119  0.6884  0.4973
15231TIP3    H167184   3.688   1.286  12.330  0.8967  0.3632  0.5815
15231TIP3    H267185   3.753   1.217  12.212  0.1691  1.0145 -0.2077
15232TIP3   OH267186   6.492   5.950   2.559 -0.2676  0.3835  0.2312
15232TIP3    H167187   6.573   5.907   2.533 -0.9455  0.7148 -2.6101
15232TIP3    H267188   6.519   6.014   2.625  1.4753 -0.8565  0.7528
15233TIP3   OH267189   2.129   6.751   0.066 -0.2796  0.2235 -0.3731
15233TIP3    H167190   2.188   6.771   0.138 -1.0865 -0.5035  0.5018
15233TIP3    H267191   2.186   6.714  -0.002  0.1863 -1.0635  0.7028
15234TIP3   OH267192   4.247   5.053  16.180 -0.4697  0.2546  0.6483
15234TIP3    H167193   4.158   5.087  16.182 -1.1963 -1.4392 -1.4429
15234TIP3    H267194   4.246   4.984  16.114  2.8044  1.3280 -0.6437
15235TIP3   OH267195   2.464   6.513   4.292  0.2433 -0.7779  0.7330
15235TIP3    H167196   2.370   6.515   4.273  0.7498 -0.8839 -1.9162
15235TIP3    H267197   2.498   6.441   4.238  2.0633  0.1674  0.5944
15236TIP3   OH267198   2.172   4.381   1.168 -0.0539  0.0720 -0.2744
15236TIP3    H167199   2.152   4.306   1.111 -0.4095 -0.0064 -0.0478
15236TIP3    H267200   2.168   4.457   1.110  1.5902 -0.2019 -0.7905
15237TIP3   OH267201   0.053   4.132  13.690  1.0210 -0.1397  0.4567
15237TIP3    H167202  -0.026   4.121  13.637  1.2389 -0.3021  0.1715
15237TIP3    H267203   0.052   4.224  13.716  1.0658  0.0015 -0.0528
15238TIP3   OH267204   0.050   2.392  13.149  0.1653 -0.1876  0.2101
15238TIP3    H167205   0.105   2.336  13.096  1.4615  1.1809  0.0730
15238TIP3    H267206   0.060   2.479  13.110  1.0218  0.8129  2.5802
15239TIP3   OH267207   2.812   3.451  15.079 -0.5265 -0.1353  0.6277
15239TIP3    H167208   2.859   3.534  15.088 -1.6506  0.7114 -1.2017
15239TIP3    H267209   2.789   3.427  15.169 -3.4722  3.4440  0.9137
15240TIP3   OH267210   5.785   1.703   4.363  0.1847 -0.2474 -0.8382
15240TIP3    H167211   5.704   1.733   4.321  0.7513 -0.0061 -1.7864
15240TIP3    H267212   5.839   1.782   4.366  1.2003 -0.8716 -2.1733
15241TIP3   OH267213   4.239   6.584   1.723 -0.5324 -0.2129  0.2229
15241TIP3    H167214   4.215   6.493   1.709 -0.6462 -0.4925  2.1584
15241TIP3    H267215   4.173   6.634   1.673 -0.3966 -1.1644 -0.9296
15242TIP3   OH267216   2.517   1.634   2.853 -0.6143  0.7365 -0.0507
15242TIP3    H167217   2.599   1.672   2.886  0.5299 -0.8149 -1.0719
15242TIP3    H267218   2.542   1.588   2.773 -2.2810 -0.6712  0.2097
15243TIP3   OH267219   5.063   3.010  16.997  0.0556 -0.2091 -0.0551
15243TIP3    H167220   5.017   3.016  17.081  1.2320 -0.4437  0.6190
15243TIP3    H267221   4.996   2.983  16.935 -1.0568  1.0227  0.5997
15244TIP3   OH267222   2.427   2.557   0.109 -0.1685  0.7127  0.0079
15244TIP3    H167223   2.456   2.466   0.099  1.0134  1.1828 -0.8714
15244TIP3    H267224   2.352   2.551   0.169 -0.5746 -0.9202 -0.6250
15245TIP3   OH267225   0.719   1.709   2.389  0.4253  0.3664 -0.2689
15245TIP3    H167226   0.708   1.728   2.296 -0.1729  0.9753 -0.0789
15245TIP3    H267227   0.673   1.626   2.402 -3.2650  2.3691  0.3054
15246TIP3   OH267228   0.138   6.124   6.688  0.2956 -0.3547  0.2548
15246TIP3    H167229   0.078   6.097   6.619 -0.3555 -0.7741  0.9888
15246TIP3    H267230   0.205   6.056   6.689 -1.1783 -1.8060  1.8982
15247TIP3   OH267231   6.350   6.068   1.275 -0.1517  0.1176 -0.4395
15247TIP3    H167232   6.301   6.146   1.301 -0.2594  0.2155 -0.9230
15247TIP3    H267233   6.317   6.048   1.187 -1.0624 -1.2326  0.1901
15248TIP3   OH267234   4.753   2.500  16.055 -0.6961  0.4548  0.1962
15248TIP3    H167235   4.795   2.421  16.022  0.3861  2.4348 -3.3913
15248TIP3    H267236   4.822   2.566  16.057 -2.3792  2.3217 -0.6028
15249TIP3   OH267237   3.866   0.273  13.747  0.0280 -0.7273  0.2617
15249TIP3    H167238   3.909   0.290  13.830 -1.5698  0.7287  0.8114
15249TIP3    H267239   3.917   0.322  13.682  1.5919 -2.2890  0.2577
15250TIP3   OH267240   4.790   1.403  13.041 -0.1880  0.3640 -0.1444
15250TIP3    H167241   4.809   1.483  13.090 -0.2152  0.7349 -0.7194
15250TIP3    H267242   4.754   1.435  12.958 -2.0645 -0.2808  0.3846
15251TIP3   OH267243   1.589   3.335   1.496  0.3200 -0.2473  0.6602
15251TIP3    H167244   1.573   3.282   1.417  0.2348 -1.5704  1.5569
15251TIP3    H267245   1.516   3.396   1.499 -0.0579 -0.6607  0.1050
15252TIP3   OH267246   3.651   4.828  12.249  0.1873 -0.5600 -0.1095
15252TIP3    H167247   3.578   4.887  12.233  3.3089  2.5675 -3.8006
15252TIP3    H267248   3.629   4.750  12.198 -1.0462 -0.0976 -0.3121
15253TIP3   OH267249   5.852   0.036   3.029  0.1811 -0.4936  0.4391
15253TIP3    H167250   5.814  -0.003   2.950 -1.3793 -1.1581  1.4910
15253TIP3    H267251   5.803  -0.004   3.101  1.5558  0.1465  1.7397
15254TIP3   OH267252   4.243   5.036  15.449  0.4649  0.1196  0.2832
15254TIP3    H167253   4.183   5.097  15.493 -0.3150 -0.8046  0.5304
15254TIP3    H267254   4.285   5.088  15.381 -0.0459  0.9785  0.6154
15255TIP3   OH267255   2.005   4.922   4.140  0.2746 -0.1070  0.2839
15255TIP3    H167256   1.994   5.012   4.171  1.2370  0.1339 -0.0644
15255TIP3    H267257   2.095   4.918   4.109  0.6039 -1.5220  1.3680
15256TIP3   OH267258   1.452   5.219   3.394  0.5178 -0.2266 -0.2858
15256TIP3    H167259   1.418   5.163   3.463 -0.3109 -0.9415 -1.2628
15256TIP3    H267260   1.505   5.162   3.339  1.9229  0.5289  0.2617
15257TIP3   OH267261   4.178   3.411   3.954 -0.5749 -0.1475 -0.3502
15257TIP3    H167262   4.151   3.330   3.911 -0.3835 -1.4119  1.8078
15257TIP3    H267263   4.259   3.436   3.909  0.8732 -2.6986  0.6851
15258TIP3   OH267264   2.356   3.271  12.150 -0.3178  0.8344 -0.2868
15258TIP3    H167265   2.414   3.247  12.223 -0.7547  0.2134 -0.1370
15258TIP3    H267266   2.409   3.258  12.072  0.0277  1.1167 -0.0974
15259TIP3   OH267267   4.145   6.682  12.554  0.6418 -0.6322  0.2209
15259TIP3    H167268   4.172   6.632  12.631 -0.7151  0.2262  1.2805
15259TIP3    H267269   4.111   6.764  12.590  1.3916  0.4109 -1.3967
15260TIP3   OH267270   2.537   1.469   5.146 -0.4470 -0.0076  0.2089
15260TIP3    H167271   2.612   1.526   5.160 -0.2979 -0.1431 -0.0476
15260TIP3    H267272   2.504   1.493   5.059  0.2945 -1.0890 -0.3785
15261TIP3   OH267273   1.514   3.851   5.011 -0.4548 -0.0258  0.1619
15261TIP3    H167274   1.468   3.827   4.930  1.2076  0.3909 -0.9292
15261TIP3    H267275   1.563   3.773   5.035  0.7266  0.5294 -0.4193
15262TIP3   OH267276   0.053   5.845  12.797  0.0883 -0.3769  0.2387
15262TIP3    H167277   0.048   5.808  12.885  0.2583  0.6074  0.6764
15262TIP3    H267278   0.029   5.774  12.739 -2.0656 -0.4634  1.2121
15263TIP3   OH267279   4.762   3.834  11.045 -0.0749  0.8961 -0.1863
15263TIP3    H167280   4.779   3.814  10.953  0.0012  0.3178 -0.0475
15263TIP3    H267281   4.776   3.751  11.090 -3.7049  0.2620 -0.1024
15264TIP3   OH267282   0.323   2.617  12.307  0.0362 -0.1865  0.2721
15264TIP3    H167283   0.350   2.693  12.257 -0.9055 -1.5042 -2.3447
15264TIP3    H267284   0.376   2.545  12.271 -0.7180 -1.1670  1.0898
15265TIP3   OH267285   2.172   1.378  16.829 -0.5579  0.2836  0.7940
15265TIP3    H167286   2.079   1.390  16.849 -1.3006 -2.2967 -0.8148
15265TIP3    H267287   2.192   1.290  16.862  1.1222  0.4930  0.3938
15266TIP3   OH267288   5.456   4.554  16.150  0.2709 -0.5698  0.0731
15266TIP3    H167289   5.364   4.526  16.151 -0.1125  0.6374 -0.4458
15266TIP3    H267290   5.502   4.482  16.106 -0.5886 -0.7373 -0.5765
15267TIP3   OH267291   1.822   6.736  11.717 -0.1873  0.4338 -0.0165
15267TIP3    H167292   1.767   6.696  11.785  1.5848 -2.2486 -0.0880
15267TIP3    H267293   1.912   6.718  11.744  0.6578  2.8415 -1.0481
15268TIP3   OH267294   5.519   3.221   1.800 -0.3622 -0.9956 -0.2429
15268TIP3    H167295   5.600   3.218   1.749 -1.4905 -0.2272 -2.0989
15268TIP3    H267296   5.483   3.132   1.792 -0.7804 -0.7448 -1.1956
15269TIP3   OH267297   2.601   3.509  17.188  0.1966 -0.1372  0.0235
15269TIP3    H167298   2.691   3.520  17.158 -0.2113  1.0258 -0.8385
15269TIP3    H267299   2.554   3.583  17.150 -0.7941  0.1826  1.7991
15270TIP3   OH267300   2.392   5.004   2.008  0.2402  0.7387  0.1080
15270TIP3    H167301   2.298   5.014   1.993  0.6016  0.7954 -2.3383
15270TIP3    H267302   2.425   5.094   2.005  0.5233  0.6245 -0.1752
15271TIP3   OH267303   3.423   5.682  12.975  0.3207 -0.2129 -0.2634
15271TIP3    H167304   3.361   5.650  12.910 -1.1784  0.4784  0.7936
15271TIP3    H267305   3.465   5.603  13.009 -1.1011 -0.8226  0.1172
15272TIP3   OH267306   5.165   4.550   0.482  0.0927  0.9351  0.0630
15272TIP3    H167307   5.118   4.620   0.436 -1.1851  1.1757  1.6794
15272TIP3    H267308   5.221   4.596   0.545 -0.6847  0.5459  1.0699
15273TIP3   OH267309   6.737   3.768   4.528 -0.8402  0.4147  0.5812
15273TIP3    H167310   6.665   3.721   4.570 -1.6701 -0.0912 -1.3039
15273TIP3    H267311   6.736   3.736   4.437 -0.4364  2.9185 -0.3575
15274TIP3   OH267312   5.931   4.450  15.735  0.6711 -0.0882 -0.0616
15274TIP3    H167313   5.881   4.502  15.672  0.2200  0.4837  0.7608
15274TIP3    H267314   6.014   4.496  15.744  0.9793 -0.5068 -0.6922
15275TIP3   OH267315   2.446   5.789   0.806 -0.2478 -0.0071 -0.1372
15275TIP3    H167316   2.446   5.854   0.736 -0.3109  0.3551  0.2004
15275TIP3    H267317   2.383   5.722   0.778 -0.1412  0.0496 -0.5069
15276TIP3   OH267318   5.658   3.519   4.923  0.2796 -0.5702  0.6259
15276TIP3    H167319   5.693   3.434   4.897 -2.7653 -2.8336  3.4670
15276TIP3    H267320   5.672   3.523   5.018  0.1978  2.0058  0.5553
15277TIP3   OH267321   0.182   6.126  16.161  0.5115  0.6567  0.0301
15277TIP3    H167322   0.201   6.188  16.091  0.6848  1.1419  0.5067
15277TIP3    H267323   0.087   6.125  16.167  0.5240  1.2232  0.3335
15278TIP3   OH267324   0.674   6.028  16.297 -0.2689  0.0451 -0.2429
15278TIP3    H167325   0.685   6.060  16.207 -0.0322 -0.6792 -0.4726
15278TIP3    H267326   0.762   6.000  16.323 -0.2556  0.6411  0.3668
15279TIP3   OH267327   3.341   3.599   4.309 -0.4130  0.1178  0.4916
15279TIP3    H167328   3.412   3.565   4.363 -0.6229 -1.4756 -0.2090
15279TIP3    H267329   3.267   3.609   4.369 -0.0912  0.1835  0.8806
15280TIP3   OH267330   1.139   3.847   1.099 -0.2874 -0.0210 -0.3351
15280TIP3    H167331   1.129   3.920   1.159 -0.0697  1.8767 -2.5229
15280TIP3    H267332   1.178   3.777   1.151  1.8875  2.2912  1.2021
15281TIP3   OH267333   1.941   4.568  13.023  0.2116 -0.4929  0.0175
15281TIP3    H167334   2.031   4.601  13.013 -0.4783  1.8270  1.1400
15281TIP3    H267335   1.952   4.478  13.052  2.1889 -0.4801 -0.6019
15282TIP3   OH267336   0.989   1.202  15.183  0.3413 -0.5069 -0.0030
15282TIP3    H167337   1.003   1.184  15.090  1.7618  1.2687 -0.1573
15282TIP3    H267338   1.049   1.145  15.229  0.7738 -0.2500 -0.2492
15283TIP3   OH267339   3.288   3.822  13.577 -0.4060  0.2392 -0.3279
15283TIP3    H167340   3.237   3.863  13.507 -2.9718 -1.8408  0.2335
15283TIP3    H267341   3.275   3.879  13.652 -1.1364  0.2116 -0.4344
15284TIP3   OH267342   4.288   3.116   2.027  0.0505 -0.8757  0.1316
15284TIP3    H167343   4.337   3.193   2.057 -0.8170 -0.7467  1.2516
15284TIP3    H267344   4.282   3.128   1.932  1.7032 -0.6205  0.0402
15285TIP3   OH267345   5.716   5.048   1.469 -0.3571 -0.0866  0.2881
15285TIP3    H167346   5.636   5.100   1.467 -0.0588  0.4053  1.0195
15285TIP3    H267347   5.698   4.974   1.410 -1.0330  0.4643 -0.1996
15286TIP3   OH267348   2.596   0.781  12.650 -0.0793  0.1515 -0.0780
15286TIP3    H167349   2.671   0.725  12.665 -0.1754  0.4424  1.5531
15286TIP3    H267350   2.623   0.840  12.579  1.4930  0.7323  0.9739
15287TIP3   OH267351   5.630   1.945  13.057  0.3226  0.2997 -0.2830
15287TIP3    H167352   5.648   1.852  13.046 -0.0388 -0.0401  1.7456
15287TIP3    H267353   5.540   1.956  13.027 -0.2373 -0.3519  1.1397
15288TIP3   OH267354   0.764   2.054   2.267  0.1477  0.2800  0.5802
15288TIP3    H167355   0.715   2.133   2.291  1.1354  1.4934 -1.2955
15288TIP3    H267356   0.735   2.034   2.178  1.4327 -0.2792  0.2806
15289TIP3   OH267357   4.004   1.547  11.845 -0.7601 -0.5286 -0.3555
15289TIP3    H167358   3.929   1.580  11.894  0.0215 -0.9701  1.2044
15289TIP3    H267359   3.989   1.575  11.755 -3.2886 -1.4576 -0.2759
15290TIP3   OH267360   4.437   2.658  11.847  0.1751 -0.1774  0.5151
15290TIP3    H167361   4.466   2.567  11.854 -0.4250 -0.4453 -0.3242
15290TIP3    H267362   4.516   2.710  11.859  0.4158 -0.7965  1.6442
15291TIP3   OH267363   3.177   0.173   2.867  0.4753 -0.1262 -0.0646
15291TIP3    H167364   3.268   0.173   2.897  0.5237  1.1623 -0.1860
15291TIP3    H267365   3.175   0.106   2.798  1.7679  1.0937 -1.3278
15292TIP3   OH267366   3.666   5.006  15.415  0.5279  0.7336 -0.1516
15292TIP3    H167367   3.626   4.921  15.399 -0.4252  1.2313 -0.4952
15292TIP3    H267368   3.756   4.996  15.386 -0.0217  0.3337 -1.8274
15293TIP3   OH267369   3.604   5.822  12.428 -0.4379 -0.1123  0.4513
15293TIP3    H167370   3.635   5.770  12.502  2.9138 -1.0500 -1.4630
15293TIP3    H267371   3.614   5.913  12.456  1.1179 -0.4552  1.0645
15294TIP3   OH267372   0.516   3.146  12.501  0.1923  0.2065  0.0175
15294TIP3    H167373   0.535   3.190  12.418 -2.5226 -0.4674 -0.9936
15294TIP3    H267374   0.460   3.207  12.549 -0.7026 -0.6397  0.0769
15295TIP3   OH267375   5.731   6.290  10.958  0.1473  0.3653  0.0820
15295TIP3    H167376   5.805   6.237  10.985  0.0785 -0.1034 -0.6268
15295TIP3    H267377   5.725   6.359  11.024  1.1220  0.3258  0.2214
15296TIP3   OH267378   3.460   2.301  16.015 -0.0214 -0.1924 -0.4050
15296TIP3    H167379   3.545   2.345  16.019 -0.7607  1.2952 -0.7733
15296TIP3    H267380   3.396   2.370  16.035 -1.0526 -1.6266  1.4634
15297TIP3   OH267381   0.385   0.066   3.551  0.6840  0.2767  0.3183
15297TIP3    H167382   0.450   0.137   3.548 -0.9680  1.7996 -1.2658
15297TIP3    H267383   0.301   0.111   3.547 -0.4324 -1.7340  0.7284
15298TIP3   OH267384   3.008   0.696  15.778  0.1564  0.8930 -0.1024
15298TIP3    H167385   3.101   0.677  15.765  0.4822  2.4524 -0.1899
15298TIP3    H267386   2.982   0.747  15.701 -1.0346 -0.3712 -0.5600
15299TIP3   OH267387   6.313   6.263   0.208 -0.2778  0.5502  0.0704
15299TIP3    H167388   6.329   6.336   0.268 -0.6076  0.3262  0.4308
15299TIP3    H267389   6.233   6.223   0.240  0.6192 -0.7841  0.6702
15300TIP3   OH267390   3.552   2.141  13.827 -0.3640  0.5282  0.2000
15300TIP3    H167391   3.596   2.056  13.821  0.3884  0.9072  0.1854
15300TIP3    H267392   3.568   2.182  13.741 -0.6387  0.7171  0.2388
15301TIP3   OH267393   2.167   6.043  13.763  0.1639 -0.5974  0.1476
15301TIP3    H167394   2.246   6.091  13.738  0.4438 -0.9099  0.4128
15301TIP3    H267395   2.185   6.013  13.853 -0.4431 -0.2820  0.3707
15302TIP3   OH267396   4.936   6.462  13.410 -0.3288  0.0190  0.0714
15302TIP3    H167397   4.883   6.399  13.362 -0.9787  0.4221  0.2602
15302TIP3    H267398   4.993   6.408  13.465 -0.8092 -0.3995  0.1562
15303TIP3   OH267399   1.310   2.698  13.817  0.0384 -0.1175  0.3554
15303TIP3    H167400   1.333   2.640  13.889 -1.8035 -1.0038  0.2679
15303TIP3    H267401   1.252   2.763  13.857  0.7144  0.6568  0.0952
15304TIP3   OH267402   6.039   3.764   5.911  0.4634 -0.2057  0.2108
15304TIP3    H167403   6.113   3.705   5.893  0.1474 -0.4004 -0.4708
15304TIP3    H267404   6.015   3.745   6.002  0.6709 -0.7844  0.1469
15305TIP3   OH267405   2.230   3.408   3.713  0.5384  0.3472  0.5918
15305TIP3    H167406   2.260   3.342   3.776  1.6592 -0.5646 -0.8674
15305TIP3    H267407   2.226   3.361   3.629 -0.9723  1.5339 -0.0308
15306TIP3   OH267408   3.221   3.604  12.949  0.4677 -0.3452 -0.2626
15306TIP3    H167409   3.256   3.647  12.871  2.0236 -1.3537 -0.1271
15306TIP3    H267410   3.160   3.668  12.986  1.3012  0.9716 -1.1307
15307TIP3   OH267411   3.663   3.376   0.716  0.5856 -0.1659  0.1640
15307TIP3    H167412   3.672   3.286   0.748  2.7898 -0.2819 -0.6648
15307TIP3    H267413   3.753   3.404   0.702 -0.2107  1.1067 -2.5492
15308TIP3   OH267414   0.827   6.237  16.495 -0.4924  0.0183 -0.7363
15308TIP3    H167415   0.801   6.271  16.410 -1.0949  1.3051 -0.0635
15308TIP3    H267416   0.744   6.225  16.542 -0.0558  1.7405  0.5447
15309TIP3   OH267417   1.101   4.661  14.092  0.4001 -0.3754  0.4080
15309TIP3    H167418   1.171   4.727  14.095 -0.9077  1.0679 -0.1905
15309TIP3    H267419   1.123   4.607  14.016  1.4024 -0.5378  0.8091
15310TIP3   OH267420   3.710   6.089   4.252 -0.1223 -0.5294 -0.6052
15310TIP3    H167421   3.660   6.011   4.277 -0.3033 -0.6267 -1.2474
15310TIP3    H267422   3.644   6.156   4.236  0.0648 -0.0481  0.5618
15311TIP3   OH267423   3.423   2.311   2.009  0.5688 -0.0727  0.2766
15311TIP3    H167424   3.378   2.253   1.948  0.8670  0.2683 -0.2760
15311TIP3    H267425   3.353   2.362   2.049  0.4350  0.3466 -0.4695
15312TIP3   OH267426   5.982   5.309  12.461  0.9662  0.8106 -0.0022
15312TIP3    H167427   5.970   5.402  12.482 -0.9812  0.3871  0.8094
15312TIP3    H267428   6.028   5.274  12.537  1.9819  1.1482 -0.4428
15313TIP3   OH267429   1.785   3.768  14.754 -0.1701  0.1796 -0.9119
15313TIP3    H167430   1.859   3.780  14.695 -0.4573  0.7232 -1.1643
15313TIP3    H267431   1.708   3.771  14.696 -0.3940 -0.3407 -0.6477
15314TIP3   OH267432   5.620   0.899  11.621  0.1444 -0.2285  0.2927
15314TIP3    H167433   5.645   0.910  11.529  2.3400  1.0341  1.0017
15314TIP3    H267434   5.547   0.960  11.633 -0.1000 -0.3358 -0.5985
15315TIP3   OH267435   6.282   2.233   0.769  0.0711 -0.7377 -0.2427
15315TIP3    H167436   6.313   2.299   0.832 -0.4631 -2.3825  1.7782
15315TIP3    H267437   6.273   2.282   0.686  1.2709  1.3429  0.8132
15316TIP3   OH267438   5.247   2.317  14.626 -0.0336 -0.1452 -0.5445
15316TIP3    H167439   5.263   2.310  14.721 -2.5908 -2.3413 -0.2213
15316TIP3    H267440   5.310   2.256  14.587 -2.4333 -3.2060  0.1835
15317TIP3   OH267441   0.980   5.817   4.806  0.3009  0.0019 -0.2982
15317TIP3    H167442   0.924   5.855   4.739  0.5834  0.9004 -0.0275
15317TIP3    H267443   1.069   5.836   4.775  0.4279  0.7479  0.5204
15318TIP3   OH267444   3.044   6.297   0.861  0.4904 -0.2417 -0.2885
15318TIP3    H167445   3.037   6.264   0.771  0.8561  0.4127 -0.5619
15318TIP3    H267446   3.031   6.391   0.853  0.2977 -0.2069  0.3807
15319TIP3   OH267447   5.605   6.432   4.815  0.2510 -0.2268 -0.3211
15319TIP3    H167448   5.510   6.435   4.826  0.1102  0.6267 -1.7092
15319TIP3    H267449   5.630   6.520   4.788  1.2037 -0.9086 -1.7628
15320TIP3   OH267450   1.234   4.487   4.942 -0.2927  0.5513 -0.0448
15320TIP3    H167451   1.196   4.573   4.921  0.5511  0.5615 -1.6618
15320TIP3    H267452   1.326   4.506   4.961 -0.1875  0.0500 -0.0607
15321TIP3   OH267453   6.594   0.902  11.736  0.6312 -1.0169 -0.3708
15321TIP3    H167454   6.658   0.889  11.666  0.2285  0.7102 -1.0888
15321TIP3    H267455   6.642   0.949  11.804  0.2865 -0.2559 -0.6541
15322TIP3   OH267456   2.786   5.420  16.093 -0.0158 -0.0364  0.0506
15322TIP3    H167457   2.826   5.334  16.078 -0.2234 -0.0557 -0.3894
15322TIP3    H267458   2.741   5.441  16.011 -1.6311 -0.4079  0.8163
15323TIP3   OH267459   4.975   3.398  11.396 -0.2734  0.1272 -0.2914
15323TIP3    H167460   5.036   3.472  11.408  0.0482  0.2989 -2.7978
15323TIP3    H267461   4.937   3.385  11.483 -1.5959  4.3478 -0.0930
15324TIP3   OH267462   3.898   3.212   4.179  0.2413 -0.2516  0.2806
15324TIP3    H167463   3.977   3.168   4.148  0.0401  0.0770 -0.7347
15324TIP3    H267464   3.904   3.210   4.274  0.4207 -2.1434  0.2472
15325TIP3   OH267465   2.104   3.012   1.675  0.5784  0.2163  0.2524
15325TIP3    H167466   2.156   2.935   1.650  1.4902  0.7963  0.3483
15325TIP3    H267467   2.097   3.064   1.595  0.9070  0.5753  0.4532
15326TIP3   OH267468   2.065   5.009  14.341 -0.0028 -0.5939 -0.3047
15326TIP3    H167469   1.987   5.010  14.397  0.8489 -0.6321  0.9052
15326TIP3    H267470   2.090   5.100  14.332  0.9842 -0.7276  0.9881
15327TIP3   OH267471   4.029   1.800   2.076  0.0111 -0.1002 -0.3390
15327TIP3    H167472   4.045   1.887   2.112 -0.4977  1.1844 -3.0653
15327TIP3    H267473   3.939   1.779   2.102  0.2257  0.0599  0.5494
15328TIP3   OH267474   4.306   1.654   4.112 -0.1016  0.0385 -0.1018
15328TIP3    H167475   4.231   1.602   4.138  0.1982 -0.3885 -0.0881
15328TIP3    H267476   4.381   1.609   4.152  0.1716  0.3945 -0.2124
15329TIP3   OH267477   2.615   0.279  13.761 -0.3831 -0.0374  0.9692
15329TIP3    H167478   2.701   0.300  13.725  0.2679  0.0771  2.5529
15329TIP3    H267479   2.628   0.194  13.803 -1.7002 -1.2428 -0.9626
15330TIP3   OH267480   1.908   5.584  16.796 -0.2567 -0.4546  0.2820
15330TIP3    H167481   1.905   5.535  16.714 -0.9303 -1.1068  0.6918
15330TIP3    H267482   1.817   5.589  16.824 -0.2751  1.5838 -0.0699
15331TIP3   OH267483   0.646   4.781  12.341  0.1722  0.8034  0.0778
15331TIP3    H167484   0.666   4.821  12.426  0.1122  2.4783 -0.6876
15331TIP3    H267485   0.570   4.725  12.358  0.2888  0.9710  1.1677
15332TIP3   OH267486   4.369   6.542   0.274  0.2471 -0.4039  0.3139
15332TIP3    H167487   4.311   6.474   0.308 -1.3674  0.6342 -0.3519
15332TIP3    H267488   4.422   6.496   0.208 -2.9538 -0.4036 -2.4011
15333TIP3   OH267489   5.112   3.486   5.701  0.1075  0.3868 -0.2959
15333TIP3    H167490   5.036   3.523   5.657  0.6282 -0.3556 -1.8781
15333TIP3    H267491   5.078   3.409   5.747 -0.1183  0.0677 -0.9821
15334TIP3   OH267492   0.595   2.390  12.600 -0.3387  0.1220 -0.6440
15334TIP3    H167493   0.662   2.418  12.662  0.1032 -1.2718 -0.4862
15334TIP3    H267494   0.643   2.367  12.521 -0.8733  1.5685 -1.4220
15335TIP3   OH267495   2.840   3.113   5.213  0.3207  0.4316 -0.0938
15335TIP3    H167496   2.920   3.085   5.169 -0.5002 -1.5296 -0.3381
15335TIP3    H267497   2.822   3.200   5.177  0.9385 -0.1809 -1.8973
15336TIP3   OH267498   0.367   2.290   3.392 -0.0320 -0.4428  0.1138
15336TIP3    H167499   0.420   2.338   3.328  1.4005 -0.1789  1.4447
15336TIP3    H267500   0.382   2.337   3.474 -1.1765 -1.2700  0.7996
15337TIP3   OH267501   5.381   4.823  16.265 -0.3465  0.4405  0.3424
15337TIP3    H167502   5.411   4.740  16.229  2.9402  1.8593 -0.4534
15337TIP3    H267503   5.374   4.807  16.359  1.1983 -0.5234  0.3226
15338TIP3   OH267504   5.265   0.432  14.008  0.0724  0.4597 -0.3540
15338TIP3    H167505   5.237   0.523  14.003 -2.5167 -0.3125 -0.6387
15338TIP3    H267506   5.238   0.404  14.096  1.4301  0.1269 -0.0284
15339TIP3   OH267507   6.475   5.210   4.016 -0.2790 -0.5537 -0.2317
15339TIP3    H167508   6.407   5.223   4.082 -0.4879  0.8456 -0.7022
15339TIP3    H267509   6.442   5.257   3.939  2.3267  2.2765  0.2708
15340TIP3   OH267510   0.072   1.537   0.053  0.9090  0.3304 -0.0265
15340TIP3    H167511   0.026   1.537   0.137  0.0040  0.5573 -0.5178
15340TIP3    H267512   0.003   1.542  -0.013  1.6560  1.1523 -0.7671
15341TIP3   OH267513   4.242   3.893   3.817  0.2232  0.0176 -0.0284
15341TIP3    H167514   4.183   3.966   3.799 -0.9998 -0.8793  0.3084
15341TIP3    H267515   4.186   3.815   3.818  1.0335 -0.5945  2.4978
15342TIP3   OH267516   0.287   2.866  13.307  0.3369 -0.2526 -0.4876
15342TIP3    H167517   0.296   2.951  13.352 -1.6286 -0.0928 -0.3458
15342TIP3    H267518   0.319   2.882  13.219  0.6860  0.4452 -0.2382
15343TIP3   OH267519   3.136   2.624  16.850  0.0342  0.1446 -0.4868
15343TIP3    H167520   3.083   2.635  16.929 -0.3282  0.6647 -0.8014
15343TIP3    H267521   3.080   2.653  16.779  0.3721 -0.2908 -0.9381
15344TIP3   OH267522   6.727   4.236   5.651 -0.2979 -0.1946  0.0355
15344TIP3    H167523   6.763   4.316   5.689 -1.1323  0.0402  0.3481
15344TIP3    H267524   6.760   4.165   5.706  0.9787 -0.1359 -0.6318
15345TIP3   OH267525   0.066   2.513  12.724  0.1087  0.1285  0.4177
15345TIP3    H167526   0.036   2.603  12.721  0.7640  0.3530  0.5663
15345TIP3    H267527   0.150   2.514  12.678  0.0493 -0.4335  0.2868
15346TIP3   OH267528   4.790   0.005   5.370 -0.3379  0.0769 -0.5183
15346TIP3    H167529   4.730   0.077   5.392 -0.7297 -0.5874  0.6241
15346TIP3    H267530   4.864   0.048   5.327 -1.3187  0.9838 -1.3516
15347TIP3   OH267531   4.179   4.495  14.147  0.1932 -0.4240  0.2803
15347TIP3    H167532   4.263   4.493  14.192  0.7269  1.1477 -0.6065
15347TIP3    H267533   4.172   4.584  14.114 -0.9274 -1.1035 -1.3490
15348TIP3   OH267534   6.606   1.343   4.727 -0.2241  0.5927 -0.0322
15348TIP3    H167535   6.647   1.410   4.672  2.1892 -0.4724  0.4046
15348TIP3    H267536   6.598   1.267   4.670 -1.7078  0.7998 -0.1289
15349TIP3   OH267537   3.878   0.024  16.867 -0.3081  0.1902 -0.1249
15349TIP3    H167538   3.938   0.099  16.869 -1.1431  0.8521  0.5335
15349TIP3    H267539   3.843   0.024  16.778 -1.0306  1.1667  0.1594
15350TIP3   OH267540   0.417   5.755   6.375  0.3516  0.4702 -0.2018
15350TIP3    H167541   0.395   5.673   6.419  0.5295  1.3501  1.5844
15350TIP3    H267542   0.513   5.758   6.378  0.3014  1.3283  0.8739
15351TIP3   OH267543   1.356   4.007   1.087  0.0204 -0.0436 -0.2104
15351TIP3    H167544   1.295   3.936   1.069  2.6168 -2.2489 -0.6869
15351TIP3    H267545   1.384   3.993   1.177  0.5832  0.3438 -0.3196
15352TIP3   OH267546   2.409   4.884  12.492 -0.0398  0.2394  0.0688
15352TIP3    H167547   2.389   4.892  12.399 -3.5708  0.8172  0.8131
15352TIP3    H267548   2.433   4.972  12.520  1.2596  0.0178 -0.3274
15353TIP3   OH267549   5.094   4.541   4.470 -0.1628  0.1147  0.4568
15353TIP3    H167550   5.161   4.610   4.476 -0.4694  0.2825  2.6929
15353TIP3    H267551   5.091   4.505   4.559 -1.1231 -1.7320 -0.3137
15354TIP3   OH267552   5.144   3.567   6.661 -0.1876  0.3124  0.5559
15354TIP3    H167553   5.176   3.631   6.597  0.4228 -0.5298 -0.0007
15354TIP3    H267554   5.216   3.504   6.669 -1.0682 -0.6961  0.5537
15355TIP3   OH267555   2.408   0.612  13.289 -0.6475  0.0852  0.1046
15355TIP3    H167556   2.337   0.629  13.227 -2.5689 -0.9308  1.9869
15355TIP3    H267557   2.392   0.672  13.362 -0.2156 -0.9344  1.0482
15356TIP3   OH267558   4.212   0.983  13.805  0.0075 -0.1800 -0.3748
15356TIP3    H167559   4.181   1.067  13.839 -0.2711  0.3639 -1.9409
15356TIP3    H267560   4.242   0.936  13.882 -0.3020  1.1617  0.5851
15357TIP3   OH267561   1.659   1.338  15.335 -0.5818 -0.5176 -0.0758
15357TIP3    H167562   1.564   1.338  15.347 -0.3645  2.1890  2.3002
15357TIP3    H267563   1.679   1.427  15.306  1.1118 -1.4688 -1.9507
15358TIP3   OH267564   0.464   1.921   2.322  0.1830  0.0112  0.5075
15358TIP3    H167565   0.376   1.885   2.337 -0.7173  1.4646 -1.1553
15358TIP3    H267566   0.522   1.859   2.367 -1.3174 -3.3549 -1.9366
15359TIP3   OH267567   5.259   3.623  15.851 -0.4399  0.4474  0.0974
15359TIP3    H167568   5.165   3.612  15.867 -0.1212  0.4726  2.0198
15359TIP3    H267569   5.283   3.700  15.901  0.7886 -0.0448  0.2773
15360TIP3   OH267570   6.080   5.177  14.628 -0.4276  0.4524  0.1065
15360TIP3    H167571   6.073   5.174  14.723 -0.6637  0.5698  0.0927
15360TIP3    H267572   5.999   5.219  14.599 -0.3123  0.5071 -0.1404
15361TIP3   OH267573   1.198   2.288   0.257  0.4573  0.4635 -0.2584
15361TIP3    H167574   1.133   2.223   0.231 -0.2356  0.3443  1.7027
15361TIP3    H267575   1.250   2.302   0.178 -0.9151 -0.6505 -1.3961
15362TIP3   OH267576   5.431   2.728   1.705  0.0934  0.7548 -0.0447
15362TIP3    H167577   5.338   2.706   1.712  0.2318  0.2537  0.1952
15362TIP3    H267578   5.432   2.804   1.645 -0.4077  0.3507 -0.5784
15363TIP3   OH267579   3.005   1.772   1.404 -0.0149 -0.2501 -0.1347
15363TIP3    H167580   3.100   1.765   1.414  0.1857  0.5297 -1.5255
15363TIP3    H267581   2.974   1.681   1.411  1.0066 -0.7095 -1.4567
15364TIP3   OH267582   0.074   1.570   0.563  0.1263 -0.5449  0.7350
15364TIP3    H167583   0.155   1.621   0.558  0.6251 -1.2742  1.2173
15364TIP3    H267584   0.014   1.625   0.614  0.5769 -0.3334  1.0400
15365TIP3   OH267585   1.874   1.605  14.046  0.3784  0.2664 -0.0059
15365TIP3    H167586   1.870   1.688  13.997 -0.3336  1.6765  2.3616
15365TIP3    H267587   1.785   1.594  14.081  0.6505 -1.1709  0.2355
15366TIP3   OH267588   6.607   4.376  15.240 -0.2502 -0.7918  0.7391
15366TIP3    H167589   6.533   4.375  15.179  1.7106  1.2707 -1.7492
15366TIP3    H267590   6.598   4.458  15.288  0.1526 -0.7526  0.7495
15367TIP3   OH267591   3.511   2.608  12.751  0.2225  0.2847 -0.3834
15367TIP3    H167592   3.595   2.565  12.763  0.5769  1.0379 -0.1350
15367TIP3    H267593   3.524   2.697  12.786 -1.1956 -0.1516  1.2928
15368TIP3   OH267594   3.248   1.782   2.692  0.0036  0.2046  0.0084
15368TIP3    H167595   3.299   1.821   2.762 -0.3783  1.1008 -0.2058
15368TIP3    H267596   3.172   1.743   2.736  1.1812 -1.7092  0.4020
15369TIP3   OH267597   1.286   5.869   2.017 -0.4296  0.0313  0.1115
15369TIP3    H167598   1.366   5.922   2.012 -0.6396  0.2734 -0.7194
15369TIP3    H267599   1.221   5.928   2.055 -0.2802 -0.0955  0.5751
15370TIP3   OH267600   6.524   6.369   0.826 -0.0449  0.2750 -0.2743
15370TIP3    H167601   6.471   6.445   0.849 -1.0291 -0.7907  1.0694
15370TIP3    H267602   6.570   6.346   0.907 -0.4009 -1.0560 -0.4301
15371TIP3   OH267603   2.933   5.510  12.376 -0.4400 -0.3685 -0.0182
15371TIP3    H167604   2.968   5.529  12.463  3.4471  0.6302 -1.6944
15371TIP3    H267605   2.930   5.415  12.371  0.3222 -0.4436  0.8501
15372TIP3   OH267606   1.180   3.495   0.207  0.2607  0.5140 -0.1113
15372TIP3    H167607   1.224   3.465   0.127 -3.0906  2.0027 -2.6736
15372TIP3    H267608   1.162   3.415   0.256  0.8710 -0.6317 -1.6909
15373TIP3   OH267609   6.769   5.077   4.180 -0.9829  0.1872  0.3002
15373TIP3    H167610   6.742   5.092   4.271 -2.0190 -0.6620  0.1493
15373TIP3    H267611   6.851   5.029   4.187  0.5939  2.8647  0.7737
15374TIP3   OH267612   5.420   3.179  13.190  0.5114 -0.2319 -0.3329
15374TIP3    H167613   5.412   3.160  13.096  0.0835  0.6969 -0.4814
15374TIP3    H267614   5.330   3.176  13.223  0.7080 -1.0645  0.1515
15375TIP3   OH267615   1.755   1.970  11.796 -0.0526 -0.3179 -0.6248
15375TIP3    H167616   1.792   2.009  11.875  0.3653 -0.5919 -0.6871
15375TIP3    H267617   1.661   1.966  11.813  0.2648 -2.4094  0.7310
15376TIP3   OH267618   0.273   5.991   2.327  0.0118  0.3941  0.0165
15376TIP3    H167619   0.294   5.958   2.414 -0.0977  0.8806  0.2276
15376TIP3    H267620   0.358   6.014   2.290  0.2901 -1.8400 -0.8423
15377TIP3   OH267621   5.244   2.258   2.849 -0.8225 -0.0627  0.6128
15377TIP3    H167622   5.213   2.250   2.759  1.8010 -0.3108 -0.3007
15377TIP3    H267623   5.286   2.343   2.853 -2.7294  0.8592  2.2210
15378TIP3   OH267624   0.837   2.753   4.387 -0.1343  0.2568 -0.2284
15378TIP3    H167625   0.813   2.686   4.324  0.2445  0.7214 -0.8675
15378TIP3    H267626   0.851   2.705   4.469  2.1001 -0.7345 -1.1467
15379TIP3   OH267627   5.993   3.655   6.160 -0.0905 -0.5670 -0.2414
15379TIP3    H167628   5.990   3.714   6.235 -0.3198 -0.9501  0.0513
15379TIP3    H267629   5.971   3.569   6.196 -0.5000 -0.6991 -0.7985
15380TIP3   OH267630   4.949   4.573  13.796 -0.3102 -0.1045 -0.2023
15380TIP3    H167631   4.856   4.594  13.787 -1.0084 -2.8856  0.2831
15380TIP3    H267632   4.974   4.611  13.880 -1.1923 -0.0365  0.0346
15381TIP3   OH267633   2.452   6.475  13.574 -0.7411 -0.4449 -0.2249
15381TIP3    H167634   2.377   6.513  13.528 -0.6136  1.0974  0.8284
15381TIP3    H267635   2.528   6.510  13.529 -0.6040  1.5760  1.5166
15382TIP3   OH267636   4.691   4.688  13.231 -0.0244  0.4007  0.2155
15382TIP3    H167637   4.694   4.603  13.189 -1.5103  0.4537 -0.0471
15382TIP3    H267638   4.779   4.724  13.221  0.3168 -0.6493 -0.6119
15383TIP3   OH267639   6.568   0.828   4.214 -0.1218 -0.0385  0.8244
15383TIP3    H167640   6.603   0.902   4.265  1.7562 -1.8605  2.2874
15383TIP3    H267641   6.546   0.762   4.280  0.8870 -1.8608 -0.6032
15384TIP3   OH267642   5.295   3.816   3.777 -0.2700  0.3762 -0.0699
15384TIP3    H167643   5.240   3.892   3.793  0.0289  0.2773  1.4839
15384TIP3    H267644   5.349   3.808   3.856  1.4008 -0.0121 -1.2248
15385TIP3   OH267645   5.562   1.121   5.074 -0.0931  0.1550 -0.0308
15385TIP3    H167646   5.576   1.120   5.169 -1.4673 -1.4370  0.1863
15385TIP3    H267647   5.472   1.153   5.063 -0.1383 -0.1963 -0.7588
15386TIP3   OH267648   4.214   1.851  17.096 -0.2932 -0.1416 -0.0855
15386TIP3    H167649   4.160   1.925  17.123  3.2510  1.9991  1.6175
15386TIP3    H267650   4.286   1.891  17.047  0.8238 -2.6273 -0.5532
15387TIP3   OH267651   4.883   2.453   4.822  0.3437 -0.5618 -0.0774
15387TIP3    H167652   4.806   2.454   4.765 -0.5551  0.4206  1.1010
15387TIP3    H267653   4.957   2.464   4.763 -0.4764 -0.7795 -1.1680
15388TIP3   OH267654   1.849   5.093  11.462 -0.7148  0.1341 -0.2684
15388TIP3    H167655   1.760   5.125  11.448  0.4406  3.0854 -1.3001
15388TIP3    H267656   1.899   5.129  11.389  1.9648  1.1675  2.0107
15389TIP3   OH267657   3.271   1.141   6.178 -0.4301 -0.5566  0.5917
15389TIP3    H167658   3.265   1.214   6.117 -0.7586 -2.0522 -1.2142
15389TIP3    H267659   3.286   1.182   6.263  1.0994  1.5277 -0.6297
15390TIP3   OH267660   3.401   0.152  16.590 -0.3803 -0.4501  0.5488
15390TIP3    H167661   3.327   0.173  16.648 -1.8738 -0.1799 -1.4081
15390TIP3    H267662   3.433   0.238  16.562  2.8137 -0.4304  3.9306
15391TIP3   OH267663   2.096   5.700   2.322  0.5477  0.0919 -0.1231
15391TIP3    H167664   2.048   5.653   2.255  0.2270 -0.1696  0.2869
15391TIP3    H267665   2.154   5.759   2.274 -0.2970  0.5248 -0.6125
15392TIP3   OH267666   0.254   1.577  16.098  0.1127 -0.4876  0.3845
15392TIP3    H167667   0.173   1.621  16.125 -0.4390 -0.7665 -0.7749
15392TIP3    H267668   0.224   1.500  16.051  1.0760 -1.2222  0.9586
15393TIP3   OH267669   1.769   1.459   5.569  0.2623  0.4761  0.4627
15393TIP3    H167670   1.772   1.388   5.505 -0.1944  0.9971 -0.1429
15393TIP3    H267671   1.795   1.418   5.652  1.6622 -0.0188 -0.2099
15394TIP3   OH267672   2.112   3.925   2.678  0.0641 -0.4655  0.0107
15394TIP3    H167673   2.203   3.941   2.656 -0.0482  1.7835  1.0877
15394TIP3    H267674   2.113   3.844   2.729  1.5226 -0.0905  0.5922
15395TIP3   OH267675   3.876   0.340   5.566 -0.2400 -0.0494  0.3154
15395TIP3    H167676   3.894   0.273   5.632 -0.8565 -0.7420 -0.2113
15395TIP3    H267677   3.879   0.423   5.614  1.7429 -0.3573  0.7283
15396TIP3   OH267678   1.670   3.149  13.406 -0.5482 -0.2604 -0.0631
15396TIP3    H167679   1.577   3.129  13.420 -1.0957  0.0874 -2.8682
15396TIP3    H267680   1.693   3.208  13.477 -2.3524 -0.6981  0.9237
15397TIP3   OH267681   4.433   1.170   3.597 -0.1316  0.4924  0.3387
15397TIP3    H167682   4.491   1.170   3.673  0.5616  2.2810 -0.1673
15397TIP3    H267683   4.350   1.202   3.631 -0.1179  0.3085  0.5481
15398TIP3   OH267684   5.868   4.461   4.707 -0.2586  0.3056 -0.0251
15398TIP3    H167685   5.809   4.526   4.746  0.3117  0.9224 -0.1784
15398TIP3    H267686   5.892   4.498   4.622 -2.2895 -1.4881 -1.4475
15399TIP3   OH267687   0.203   6.489   5.622  0.2288 -0.6855  0.2796
15399TIP3    H167688   0.169   6.562   5.674  2.4210  0.6659 -0.1314
15399TIP3    H267689   0.159   6.496   5.538 -1.6222 -1.5029  1.1654
15400TIP3   OH267690   5.027   3.269  15.506 -0.1303  0.4510  0.7502
15400TIP3    H167691   4.990   3.184  15.479  1.3736  0.3207 -1.0160
15400TIP3    H267692   5.012   3.326  15.431  2.5361  0.5859  0.2537
15401TIP3   OH267693   1.271   3.406  15.762  0.4840  0.2188  0.0295
15401TIP3    H167694   1.362   3.382  15.745  1.0350  2.4806 -0.4004
15401TIP3    H267695   1.221   3.364  15.692  1.4856  0.8041 -1.0485
15402TIP3   OH267696   5.357   3.629   2.110 -0.1152  0.7200 -0.0326
15402TIP3    H167697   5.411   3.562   2.069 -0.1532  0.2983  0.6149
15402TIP3    H267698   5.267   3.600   2.096 -0.0766 -0.8188  2.7092
15403TIP3   OH267699   6.640   3.372   0.525  0.3186 -0.1008 -0.6029
15403TIP3    H167700   6.666   3.286   0.560 -1.6686 -0.2008  0.6648
15403TIP3    H267701   6.598   3.352   0.442 -2.9906 -0.7230  1.1137
15404TIP3   OH267702   5.744   3.213  16.699 -0.2067  0.1743  0.0528
15404TIP3    H167703   5.690   3.141  16.734 -0.0924  0.6391  1.2212
15404TIP3    H267704   5.820   3.170  16.661 -0.4458 -0.3709  0.1816
15405TIP3   OH267705   1.446   5.894   5.802 -0.2596 -0.6383  0.5516
15405TIP3    H167706   1.373   5.855   5.851 -0.1758 -2.0247 -0.3912
15405TIP3    H267707   1.429   5.870   5.711  0.0009  1.2564 -0.0129
15406TIP3   OH267708   3.695   4.205  11.093 -0.9336  1.0155  0.0361
15406TIP3    H167709   3.628   4.197  11.025  0.6788  1.2844 -1.6270
15406TIP3    H267710   3.692   4.297  11.119  0.2284  1.5331 -1.5829
15407TIP3   OH267711   6.619   5.593   0.822 -0.8201  0.4241  0.0419
15407TIP3    H167712   6.705   5.601   0.864  0.1875  1.2146 -2.0537
15407TIP3    H267713   6.585   5.682   0.818 -0.4785  0.5108 -1.5828
15408TIP3   OH267714   4.406   2.740  15.183  0.2431  0.0007 -0.0793
15408TIP3    H167715   4.378   2.831  15.195 -0.1311  0.0246 -1.1359
15408TIP3    H267716   4.358   2.709  15.107 -0.6824 -1.5323  1.0998
15409TIP3   OH267717   6.360   3.634  10.734 -0.2164 -0.1843  0.5389
15409TIP3    H167718   6.298   3.674  10.795  0.5825  0.5638  0.8893
15409TIP3    H267719   6.384   3.551  10.776 -0.7550 -0.3322  0.5497
15410TIP3   OH267720   1.031   1.183  16.703 -0.5227  0.1977 -0.1077
15410TIP3    H167721   1.081   1.202  16.783 -1.3661  3.0629 -0.2353
15410TIP3    H267722   0.979   1.106  16.726  0.1333  0.2675  1.7170
15411TIP3   OH267723   4.088   5.606  16.579 -0.0747  0.3977  0.5237
15411TIP3    H167724   4.077   5.690  16.622  1.1914  0.4228  0.8086
15411TIP3    H267725   4.139   5.625  16.500 -2.3934  0.3597 -1.0629
15412TIP3   OH267726   1.332   0.526  11.233 -0.0306 -0.9714  0.3063
15412TIP3    H167727   1.270   0.465  11.194  0.0845 -0.7532 -0.2151
15412TIP3    H267728   1.330   0.603  11.176 -1.4346  0.2034  1.8858
15413TIP3   OH267729   1.504   0.900   0.411 -0.0455  0.0983  0.5706
15413TIP3    H167730   1.478   0.973   0.354 -0.9737 -0.0389  0.8073
15413TIP3    H267731   1.553   0.942   0.482 -0.1685  0.4446  0.4567
15414TIP3   OH267732   0.963   6.708  15.759 -0.1871  0.1129  0.0247
15414TIP3    H167733   0.887   6.737  15.708 -0.0522  0.7258  0.1628
15414TIP3    H267734   0.935   6.718  15.850  0.2237  0.8037  0.0797
15415TIP3   OH267735   3.567   2.258   6.491  0.6347  0.5129 -0.3167
15415TIP3    H167736   3.534   2.343   6.520  1.0176  0.2931  0.7828
15415TIP3    H267737   3.640   2.279   6.433 -0.3796  0.9628 -1.4757
15416TIP3   OH267738   1.345   6.087   3.443  0.4748  0.0521 -0.2526
15416TIP3    H167739   1.279   6.019   3.449  2.0714 -1.5098  0.0815
15416TIP3    H267740   1.416   6.048   3.393  0.9636  1.8571 -1.0202
15417TIP3   OH267741   1.035   2.315   3.586 -0.3334 -0.6416 -0.1791
15417TIP3    H167742   1.084   2.383   3.632  1.8998 -1.4237 -1.3013
15417TIP3    H267743   0.957   2.359   3.554  1.0806  1.4357 -0.9248
15418TIP3   OH267744   1.057   6.627   2.246 -0.7545 -0.5512  0.2609
15418TIP3    H167745   1.122   6.560   2.223 -0.8214 -0.8174  0.8429
15418TIP3    H267746   1.103   6.710   2.233 -0.8806 -0.6822 -1.1232
15419TIP3   OH267747   6.479   1.046   6.152  0.3510 -0.8178  0.2564
15419TIP3    H167748   6.531   1.073   6.227 -0.3819 -1.6177  1.0590
15419TIP3    H267749   6.542   1.043   6.079  1.8839 -3.5836  1.5999
15420TIP3   OH267750   0.297   5.471   4.227 -0.4794  0.7131  0.0618
15420TIP3    H167751   0.381   5.461   4.183 -1.3122 -3.8225 -0.7328
15420TIP3    H267752   0.243   5.519   4.165  0.1973 -0.3426 -1.3755
15421TIP3   OH267753   5.575   4.279   5.199 -0.3090  0.3987  0.4019
15421TIP3    H167754   5.526   4.328   5.265  2.3233 -1.7700  4.0984
15421TIP3    H267755   5.619   4.347   5.148 -0.0406  2.0603  2.7624
15422TIP3   OH267756   4.742   0.829  17.271 -0.0643 -0.0083  0.4508
15422TIP3    H167757   4.777   0.740  17.271  0.1349  0.0707  0.7278
15422TIP3    H267758   4.814   0.883  17.303  0.3131  0.4502 -1.1132
15423TIP3   OH267759   6.722   3.154  11.034 -0.2627 -0.1271  0.3369
15423TIP3    H167760   6.633   3.124  11.054 -0.9598  1.3858 -0.4262
15423TIP3    H267761   6.715   3.196  10.949  1.0606  0.5718  0.5557
15424TIP3   OH267762   5.012   0.436   2.351 -0.2760 -0.8156  0.1958
15424TIP3    H167763   4.941   0.377   2.374  0.4983 -2.1374 -0.6995
15424TIP3    H267764   5.092   0.384   2.363  0.3896 -0.1437 -1.1371
15425TIP3   OH267765   4.043   1.872   0.790  0.0866 -0.3163  0.0168
15425TIP3    H167766   4.074   1.837   0.874  0.5196  2.2127  0.9556
15425TIP3    H267767   3.956   1.906   0.809 -1.3832 -3.0119 -1.4868
15426TIP3   OH267768   3.893   2.142   5.293 -0.1190 -0.0715 -0.0910
15426TIP3    H167769   3.912   2.227   5.254  0.4378  0.7447  1.8846
15426TIP3    H267770   3.798   2.143   5.306 -0.0511  0.4762  0.4106
15427TIP3   OH267771   4.653   6.413  14.527  0.0832 -0.2527 -0.3917
15427TIP3    H167772   4.688   6.363  14.453 -1.4122  0.4508 -1.5971
15427TIP3    H267773   4.712   6.394  14.600  1.3617 -1.2359 -1.6827
15428TIP3   OH267774   4.443   1.733   4.871 -0.4013 -0.0447 -0.0897
15428TIP3    H167775   4.400   1.771   4.947  0.1637 -0.6344  0.5274
15428TIP3    H267776   4.506   1.670   4.907 -0.3439 -0.5515 -1.0441
15429TIP3   OH267777   1.878   5.009  13.012 -1.1661  0.5879  0.7169
15429TIP3    H167778   1.857   5.045  13.098  1.7978 -0.2743  1.8659
15429TIP3    H267779   1.948   5.065  12.979 -0.2105 -0.8654  0.2110
15430TIP3   OH267780   1.250   5.319  11.904 -0.3710  0.6422  0.3962
15430TIP3    H167781   1.215   5.257  11.840  0.4160  0.2886  0.2988
15430TIP3    H267782   1.340   5.291  11.917 -1.9775 -2.7039  5.7694
15431TIP3   OH267783   4.897   0.388  12.439  0.2625  0.2059  0.6983
15431TIP3    H167784   4.831   0.448  12.471 -0.4170  0.1053 -0.4907
15431TIP3    H267785   4.937   0.433  12.365  2.0688  0.5895  1.8561
15432TIP3   OH267786   4.636   5.083   2.960 -0.4796  0.4886 -0.1617
15432TIP3    H167787   4.569   5.081   3.028 -1.0116 -0.3724 -0.6943
15432TIP3    H267788   4.589   5.109   2.881  0.2192  1.8977 -0.1159
15433TIP3   OH267789   0.262   2.970  15.629  0.1542  0.6404 -0.4987
15433TIP3    H167790   0.320   2.985  15.704 -0.4336  1.9803 -0.3041
15433TIP3    H267791   0.313   2.914  15.570  0.7333 -0.1854  0.7546
15434TIP3   OH267792   6.134   4.502  13.187  0.2842 -0.7257 -0.4972
15434TIP3    H167793   6.226   4.477  13.178  0.5727  0.1142  0.1049
15434TIP3    H267794   6.093   4.427  13.230  0.8638 -0.7431  0.0280
15435TIP3   OH267795   0.495   2.827  13.774 -0.5213 -0.5845  0.2319
15435TIP3    H167796   0.536   2.907  13.743  0.4951 -0.9105  0.7079
15435TIP3    H267797   0.526   2.759  13.714 -0.9919 -0.7108  0.1243
15436TIP3   OH267798   4.795   6.091   0.653 -0.3965 -0.6079  0.1323
15436TIP3    H167799   4.873   6.066   0.702 -0.8126  0.3089  1.2917
15436TIP3    H267800   4.801   6.042   0.571  1.2697 -0.7218  0.3098
15437TIP3   OH267801   6.385   3.606  11.866  0.2853 -0.2082  0.8101
15437TIP3    H167802   6.298   3.590  11.903  0.4260 -3.2492 -0.0594
15437TIP3    H267803   6.445   3.581  11.936  0.4886 -1.8217  0.0764
15438TIP3   OH267804   6.189   2.260   5.654  0.0842  0.0293 -0.4787
15438TIP3    H167805   6.110   2.216   5.685  0.0878  0.7815  0.6013
15438TIP3    H267806   6.172   2.277   5.561 -0.5441 -0.8439 -0.5292
15439TIP3   OH267807   0.426   1.026  12.149 -0.2001 -0.0118  0.0459
15439TIP3    H167808   0.404   1.107  12.104 -0.2584  0.2813  0.5951
15439TIP3    H267809   0.387   1.035  12.236 -0.4281 -0.7347  0.0235
15440TIP3   OH267810   2.861   3.255  16.795  0.3886  0.2999 -0.7560
15440TIP3    H167811   2.904   3.254  16.881  0.6554 -2.0556 -0.9015
15440TIP3    H267812   2.770   3.276  16.815  0.0013 -2.2449  0.3386
15441TIP3   OH267813   0.405   1.024  15.112  0.3673  0.4240 -0.2572
15441TIP3    H167814   0.372   1.112  15.097 -4.8633 -1.0991  1.3690
15441TIP3    H267815   0.400   1.012  15.207  1.0698 -1.6412 -0.4558
15442TIP3   OH267816   0.415   5.062   1.374  0.0757  0.3078 -0.1578
15442TIP3    H167817   0.403   4.972   1.404  0.7664 -0.5920 -2.4410
15442TIP3    H267818   0.508   5.081   1.389  0.3033  0.0400 -1.1367
15443TIP3   OH267819   6.617   0.472  15.147  0.1499  0.0006  0.0304
15443TIP3    H167820   6.559   0.416  15.095 -0.4323 -2.8070  3.4697
15443TIP3    H267821   6.705   0.452  15.115 -0.2734 -0.8995 -0.5902
15444TIP3   OH267822   5.267   6.577  11.139  0.0276 -0.0853 -1.0219
15444TIP3    H167823   5.326   6.515  11.182 -0.8420 -0.5895 -0.5572
15444TIP3    H267824   5.244   6.536  11.056  1.1213  0.5609 -1.6576
15445TIP3   OH267825   2.010   4.193   4.893  0.3716  0.7339 -0.2817
15445TIP3    H167826   2.033   4.108   4.853  0.3795 -0.5155  2.3041
15445TIP3    H267827   1.915   4.192   4.897  0.4558 -0.3051  2.1104
15446TIP3   OH267828   0.777   1.328  15.605  0.2123  0.2000  0.2460
15446TIP3    H167829   0.734   1.361  15.526 -0.5663 -2.2183 -0.3940
15446TIP3    H267830   0.852   1.279  15.572  0.8238  0.5519  1.1135
15447TIP3   OH267831   3.819   5.051  17.025  0.1938  0.1091  0.5896
15447TIP3    H167832   3.835   4.983  16.959 -0.7789  0.2000  0.2416
15447TIP3    H267833   3.836   5.133  16.980  0.4912  0.1307  0.7411
15448TIP3   OH267834   0.316   6.250   5.115  0.5347 -0.1286 -0.0963
15448TIP3    H167835   0.402   6.287   5.138  1.3080 -0.5664 -2.2154
15448TIP3    H267836   0.314   6.252   5.019 -1.4917 -0.9147 -0.0850
15449TIP3   OH267837   4.462   2.858   4.907 -0.1037  0.2464 -0.5876
15449TIP3    H167838   4.556   2.872   4.890 -0.2413 -0.1922 -1.7692
15449TIP3    H267839   4.445   2.769   4.877 -0.3409 -0.6912  2.1519
15450TIP3   OH267840   1.843   5.645   5.101  0.3893 -0.2738 -0.3076
15450TIP3    H167841   1.873   5.685   5.020  2.0633 -2.1906 -0.6848
15450TIP3    H267842   1.825   5.554   5.077  1.4120 -0.9944  1.5905
15451TIP3   OH267843   5.256   5.515   0.755  0.0142 -0.4273 -0.2417
15451TIP3    H167844   5.247   5.471   0.839  2.4721  0.6091  0.5960
15451TIP3    H267845   5.179   5.572   0.749  0.4209  0.3699  1.8461
15452TIP3   OH267846   1.099   5.738  12.867  0.0758 -0.2821 -0.0901
15452TIP3    H167847   1.031   5.748  12.801  0.5128 -0.4640 -0.5777
15452TIP3    H267848   1.132   5.649  12.853 -0.8160 -0.8520  1.3351
15453TIP3   OH267849   2.595   0.674  14.304  0.1754  0.0923 -0.5134
15453TIP3    H167850   2.651   0.707  14.234 -1.0649  0.0312 -1.5458
15453TIP3    H267851   2.656   0.640  14.370  1.3381 -0.9830 -2.1216
15454TIP3   OH267852   5.555   5.986   2.294 -0.1160 -0.1132 -0.3139
15454TIP3    H167853   5.599   6.059   2.250 -1.8859  0.7204 -0.7506
15454TIP3    H267854   5.554   6.011   2.387  0.2970 -0.1221 -0.3051
15455TIP3   OH267855   2.413   5.686   2.056 -0.8043 -0.4922 -0.3224
15455TIP3    H167856   2.489   5.683   2.114 -0.8491  1.3119 -0.1444
15455TIP3    H267857   2.367   5.766   2.082 -3.2561 -2.0101  0.2014
15456TIP3   OH267858   0.830   4.037   2.069  0.5174  0.3117 -0.3554
15456TIP3    H167859   0.792   3.949   2.074  0.1544  0.4195 -1.1162
15456TIP3    H267860   0.845   4.062   2.160  0.7711 -0.6019 -0.1441
15457TIP3   OH267861   6.622   1.446   1.848  0.2096 -0.2603  0.2144
15457TIP3    H167862   6.594   1.393   1.923  0.3124 -1.5702 -0.6561
15457TIP3    H267863   6.551   1.438   1.785  0.9170 -0.6201 -0.5440
15458TIP3   OH267864   5.943   1.216   3.446 -0.0976 -0.0626  0.9552
15458TIP3    H167865   6.030   1.202   3.483  0.3048 -1.5039 -0.4448
15458TIP3    H267866   5.913   1.298   3.484  1.2508 -0.3095  2.6087
15459TIP3   OH267867   5.315   0.582  16.437  0.3868 -0.6878  0.2352
15459TIP3    H167868   5.349   0.566  16.349  1.1277 -1.2956  0.6228
15459TIP3    H267869   5.288   0.496  16.469 -0.8674 -0.3193  0.2115
15460TIP3   OH267870   1.804   6.169  11.136  0.9121 -0.1442 -0.4133
15460TIP3    H167871   1.819   6.225  11.212  0.4443 -0.4526 -0.0895
15460TIP3    H267872   1.890   6.135  11.113  1.2017  0.7035 -0.6110
15461TIP3   OH267873   2.636   3.036  11.843 -0.1630 -0.2386  0.2041
15461TIP3    H167874   2.625   2.970  11.911  3.3852 -1.0036  0.0936
15461TIP3    H267875   2.649   3.118  11.891  0.8902 -0.5394  0.4388
15462TIP3   OH267876   1.671   0.690  13.368  0.4767  0.1649  0.5553
15462TIP3    H167877   1.735   0.743  13.321 -0.2328  1.0930  0.6222
15462TIP3    H267878   1.719   0.611  13.392  1.2930  0.3828 -0.3258
15463TIP3   OH267879   4.246   6.346  14.403  0.1019 -0.4205 -0.6502
15463TIP3    H167880   4.162   6.350  14.449  0.1973 -0.3445 -0.4831
15463TIP3    H267881   4.236   6.404  14.328  0.8592  1.5331  0.7347
15464TIP3   OH267882   5.611   5.979   3.709  0.1459  0.6382  0.3369
15464TIP3    H167883   5.517   5.963   3.694  0.0432  0.8949  0.7153
15464TIP3    H267884   5.649   5.891   3.715  0.0339  0.5312 -0.4637
15465TIP3   OH267885   2.109   5.736  11.334  0.7234  0.2217 -0.2434
15465TIP3    H167886   2.057   5.801  11.287  1.8256  1.5055  0.2697
15465TIP3    H267887   2.069   5.652  11.312  0.2904  0.9326 -2.2558
15466TIP3   OH267888   3.429   2.770  15.623 -0.6030 -0.0466  0.1306
15466TIP3    H167889   3.507   2.715  15.611 -0.6631  0.0959 -0.9213
15466TIP3    H267890   3.388   2.773  15.537 -0.9577  1.1179  0.3373
15467TIP3   OH267891   0.903   5.868  12.707  0.1111 -0.3032  1.0529
15467TIP3    H167892   0.816   5.906  12.704 -0.5626 -1.6642  2.6717
15467TIP3    H267893   0.957   5.927  12.654 -1.7682  0.5625  0.0802
15468TIP3   OH267894   4.988   3.119   2.573 -0.2563  0.3979 -0.4953
15468TIP3    H167895   4.896   3.105   2.594  0.1017 -0.9067  0.2335
15468TIP3    H267896   5.018   3.183   2.638 -0.1577 -0.6434  0.4929
15469TIP3   OH267897   3.055   3.613   5.202 -0.8165  0.3548 -0.0554
15469TIP3    H167898   3.020   3.552   5.267  1.9859 -0.7268  0.4605
15469TIP3    H267899   2.977   3.655   5.166 -2.5010  0.8282  3.8133
15470TIP3   OH267900   4.155   6.603   4.606  0.8407 -0.1703 -0.1684
15470TIP3    H167901   4.231   6.558   4.644  0.4997 -1.5509 -1.1004
15470TIP3    H267902   4.081   6.545   4.625  0.2842  0.3524 -0.7507
15471TIP3   OH267903   4.702   5.807  13.831 -0.4196 -0.2689 -0.6333
15471TIP3    H167904   4.731   5.726  13.872  0.3900  0.0173 -0.6170
15471TIP3    H267905   4.630   5.782  13.774  0.3685 -1.1271 -1.2611
15472TIP3   OH267906   6.121   2.238   0.518  0.7271  0.8148  0.0299
15472TIP3    H167907   6.078   2.182   0.454  1.5992  0.5363 -0.3230
15472TIP3    H267908   6.215   2.228   0.499  0.9655  1.0941  1.0442
15473TIP3   OH267909   5.976   6.785   0.078 -0.2050  0.4285  0.0160
15473TIP3    H167910   5.891   6.761   0.114 -0.4683  2.3873  0.7652
15473TIP3    H267911   5.975   6.880   0.076  1.5008  0.4361 -1.1314
15474TIP3   OH267912   4.272   0.293   0.876 -0.2126 -0.2340  0.0683
15474TIP3    H167913   4.216   0.322   0.803 -0.0327  0.2497  0.1196
15474TIP3    H267914   4.264   0.198   0.876 -2.0419 -0.1018  0.8803
15475TIP3   OH267915   0.402   0.362   3.832  0.0230 -0.8024  0.4417
15475TIP3    H167916   0.435   0.403   3.752 -0.8986  1.9500  1.4022
15475TIP3    H267917   0.447   0.409   3.903  0.9589 -3.3009  1.5914
15476TIP3   OH267918   4.960   4.195   1.694  0.3477  0.4147  0.2437
15476TIP3    H167919   4.983   4.152   1.776  0.3052 -0.3714 -0.1609
15476TIP3    H267920   5.017   4.155   1.628 -0.3298  0.3294 -0.2957
15477TIP3   OH267921   0.718   1.140  15.199 -0.2249  0.1026  0.3078
15477TIP3    H167922   0.808   1.170  15.208  0.0376 -0.3300 -0.8005
15477TIP3    H267923   0.668   1.219  15.179 -0.1307  0.3757  1.1400
15478TIP3   OH267924   2.533   2.533   3.780  0.7710 -0.1186  0.5202
15478TIP3    H167925   2.484   2.488   3.848 -1.0479 -1.2406 -1.4958
15478TIP3    H267926   2.625   2.509   3.796  0.3252 -0.7384  2.2493
15479TIP3   OH267927   0.393   2.846  12.198  0.6704  0.0352 -0.3820
15479TIP3    H167928   0.485   2.860  12.174  0.5832 -0.4682 -1.0461
15479TIP3    H267929   0.357   2.934  12.206  1.3918  0.2461  0.6198
15480TIP3   OH267930   2.753   3.297   5.774 -0.5978 -0.1063 -0.0596
15480TIP3    H167931   2.712   3.380   5.798  0.3469  0.1609  0.6422
15480TIP3    H267932   2.845   3.308   5.798 -0.0665 -0.6264 -1.7979
15481TIP3   OH267933   3.297   3.218   0.512  0.2770 -0.3925 -0.0246
15481TIP3    H167934   3.238   3.276   0.561 -0.7205  0.9256 -2.6712
15481TIP3    H267935   3.238   3.163   0.460  1.3100 -0.1166 -1.5259
15482TIP3   OH267936   1.817   2.359   3.039 -0.4331  0.1208  0.1505
15482TIP3    H167937   1.862   2.318   2.965  0.0774 -2.8589  2.0510
15482TIP3    H267938   1.834   2.453   3.028  2.8170 -0.5852 -1.4028
15483TIP3   OH267939   5.785   6.031  16.751  0.2026 -0.2944  0.3650
15483TIP3    H167940   5.824   6.113  16.780 -1.2254 -0.3893  2.6886
15483TIP3    H267941   5.730   6.055  16.677  0.3912  0.7285  0.5532
15484TIP3   OH267942   2.136   5.504   1.248 -0.1014 -0.2458  0.0548
15484TIP3    H167943   2.215   5.534   1.203 -0.6900 -0.0061 -0.8232
15484TIP3    H267944   2.168   5.467   1.330  0.9185 -0.0771 -0.2623
15485TIP3   OH267945   1.202   2.568   2.420 -0.2871 -0.4098  0.2666
15485TIP3    H167946   1.134   2.507   2.392  0.0615 -1.2149  1.1327
15485TIP3    H267947   1.178   2.590   2.510  1.1873 -1.5675  0.9659
15486TIP3   OH267948   0.237   4.013  13.855  1.3222  0.8481  0.0045
15486TIP3    H167949   0.287   4.093  13.867 -0.3893  2.0124 -0.4184
15486TIP3    H267950   0.174   4.034  13.785  0.3011 -0.5841  0.4641
15487TIP3   OH267951   0.681   5.582  16.135 -0.8631 -0.0189 -0.2066
15487TIP3    H167952   0.598   5.546  16.166 -1.0754  0.3224 -0.3794
15487TIP3    H267953   0.699   5.534  16.054 -0.6504 -0.4284  0.0781
15488TIP3   OH267954   2.043   1.423   4.518  0.0287  0.2150 -0.3371
15488TIP3    H167955   2.120   1.408   4.573  0.1779 -1.1203 -0.8970
15488TIP3    H267956   2.053   1.512   4.486  1.2627  0.0978 -0.2829
15489TIP3   OH267957   3.008   4.928  11.571 -0.0950 -0.0335 -0.5704
15489TIP3    H167958   2.973   4.957  11.486  1.0265  0.4824 -0.8751
15489TIP3    H267959   3.036   5.009  11.614  0.4438 -0.3991 -0.2232
15490TIP3   OH267960   3.110   2.703   3.130  0.4190  0.5932  0.1154
15490TIP3    H167961   3.115   2.634   3.064  0.5868  0.3077  0.4303
15490TIP3    H267962   3.125   2.659   3.213 -1.9772  0.5814  0.5672
15491TIP3   OH267963   5.614   1.068  11.869 -0.2844  0.0490  0.8413
15491TIP3    H167964   5.625   1.059  11.774 -0.2478 -2.0306  1.0357
15491TIP3    H267965   5.691   1.026  11.906  0.2560  1.8193  1.7934
15492TIP3   OH267966   3.831   4.299  14.956  0.0395  0.4973  0.2224
15492TIP3    H167967   3.888   4.287  15.032  1.0318 -0.0049 -0.5876
15492TIP3    H267968   3.858   4.230  14.895  0.0153  1.5844 -1.0326
15493TIP3   OH267969   3.588   4.610   4.285  0.0613  0.6691  0.0356
15493TIP3    H167970   3.573   4.519   4.261  1.8774  0.6661 -1.1894
15493TIP3    H267971   3.674   4.610   4.328  0.9600  2.0566 -1.6675
15494TIP3   OH267972   2.324   6.108   4.350 -0.5361 -0.0623  0.5182
15494TIP3    H167973   2.296   6.036   4.293  3.5204 -0.1170 -1.5962
15494TIP3    H267974   2.297   6.187   4.302  1.2455 -0.1316 -0.6340
15495TIP3   OH267975   0.500   2.700   4.111  0.8026 -0.0495  0.2154
15495TIP3    H167976   0.559   2.658   4.174 -0.1448  2.7152  3.0792
15495TIP3    H267977   0.412   2.681   4.143  0.3210  2.1376  0.2943
15496TIP3   OH267978   5.280   1.906  16.342  0.8507 -0.3940 -0.2606
15496TIP3    H167979   5.234   1.984  16.374  0.5419  0.2971 -2.3384
15496TIP3    H267980   5.372   1.931  16.339  1.0451 -0.8789  1.2652
15497TIP3   OH267981   2.245   1.510  10.788 -0.5783 -0.0733 -0.1601
15497TIP3    H167982   2.315   1.444  10.785 -0.4609  0.0363  0.1341
15497TIP3    H267983   2.277   1.581  10.734 -1.0169 -0.5566 -1.0664
15498TIP3   OH267984   0.214   5.109  11.642 -0.2023  0.8010 -0.1439
15498TIP3    H167985   0.263   5.179  11.684 -0.2462  1.1787 -0.7199
15498TIP3    H267986   0.207   5.041  11.709  0.7957  0.8945  0.0528
15499TIP3   OH267987   4.502   4.762  15.371 -0.2456 -0.0956  0.3120
15499TIP3    H167988   4.555   4.719  15.304 -1.6934  1.5055 -1.9274
15499TIP3    H267989   4.554   4.837  15.399  0.3488 -0.7511  0.9800
15500TIP3   OH267990   4.553   0.856   4.923 -0.0467  0.2763 -0.9023
15500TIP3    H167991   4.458   0.856   4.907  0.1278  1.3841 -2.0366
15500TIP3    H267992   4.567   0.927   4.985  0.0402  0.0872 -0.7043
15501TIP3   OH267993   2.867   3.554   4.910  0.1839 -0.0993 -0.2909
15501TIP3    H167994   2.852   3.645   4.937  0.0484  0.0855 -0.9796
15501TIP3    H267995   2.847   3.502   4.987 -0.4636  0.4017 -0.1230
15502TIP3   OH267996   2.129   0.580  14.862 -0.7492 -0.2908  0.4991
15502TIP3    H167997   2.130   0.555  14.954 -1.2304 -3.3430 -0.2827
15502TIP3    H267998   2.037   0.592  14.841 -0.5741  1.5900  0.6714
15503TIP3   OH267999   3.086   5.373   1.243 -0.0895  0.5897  0.2738
15503TIP3    H168000   3.090   5.457   1.199 -0.4086  0.7396  0.5322
15503TIP3    H268001   3.058   5.311   1.176 -3.0138  1.2321  0.8541
15504TIP3   OH268002   4.261   0.857  12.556  0.2779  0.8044 -0.1877
15504TIP3    H168003   4.262   0.896  12.644 -2.7275 -1.0151  0.7598
15504TIP3    H268004   4.172   0.873  12.525 -0.0996 -2.4308 -1.0189
15505TIP3   OH268005   0.112   6.048  13.565 -0.0818 -0.5846  0.6287
15505TIP3    H168006   0.176   6.097  13.513 -0.2467 -2.1605 -1.1190
15505TIP3    H268007   0.027   6.082  13.537 -0.0643  1.0388  2.4652
15506TIP3   OH268008   6.299   5.145   4.912  0.1899 -0.0726  0.0288
15506TIP3    H168009   6.222   5.144   4.969  1.0518  1.3175  1.2708
15506TIP3    H268010   6.340   5.059   4.925  0.9606  0.5837  2.4092
15507TIP3   OH268011   2.123   1.337   3.246  0.5882  0.1327 -0.3774
15507TIP3    H168012   2.043   1.387   3.229  0.0345 -0.7635 -0.4468
15507TIP3    H268013   2.187   1.374   3.186  0.4308  1.3382  0.1762
15508TIP3   OH268014   4.407   5.773  12.863  0.4408  0.2015  0.3497
15508TIP3    H168015   4.460   5.715  12.917  1.4459  1.7898  1.1377
15508TIP3    H268016   4.317   5.759  12.893  0.6058 -1.3423  0.1310
15509TIP3   OH268017   3.521   4.238   2.792  0.6474 -0.4461 -0.0977
15509TIP3    H168018   3.570   4.302   2.740  1.0604 -0.5422  0.1803
15509TIP3    H268019   3.439   4.226   2.743  0.5764  0.2782 -0.1616
15510TIP3   OH268020   1.760   5.211   3.409  0.3408 -0.5644 -0.9371
15510TIP3    H168021   1.704   5.143   3.370 -0.4358 -1.2351  1.2571
15510TIP3    H268022   1.793   5.171   3.489 -1.0980  2.0402  1.0439
15511TIP3   OH268023   5.475   1.228  17.288  0.2823  0.9032  0.1909
15511TIP3    H168024   5.426   1.289  17.233  0.8262  0.3247 -0.9370
15511TIP3    H268025   5.458   1.258  17.377 -1.9118  0.8690 -0.1841
15512TIP3   OH268026   1.060   3.275  15.622 -0.1629  0.4384 -0.2154
15512TIP3    H168027   0.976   3.320  15.631 -0.7275 -0.7080  0.4172
15512TIP3    H268028   1.064   3.251  15.529 -0.2212  1.0890 -0.3877
15513TIP3   OH268029   4.204   2.247  15.405  0.1752  1.1344 -0.3970
15513TIP3    H168030   4.229   2.271  15.315 -0.8519  1.6853 -0.5446
15513TIP3    H268031   4.253   2.309  15.460  0.1679  1.3440 -0.6219
15514TIP3   OH268032   1.002   3.317   4.713 -0.3530  0.1537 -0.1685
15514TIP3    H168033   0.998   3.229   4.675 -1.5074  0.4477 -0.7458
15514TIP3    H268034   0.964   3.373   4.646  2.6595  1.4589 -0.8536
15515TIP3   OH268035   5.189   5.627   2.612 -0.1565 -0.1580 -0.6384
15515TIP3    H168036   5.238   5.709   2.618 -1.1237  0.4792 -1.2364
15515TIP3    H268037   5.211   5.579   2.693  0.0980  0.8696 -0.0921
15516TIP3   OH268038   2.148   0.148   1.572  0.2623  0.1416  0.4220
15516TIP3    H168039   2.058   0.120   1.586  0.1371  1.3966  2.2704
15516TIP3    H268040   2.191   0.072   1.531 -0.7052 -1.8066  2.8918
15517TIP3   OH268041   1.356   2.782  11.344 -0.0045 -0.0558 -0.2823
15517TIP3    H168042   1.401   2.771  11.427 -0.0156 -1.7370 -0.4749
15517TIP3    H268043   1.407   2.849  11.298  0.1710  0.6682  0.9461
15518TIP3   OH268044   1.505   0.323   4.029  0.7122 -0.7017 -0.2884
15518TIP3    H168045   1.499   0.298   4.121  0.9552  2.7118  0.7105
15518TIP3    H268046   1.598   0.323   4.009  0.7013 -0.7608 -0.3409
15519TIP3   OH268047   2.385   0.836  11.190 -0.2301  0.2669 -0.0612
15519TIP3    H168048   2.390   0.930  11.169  0.8368  0.1949 -0.1506
15519TIP3    H268049   2.291   0.817  11.190 -0.6327  1.9687  2.8132
15520TIP3   OH268050   3.807   0.386  16.287 -0.4025 -0.1359 -0.0201
15520TIP3    H168051   3.810   0.437  16.206 -0.9562 -0.4828 -0.2610
15520TIP3    H268052   3.885   0.412  16.335 -1.3390  1.8835  0.4331
15521TIP3   OH268053   0.719   0.973  16.403  0.0140 -0.3174 -0.1339
15521TIP3    H168054   0.678   1.059  16.411 -1.0714 -0.7888 -0.4880
15521TIP3    H268055   0.813   0.992  16.395 -0.1086  0.7729  0.8224
15522TIP3   OH268056   1.342   3.707  15.793  0.2621 -0.1836  0.0609
15522TIP3    H168057   1.323   3.696  15.887  0.0477 -0.1500  0.0237
15522TIP3    H268058   1.412   3.645  15.775  0.8693  0.3923  0.4290
15523TIP3   OH268059   3.286   0.642  11.089  0.5214  0.4300  0.0540
15523TIP3    H168060   3.381   0.654  11.078  0.3861  1.4220 -0.0119
15523TIP3    H268061   3.279   0.585  11.166  1.1419  1.2170  0.7117
15524TIP3   OH268062   0.772   4.286  14.624  0.0834  0.8039 -0.3069
15524TIP3    H168063   0.784   4.192  14.637  1.7250  0.7334 -2.0999
15524TIP3    H268064   0.730   4.316  14.705 -0.4359 -1.4530  0.2941
15525TIP3   OH268065   0.497   5.003  11.652 -0.4511 -0.4004 -0.0439
15525TIP3    H168066   0.466   4.933  11.595  0.4374 -1.6229  0.9272
15525TIP3    H268067   0.434   5.004  11.724 -0.4492 -0.2181 -0.0447
15526TIP3   OH268068   5.683   6.209  14.090  0.0153 -0.1393 -0.4330
15526TIP3    H168069   5.667   6.133  14.034  1.1207  1.4035 -2.9419
15526TIP3    H268070   5.777   6.204  14.110 -0.0555  0.1756 -0.0094
15527TIP3   OH268071   0.313   2.391  12.676 -0.3686  0.4466 -0.0300
15527TIP3    H168072   0.268   2.413  12.594  0.7085 -2.2284 -1.3865
15527TIP3    H268073   0.406   2.393  12.652 -0.0250  0.1724  1.2840
15528TIP3   OH268074   1.135   2.503  15.836 -0.4199  0.2038  0.3262
15528TIP3    H168075   1.148   2.433  15.899 -1.0781  0.1592  0.4191
15528TIP3    H268076   1.216   2.506  15.786  0.1784  0.3719  1.2964
15529TIP3   OH268077   4.979   4.126  17.217  0.3450 -0.1579 -0.6215
15529TIP3    H168078   4.933   4.042  17.212 -1.7360  0.6485  2.7324
15529TIP3    H268079   4.917   4.189  17.180  1.1712  0.1441 -1.4931
15530TIP3   OH268080   4.848   5.178  12.300  0.3146 -0.2852 -0.6610
15530TIP3    H168081   4.787   5.107  12.278  0.3539 -0.8989  1.0936
15530TIP3    H268082   4.797   5.258  12.290 -0.4014 -0.7132 -0.4370
15531TIP3   OH268083   1.170   4.664  13.357 -0.5742 -0.5685  0.0087
15531TIP3    H168084   1.215   4.620  13.285 -1.0373  2.6657 -2.3540
15531TIP3    H268085   1.230   4.656  13.431  1.3938 -1.1457 -1.6070
15532TIP3   OH268086   4.929   6.052   3.398 -0.1623  0.1272  0.5355
15532TIP3    H168087   4.909   5.959   3.384  0.8986 -0.3117  1.7908
15532TIP3    H268088   4.885   6.097   3.326 -0.5206 -1.3673 -0.2106
15533TIP3   OH268089   5.095   5.594  17.285 -0.1224  0.2822 -0.2230
15533TIP3    H168090   5.180   5.572  17.248 -0.6687  0.5098 -1.6214
15533TIP3    H268091   5.101   5.566  17.377  0.9997 -0.8624 -0.6351
15534TIP3   OH268092   1.970   6.010  13.060  0.2593 -0.4177 -0.0043
15534TIP3    H168093   1.934   5.999  13.147  0.6165  0.9489  0.3179
15534TIP3    H268094   2.062   5.984  13.069 -0.3918 -3.1400 -0.6510
15535TIP3   OH268095   2.919   3.721   2.742 -0.2210  0.2344  0.1989
15535TIP3    H168096   2.996   3.676   2.706 -0.4525  0.1256 -0.1629
15535TIP3    H268097   2.845   3.672   2.706 -0.4980  1.4668 -0.9312
15536TIP3   OH268098   2.068   4.027  13.116  0.2473 -0.1270 -0.5208
15536TIP3    H168099   2.158   4.033  13.147  0.4052  0.6776 -1.1117
15536TIP3    H268100   2.074   3.978  13.033 -0.1656 -2.2327  0.6489
15537TIP3   OH268101   3.981   4.361  16.349  0.2414  0.6025  0.3641
15537TIP3    H168102   4.055   4.394  16.401  0.9713 -0.1822 -0.1554
15537TIP3    H268103   3.964   4.274  16.384 -0.4466  0.7809  0.4781
15538TIP3   OH268104   0.977   6.050   5.595  0.3169 -0.8452 -0.3430
15538TIP3    H168105   0.925   5.991   5.649  0.7670 -0.7555  0.1983
15538TIP3    H268106   1.002   6.121   5.654  0.6125 -0.6234 -0.7315
15539TIP3   OH268107   5.462   4.541  13.945  0.0706 -0.2138 -0.0308
15539TIP3    H168108   5.510   4.480  14.002  0.0795 -1.5507 -1.4451
15539TIP3    H268109   5.377   4.499  13.932 -1.9958  2.6132  3.3108
15540TIP3   OH268110   2.599   0.296   3.163  0.1174 -0.1650 -0.7643
15540TIP3    H168111   2.693   0.277   3.168  0.2687  0.3854 -1.4135
15540TIP3    H268112   2.589   0.380   3.208 -0.3236 -1.0209  0.7748
15541TIP3   OH268113   6.562   0.881   3.122 -0.4877 -0.9386  0.1993
15541TIP3    H168114   6.554   0.955   3.062  0.4108 -0.5246  0.5889
15541TIP3    H268115   6.574   0.921   3.208 -0.7197 -1.5350  0.5142
15542TIP3   OH268116   6.393   0.168   1.721  0.2284 -0.0893  0.1724
15542TIP3    H168117   6.484   0.181   1.747 -0.0111 -0.3683  1.1965
15542TIP3    H268118   6.344   0.227   1.778 -0.2171  0.1852 -0.4912
15543TIP3   OH268119   4.681   6.594  12.293 -0.2815 -0.2734 -0.0640
15543TIP3    H168120   4.722   6.598  12.380 -0.4899  0.3714  0.0049
15543TIP3    H268121   4.755   6.599  12.232 -0.0844 -1.3804  0.0780
15544TIP3   OH268122   5.753   3.186  14.130  0.2193  0.2231  0.2382
15544TIP3    H168123   5.841   3.150  14.141  0.2840 -1.0302 -3.4621
15544TIP3    H268124   5.697   3.108  14.120 -1.0368  1.0428  0.7393
15545TIP3   OH268125   4.256   0.261  12.333 -0.0067  0.1075  0.2699
15545TIP3    H168126   4.241   0.343  12.286 -0.0979 -0.6870 -1.1099
15545TIP3    H268127   4.326   0.281  12.395  0.8260  0.9009 -0.9099
15546TIP3   OH268128   0.778   1.968   2.530  0.1427  0.4025  0.3819
15546TIP3    H168129   0.753   1.883   2.493  0.4526  0.6788 -0.4875
15546TIP3    H268130   0.808   2.019   2.454  0.8637  0.9598  1.0324
15547TIP3   OH268131   0.364   3.995   2.759  0.0109 -0.5022 -0.0796
15547TIP3    H168132   0.307   4.064   2.724  1.0735  0.2368 -0.3965
15547TIP3    H268133   0.344   3.992   2.852 -1.8767 -1.5413 -0.5016
15548TIP3   OH268134   5.749   1.057  15.036 -0.4393  0.5837 -0.5276
15548TIP3    H168135   5.674   1.111  15.010 -0.3934  0.8603 -0.0778
15548TIP3    H268136   5.781   1.021  14.953 -0.8310  0.7723 -0.7645
15549TIP3   OH268137   5.452   2.173   3.142  0.3710 -0.0599 -0.2821
15549TIP3    H168138   5.471   2.207   3.229 -3.9606  1.8534  0.0257
15549TIP3    H268139   5.391   2.100   3.157  1.3519 -1.1763 -1.5846
15550TIP3   OH268140   2.693   6.008  12.364  0.5130  0.3730  0.0786
15550TIP3    H168141   2.668   5.938  12.424 -1.6429  0.6427 -0.4610
15550TIP3    H268142   2.685   6.088  12.417 -0.7377  0.5445 -0.3340
15551TIP3   OH268143   1.260   1.729   0.336 -0.0671 -0.6828  0.4684
15551TIP3    H168144   1.184   1.682   0.302 -0.4736 -0.2752  0.8196
15551TIP3    H268145   1.325   1.722   0.266  0.1642 -2.4580  0.8302
15552TIP3   OH268146   0.326   3.095   1.953  0.3857 -0.0717 -0.3307
15552TIP3    H168147   0.261   3.160   1.927 -1.5787 -1.6551  0.3992
15552TIP3    H268148   0.376   3.077   1.874 -1.5151 -0.3885 -1.4878
15553TIP3   OH268149   0.334   2.818   5.626 -0.1038 -0.1728 -0.1141
15553TIP3    H168150   0.380   2.785   5.549  0.9330  2.7704 -0.8147
15553TIP3    H268151   0.244   2.833   5.596  0.1057  0.2385 -0.5316
15554TIP3   OH268152   1.159   2.853   5.996  0.7076 -0.2473 -0.2713
15554TIP3    H168153   1.120   2.925   5.946  1.1413  1.0303  1.1929
15554TIP3    H268154   1.089   2.821   6.052  0.9903  0.2399  0.3743
15555TIP3   OH268155   0.820   2.998   4.241 -0.0541 -0.0365  0.2287
15555TIP3    H168156   0.799   2.978   4.150  2.2983  0.6100 -0.4778
15555TIP3    H268157   0.831   2.912   4.282  1.4708 -0.3019 -0.7214
15556TIP3   OH268158   0.879   5.481  13.496  0.0064 -0.1871 -0.4855
15556TIP3    H168159   0.887   5.573  13.471  0.6821  0.1045  0.7336
15556TIP3    H268160   0.808   5.481  13.562 -0.1967 -0.5837 -0.7039
15557TIP3   OH268161   2.123   3.884  14.382 -0.3322 -0.5834 -0.9032
15557TIP3    H168162   2.110   3.839  14.465  1.6909  1.1524  0.3847
15557TIP3    H268163   2.129   3.813  14.317 -0.6492 -1.9992  0.5829
15558TIP3   OH268164   2.570   1.934   4.375  0.3714  0.0466 -0.5375
15558TIP3    H168165   2.659   1.964   4.396  0.3189  1.7331 -2.5285
15558TIP3    H268166   2.567   1.845   4.407  2.8710 -0.0985 -0.5593
15559TIP3   OH268167   4.207   6.456  11.786  0.1793 -0.0289 -0.1469
15559TIP3    H168168   4.300   6.444  11.802 -0.1164 -1.3549  0.6900
15559TIP3    H268169   4.181   6.379  11.736 -0.3694  0.5942 -0.8373
15560TIP3   OH268170   3.357   4.597   3.575  0.1123  0.6424  0.4465
15560TIP3    H168171   3.392   4.636   3.495  1.0653 -0.6463  0.2106
15560TIP3    H268172   3.278   4.551   3.547 -0.9006  2.1949  0.6896
15561TIP3   OH268173   6.165   5.638   2.294 -0.1558  0.2311  0.1287
15561TIP3    H168174   6.089   5.694   2.314  0.1767  0.7190  0.0308
15561TIP3    H268175   6.240   5.697   2.299  0.3207 -0.4605  1.1506
15562TIP3   OH268176   5.204   1.787  17.221 -0.0731 -0.1171  0.2316
15562TIP3    H168177   5.195   1.828  17.307 -1.9041 -1.0458  0.5052
15562TIP3    H268178   5.171   1.697  17.234 -1.1231 -0.0199 -1.6143
15563TIP3   OH268179   5.510   6.253  13.280 -0.0912 -0.0661 -0.2506
15563TIP3    H168180   5.465   6.233  13.198  0.2851 -0.6530 -0.3243
15563TIP3    H268181   5.504   6.348  13.289 -1.3837 -0.1420 -0.2315
15564TIP3   OH268182   0.487   2.486   1.938  0.3486 -0.1851  0.1507
15564TIP3    H168183   0.435   2.446   2.008 -0.7604  0.2078 -0.4343
15564TIP3    H268184   0.444   2.570   1.921  0.2679 -0.5208 -1.3839
15565TIP3   OH268185   0.676   1.298   2.282  0.8226 -0.5150 -0.7820
15565TIP3    H168186   0.593   1.319   2.241  0.0924  2.3071  1.9738
15565TIP3    H268187   0.742   1.338   2.225  0.2117 -1.1124 -1.9290
15566TIP3   OH268188   3.926   3.204  11.623  0.2330 -0.0409 -0.6566
15566TIP3    H168189   3.989   3.139  11.654  1.3083  1.4255  0.3409
15566TIP3    H268190   3.876   3.227  11.701  0.6296  1.1462 -0.7393
15567TIP3   OH268191   0.916   2.585   5.028  0.2166  1.1432 -0.2599
15567TIP3    H168192   0.835   2.577   5.079  1.4938  1.1851  1.8654
15567TIP3    H268193   0.894   2.645   4.957 -1.8130  0.5860 -0.1335
15568TIP3   OH268194   5.870   1.541   4.944 -0.1699  0.0761  0.0061
15568TIP3    H168195   5.847   1.570   4.856 -0.0263  0.4364  0.0836
15568TIP3    H268196   5.883   1.623   4.993  1.3963 -0.1350 -0.0591
15569TIP3   OH268197   1.487   3.838  14.741  0.0085  0.3029  0.1503
15569TIP3    H168198   1.403   3.794  14.755  0.0278  0.5959  1.2249
15569TIP3    H268199   1.521   3.799  14.660 -0.5749 -0.7188  0.3892
15570TIP3   OH268200   0.446   1.979  13.318 -0.5206 -0.2129 -0.6905
15570TIP3    H168201   0.507   2.039  13.361 -2.7160  0.0515  2.3005
15570TIP3    H268202   0.369   2.033  13.300 -0.8533 -1.1200 -2.0667
15571TIP3   OH268203   4.986   1.808  14.639 -0.6360  0.6629  0.2687
15571TIP3    H168204   4.943   1.894  14.633 -3.9628 -1.0409 -1.6277
15571TIP3    H268205   5.050   1.809  14.568 -2.1163  0.8363 -1.0940
15572TIP3   OH268206   1.117   6.050  13.502  0.1173  0.3371 -0.1298
15572TIP3    H168207   1.071   6.073  13.422  0.2177  2.1683  0.3158
15572TIP3    H268208   1.207   6.032  13.474 -0.1631 -0.3391 -0.5992
15573TIP3   OH268209   5.864   0.080  15.370 -0.1913  0.1650  0.2669
15573TIP3    H168210   5.836   0.002  15.417 -0.5273 -0.3925 -0.8239
15573TIP3    H268211   5.794   0.095  15.306  0.3863  0.7386 -0.2349
15574TIP3   OH268212   0.065   3.844  11.754  0.7309 -0.3255 -0.3053
15574TIP3    H168213   0.157   3.826  11.773  0.1327  0.7353  4.2738
15574TIP3    H268214   0.018   3.777  11.803 -0.9857  0.4636 -0.8565
15575TIP3   OH268215   4.341   5.681   4.599 -0.1185 -0.1580 -0.0429
15575TIP3    H168216   4.431   5.704   4.624 -1.2398  0.1250  3.9561
15575TIP3    H268217   4.292   5.762   4.612 -1.2517 -0.7334 -0.7197
15576TIP3   OH268218   1.590   2.913   3.100  0.5595  0.6365  0.5099
15576TIP3    H168219   1.650   2.842   3.078  0.9688  1.2020 -0.2422
15576TIP3    H268220   1.607   2.931   3.192  1.4270  0.6809  0.3469
15577TIP3   OH268221   2.705   6.122  15.223  0.2208 -0.1239  0.2084
15577TIP3    H168222   2.635   6.120  15.289  0.0579  0.7468  0.0713
15577TIP3    H268223   2.687   6.046  15.167 -0.0050 -0.5080  0.7935
15578TIP3   OH268224   3.626   5.503  13.726  0.3515  0.2043  0.6394
15578TIP3    H168225   3.562   5.447  13.771  0.4567 -0.1983  0.2966
15578TIP3    H268226   3.573   5.573  13.688  0.3359  0.8989  1.9086
15579TIP3   OH268227   1.545   4.448   4.639 -0.8064 -0.0489  0.8018
15579TIP3    H168228   1.572   4.530   4.680 -2.2035  0.5130  0.6447
15579TIP3    H268229   1.450   4.444   4.654 -1.1419 -0.4564 -1.2435
15580TIP3   OH268230   1.201   2.369   5.576 -0.6458 -0.1556  0.0386
15580TIP3    H168231   1.110   2.394   5.557 -0.4907  0.4942  0.1695
15580TIP3    H268232   1.248   2.386   5.495 -0.2221  1.4954  0.6196
15581TIP3   OH268233   4.016   4.332  15.781 -0.2767  0.5577 -0.1143
15581TIP3    H168234   4.014   4.288  15.866  2.9454 -1.2551 -0.9028
15581TIP3    H268235   3.939   4.299  15.735 -1.2710  0.4907  1.5429
15582TIP3   OH268236   0.464   3.345  11.144  0.4261 -0.4029 -0.5242
15582TIP3    H168237   0.468   3.252  11.168  1.4096  0.0476  1.0850
15582TIP3    H268238   0.550   3.364  11.108  0.5152  0.0994 -0.0483
15583TIP3   OH268239   6.162   6.639   2.900  0.0504 -0.1630 -0.0538
15583TIP3    H168240   6.246   6.683   2.886  0.4010 -1.2926 -1.6951
15583TIP3    H268241   6.169   6.601   2.988  1.7352 -1.2227 -0.6057
15584TIP3   OH268242   4.600   1.148   3.323  0.1453  0.6428 -0.7635
15584TIP3    H168243   4.682   1.196   3.329  0.6527 -0.3315  0.2248
15584TIP3    H268244   4.542   1.205   3.272  0.6853  2.3641  0.4986
15585TIP3   OH268245   3.129   2.701  16.111 -0.2616 -0.4667  0.0281
15585TIP3    H168246   3.082   2.620  16.093 -0.1234 -0.6967  0.6754
15585TIP3    H268247   3.085   2.737  16.189 -0.0756 -0.1242 -0.0256
15586TIP3   OH268248   3.265   1.755   0.719 -0.4114  0.6132  0.0600
15586TIP3    H168249   3.246   1.671   0.761 -1.6197  1.3630  1.0622
15586TIP3    H268250   3.286   1.733   0.629 -0.4909 -0.7852  0.3708
15587TIP3   OH268251   5.547   5.264   0.961  0.5591  0.3789  0.3166
15587TIP3    H168252   5.606   5.337   0.979 -0.5533  0.7747  2.5774
15587TIP3    H268253   5.509   5.242   1.046 -0.3206 -1.8126 -0.5906
15588TIP3   OH268254   2.049   1.605   1.824 -0.2570 -0.5836  0.3386
15588TIP3    H168255   1.986   1.594   1.895  0.0305  2.3322  1.0986
15588TIP3    H268256   1.996   1.628   1.748 -0.4980 -2.9564 -0.2381
15589TIP3   OH268257   4.122   4.188   4.167  0.2284 -0.1682 -0.2080
15589TIP3    H168258   4.136   4.212   4.258 -2.2066 -0.8385  0.3901
15589TIP3    H268259   4.204   4.210   4.123  0.6348  2.2956  1.6902
15590TIP3   OH268260   1.081   6.762  14.872  0.1577 -0.2037 -0.0410
15590TIP3    H168261   1.134   6.686  14.896 -2.6439 -2.1823  0.1483
15590TIP3    H268262   1.025   6.731  14.801 -0.1647  2.0836 -0.8367
15591TIP3   OH268263   2.834   2.294  16.236  0.3399 -0.5954 -0.1829
15591TIP3    H168264   2.929   2.290  16.226  0.3955  0.7024 -0.2087
15591TIP3    H268265   2.820   2.306  16.330  0.1101 -3.0400  0.1482
15592TIP3   OH268266   4.464   0.178  13.709 -0.3227  0.5936 -0.7065
15592TIP3    H168267   4.548   0.161  13.668  0.1434  0.4610  0.2983
15592TIP3    H268268   4.463   0.272  13.723 -0.2491  0.5620 -0.4988
15593TIP3   OH268269   3.569   2.373  14.542 -0.5548  0.3453  0.5143
15593TIP3    H168270   3.506   2.321  14.592 -0.8208  0.3616  0.2000
15593TIP3    H268271   3.569   2.334  14.454 -3.3279  2.9374 -0.7483
15594TIP3   OH268272   3.662   4.146  13.494  0.5045 -0.2787 -0.2350
15594TIP3    H168273   3.636   4.082  13.428  0.3995  0.2313 -0.6931
15594TIP3    H268274   3.582   4.164  13.543  0.1125  0.8420 -1.2588
15595TIP3   OH268275   4.122   6.264   4.335 -0.3018  0.4362  0.0466
15595TIP3    H168276   4.093   6.247   4.425 -1.2890  1.3488 -0.0847
15595TIP3    H268277   4.208   6.221   4.329 -0.7082 -0.5752  1.0814
15596TIP3   OH268278   5.033   3.669  15.204  0.0515  0.6482 -0.0607
15596TIP3    H168279   5.122   3.676  15.168 -0.3868  0.5407 -1.1891
15596TIP3    H268280   5.012   3.576  15.198 -0.1234  0.6657  0.2597
15597TIP3   OH268281   0.390   1.043  11.699 -0.2867  0.0172 -0.3735
15597TIP3    H168282   0.479   1.035  11.731 -0.2482 -1.5855 -0.8245
15597TIP3    H268283   0.365   0.954  11.675 -1.6099  0.6160 -1.3062
15598TIP3   OH268284   1.665   6.795  12.897  0.4982 -0.1190  0.0081
15598TIP3    H168285   1.674   6.726  12.831  1.3440 -0.0399  0.0419
15598TIP3    H268286   1.718   6.867  12.863 -1.2601  0.9363 -0.5868
15599TIP3   OH268287   4.391   6.554   0.894  0.3765  0.1060 -0.0374
15599TIP3    H168288   4.351   6.483   0.944  0.6331  1.1919  1.7195
15599TIP3    H268289   4.392   6.629   0.953  3.3511  0.6222 -0.6539
15600TIP3   OH268290   3.215   3.589   6.165 -0.3234 -0.3134  0.2632
15600TIP3    H168291   3.159   3.650   6.117 -0.7980 -0.7823  0.2173
15600TIP3    H268292   3.263   3.644   6.226 -0.6045  0.1344  0.0844
15601TIP3   OH268293   1.604   5.031   6.032 -0.0481  0.2575  0.6488
15601TIP3    H168294   1.629   4.969   6.101  1.0693 -0.6951 -0.5844
15601TIP3    H268295   1.511   5.046   6.045 -0.1385 -1.0030  1.5134
15602TIP3   OH268296   5.523   1.842  12.628 -0.5104  0.3827  0.0315
15602TIP3    H168297   5.581   1.918  12.636 -1.7176  1.2660  0.4519
15602TIP3    H268298   5.530   1.797  12.712 -0.8693  0.7912  0.2759
15603TIP3   OH268299   6.217   1.233   1.794 -0.0480  0.2463 -0.1406
15603TIP3    H168300   6.169   1.314   1.813  1.2900  0.2140  3.6616
15603TIP3    H268301   6.148   1.168   1.780 -1.1274  1.4260 -0.4076
15604TIP3   OH268302   5.796   2.655   3.929  0.5611  0.2425  0.6602
15604TIP3    H168303   5.863   2.636   3.864  0.8976 -0.1671  1.1262
15604TIP3    H268304   5.792   2.751   3.932  2.2102  0.2846  1.7464
15605TIP3   OH268305   0.294   4.411  12.549 -0.0732 -0.2335 -0.5906
15605TIP3    H168306   0.361   4.363  12.597 -0.4062  0.6790  0.8491
15605TIP3    H268307   0.342   4.459  12.482  0.5866 -0.4972 -0.3102
15606TIP3   OH268308   2.906   0.693  13.524  0.3381 -0.3024  0.4457
15606TIP3    H168309   2.819   0.654  13.533 -0.4512  0.9918 -1.1165
15606TIP3    H268310   2.964   0.619  13.510 -0.9282 -1.0585 -1.1116
15607TIP3   OH268311   2.702   0.241   5.080  0.4266 -0.6152 -0.1383
15607TIP3    H168312   2.756   0.303   5.127 -1.0358  0.3889  0.2666
15607TIP3    H268313   2.643   0.205   5.146 -1.5509  0.7127 -1.1274
15608TIP3   OH268314   2.915   4.654   0.487  0.0298  0.3919 -0.2096
15608TIP3    H168315   2.898   4.738   0.444  4.2935  0.9665 -0.9855
15608TIP3    H268316   2.931   4.594   0.414  1.8757  0.0893  0.4315
15609TIP3   OH268317   6.052   4.053  16.972 -0.5591  0.1846  0.0423
15609TIP3    H168318   6.109   4.108  16.918  0.9767 -1.4801 -0.0604
15609TIP3    H268319   6.072   4.080  17.062  0.8673 -0.8229  0.0406
15610TIP3   OH268320   2.345   0.415  13.764 -0.3146 -0.1596 -0.0800
15610TIP3    H168321   2.433   0.378  13.752  0.4970  1.8166 -0.2834
15610TIP3    H268322   2.360   0.497  13.811 -1.8947  1.0754 -1.7117
15611TIP3   OH268323   1.970   4.428   3.825 -0.3252 -0.5066 -0.2072
15611TIP3    H168324   2.007   4.362   3.768  1.4769 -1.0442  1.5097
15611TIP3    H268325   1.935   4.379   3.900 -0.7915  0.3223  0.1274
15612TIP3   OH268326   5.727   4.542   1.297 -0.5581 -0.4826 -0.1844
15612TIP3    H168327   5.800   4.505   1.346  0.4942  0.8200 -0.7263
15612TIP3    H268328   5.650   4.495   1.329  0.2389 -0.4402  1.8965
15613TIP3   OH268329   3.111   0.423   2.633 -0.1640 -0.9329  0.0230
15613TIP3    H168330   3.084   0.412   2.542  0.4889 -1.1700 -0.1472
15613TIP3    H268331   3.062   0.356   2.681 -0.4073 -0.8952 -0.1701
15614TIP3   OH268332   6.813   2.177   1.026  0.3975 -0.6696  0.0491
15614TIP3    H168333   6.810   2.157   1.120 -1.3132 -0.8737 -0.0456
15614TIP3    H268334   6.772   2.263   1.019  1.1383 -0.3483 -0.4512
15615TIP3   OH268335   6.655   0.727  14.977  0.7309  0.0826  0.7007
15615TIP3    H168336   6.743   0.711  14.943  0.2258 -0.8858 -0.2123
15615TIP3    H268337   6.606   0.648  14.952 -0.3095  0.4837  1.4602
15616TIP3   OH268338   4.095   3.437   3.406 -0.1804  0.1964  0.4812
15616TIP3    H168339   4.011   3.392   3.416  0.6761 -1.2268  1.3601
15616TIP3    H268340   4.119   3.424   3.314 -1.3246  1.3576  0.0005
15617TIP3   OH268341   4.167   6.394   1.530  0.3542 -0.3343  0.1182
15617TIP3    H168342   4.171   6.317   1.586  2.0890 -0.8413 -0.6703
15617TIP3    H268343   4.078   6.394   1.496  0.6612 -2.6764 -0.7936
15618TIP3   OH268344   6.088   1.949   5.373  0.3126  0.5289 -0.3655
15618TIP3    H168345   6.011   1.940   5.429 -1.0170  2.5502 -1.8118
15618TIP3    H268346   6.110   1.859   5.349  0.9033 -0.3922  3.3140
15619TIP3   OH268347   5.110   0.428  11.665 -0.3817  0.4115 -0.1821
15619TIP3    H168348   5.178   0.362  11.681 -1.7078 -0.9754 -0.1747
15619TIP3    H268349   5.040   0.406  11.726 -1.0485  1.5372 -0.5316
15620TIP3   OH268350   5.212   3.600  12.178  0.0668 -0.2620  0.0211
15620TIP3    H168351   5.286   3.545  12.203 -0.3720 -1.5533 -1.4427
15620TIP3    H268352   5.237   3.637  12.093  0.4229  1.9580  1.0615
15621TIP3   OH268353   2.323   4.568   3.263 -0.2399 -0.1407 -0.4035
15621TIP3    H168354   2.338   4.480   3.297 -1.2215 -0.6763 -1.3451
15621TIP3    H268355   2.307   4.555   3.169  1.7665  1.2457 -0.9694
15622TIP3   OH268356   0.957   1.670  16.743  0.0465  0.1411  0.1286
15622TIP3    H168357   0.934   1.586  16.783 -1.8794  1.0829  1.1020
15622TIP3    H268358   0.928   1.662  16.652 -1.7287  0.3291  0.6496
15623TIP3   OH268359   3.750   6.202  10.724 -0.2770 -0.3244 -0.0872
15623TIP3    H168360   3.814   6.220  10.655  0.0418 -2.5647 -0.4338
15623TIP3    H268361   3.800   6.152  10.789 -1.1696 -0.2781  0.6345
15624TIP3   OH268362   4.616   6.494  13.151  0.3182  0.5154  0.1175
15624TIP3    H168363   4.645   6.403  13.159 -0.0603  0.2951 -0.9155
15624TIP3    H268364   4.526   6.494  13.186 -1.2387 -0.3899 -3.6584
15625TIP3   OH268365   2.986   0.450  12.815 -0.2335  0.2439  0.4648
15625TIP3    H168366   3.077   0.470  12.837 -0.8050  0.3274  2.7895
15625TIP3    H268367   2.993   0.381  12.749  1.5036 -1.0564  1.9607
15626TIP3   OH268368   0.414   0.444   0.866  0.0438  0.1206  0.3241
15626TIP3    H168369   0.333   0.398   0.847  0.4683 -0.1652 -0.8034
15626TIP3    H268370   0.477   0.408   0.804  1.1366  0.0590  1.4402
15627TIP3   OH268371   3.995   3.880  13.298  0.4181 -0.8121  0.1931
15627TIP3    H168372   3.925   3.870  13.234  0.0527 -0.3172  0.5017
15627TIP3    H268373   4.074   3.851  13.253  0.3093  0.3382 -0.7744
15628TIP3   OH268374   6.817   6.577  13.719  0.0314  0.4139 -0.3128
15628TIP3    H168375   6.821   6.670  13.742  0.5826  1.0674 -2.9254
15628TIP3    H268376   6.737   6.569  13.666  0.1188 -0.5540 -0.3087
15629TIP3   OH268377   2.260   5.394  14.968 -0.4613  0.1046 -0.1030
15629TIP3    H168378   2.270   5.469  14.909  0.0477  0.2822  0.2054
15629TIP3    H268379   2.327   5.332  14.940  1.0800  0.9905  1.5020
15630TIP3   OH268380   1.158   1.017   5.929  1.1268  0.1406 -0.2385
15630TIP3    H168381   1.139   1.004   6.022 -1.2299  1.3345 -0.5149
15630TIP3    H268382   1.223   0.950   5.908  0.3813 -1.2889  1.8399
15631TIP3   OH268383   1.133   0.939   2.590  0.3346 -0.0995  0.1770
15631TIP3    H168384   1.050   0.909   2.552 -0.7702 -0.6054  2.8482
15631TIP3    H268385   1.189   0.861   2.588 -0.6180 -0.8729  1.9197
15632TIP3   OH268386   1.293   1.448  16.054  0.6063  0.4623  0.4085
15632TIP3    H168387   1.316   1.369  16.005  1.7358  0.7217  0.4973
15632TIP3    H268388   1.219   1.486  16.006 -0.0782 -0.7534  0.4882
15633TIP3   OH268389   2.990   5.834  17.253 -0.3758  0.9142  0.2534
15633TIP3    H168390   2.918   5.772  17.263 -0.8817  1.5447  0.6304
15633TIP3    H268391   3.005   5.839  17.159  1.4876 -1.8144  0.3775
15634TIP3   OH268392   1.739   5.923  13.557  0.1375 -0.0749 -0.1788
15634TIP3    H168393   1.811   5.883  13.508  1.1010  4.1761 -2.4635
15634TIP3    H268394   1.781   5.990  13.611 -2.0457  2.4132 -1.4647
15635TIP3   OH268395   6.487   5.491   5.570  0.3418  0.0169 -0.3525
15635TIP3    H168396   6.472   5.585   5.577 -0.6213 -0.1481 -0.1143
15635TIP3    H268397   6.581   5.483   5.553  0.8549  0.9176  1.8041
15636TIP3   OH268398   2.721   3.905   1.577 -0.3155  0.4457  0.3297
15636TIP3    H168399   2.725   3.989   1.531  2.3601  0.5724  0.7052
15636TIP3    H268400   2.770   3.919   1.658 -1.9331 -0.8036  1.5710
15637TIP3   OH268401   0.645   2.093  15.683 -0.0259  0.0340 -0.1651
15637TIP3    H168402   0.571   2.032  15.676 -0.7416  0.8756  0.0340
15637TIP3    H268403   0.606   2.175  15.714  1.0113  0.4457  0.0631
15638TIP3   OH268404   4.393   4.512   5.935 -0.1606 -0.2115 -0.1727
15638TIP3    H168405   4.443   4.530   5.856 -3.1599  0.3049 -2.0294
15638TIP3    H268406   4.403   4.418   5.949  1.1637 -0.1446 -0.6160
15639TIP3   OH268407   0.125   0.411   4.655 -0.0088 -0.0692  0.6064
15639TIP3    H168408   0.168   0.494   4.673 -1.0346  0.7485 -0.6375
15639TIP3    H268409   0.036   0.436   4.630 -0.4058 -1.5655  0.5089
15640TIP3   OH268410   6.266   6.202  12.575 -0.1096  0.8326 -0.8210
15640TIP3    H168411   6.341   6.174  12.627  0.1014  0.5556 -1.2663
15640TIP3    H268412   6.280   6.296  12.561 -1.2597  1.3615  1.3869
15641TIP3   OH268413   5.717   1.967  12.451  0.1242  0.0810  0.4057
15641TIP3    H168414   5.728   1.955  12.545  0.8398 -0.6353  0.2261
15641TIP3    H268415   5.725   2.062  12.438 -0.7593  0.2673  1.1652
15642TIP3   OH268416   6.228   5.984   2.525 -0.5684 -0.3222  0.0106
15642TIP3    H168417   6.323   5.974   2.524 -0.5335 -0.1829  1.0945
15642TIP3    H268418   6.199   5.952   2.440  0.5138  0.3342 -0.6068
15643TIP3   OH268419   3.209   6.543   3.619 -0.3259 -0.0990 -0.1255
15643TIP3    H168420   3.191   6.456   3.655 -2.0963 -0.2582 -1.3301
15643TIP3    H268421   3.214   6.600   3.696 -4.2052 -0.4022  0.4627
15644TIP3   OH268422   5.190   4.599  15.788 -0.8154 -0.3943  0.3437
15644TIP3    H168423   5.205   4.694  15.787 -0.0693 -0.4712  2.9690
15644TIP3    H268424   5.124   4.585  15.719  1.4202  1.5974 -2.2910
15645TIP3   OH268425   3.056   4.756   2.415  0.3358  0.1784 -0.8640
15645TIP3    H168426   3.143   4.737   2.380  0.6597 -0.3382  0.2124
15645TIP3    H268427   3.024   4.828   2.361  1.6285  0.6971 -0.9600
15646TIP3   OH268428   0.419   6.579   2.706  0.7556 -0.1948 -0.1055
15646TIP3    H168429   0.391   6.493   2.673 -0.4593  0.3288 -0.4675
15646TIP3    H268430   0.474   6.614   2.636  0.8374 -0.4640 -0.1769
15647TIP3   OH268431   1.118   2.502  16.854  0.6188  0.1158 -0.3411
15647TIP3    H168432   1.077   2.583  16.823  2.0673  1.0639  0.1984
15647TIP3    H268433   1.115   2.443  16.779 -1.3654  0.2879 -0.4424
15648TIP3   OH268434   2.462   3.222   1.616  0.0007 -0.1178  0.2439
15648TIP3    H168435   2.447   3.163   1.690  1.8503  1.7450  2.1570
15648TIP3    H268436   2.540   3.187   1.572  0.6996  0.5116  0.9803
15649TIP3   OH268437   3.114   2.335  16.250  0.0314 -0.4442  0.1863
15649TIP3    H168438   3.093   2.278  16.176  0.4735  0.8868 -0.9988
15649TIP3    H268439   3.207   2.321  16.266  0.1950  0.1299 -0.2662
15650TIP3   OH268440   3.167   2.664   1.540  0.0193  0.7715  0.9446
15650TIP3    H168441   3.262   2.673   1.534 -0.0958  1.6434  0.2501
15650TIP3    H268442   3.152   2.571   1.558  1.0736  0.9391  2.8351
15651TIP3   OH268443   5.435   2.065  11.103  0.3161 -0.4790  0.6872
15651TIP3    H168444   5.472   2.067  11.015 -1.0266 -1.5066  0.0676
15651TIP3    H268445   5.391   2.150  11.113  1.5448  0.1375  0.8537
15652TIP3   OH268446   2.321   0.162   3.466  0.0831  0.2188  0.0844
15652TIP3    H168447   2.359   0.152   3.379  1.3805  2.0506  0.4096
15652TIP3    H268448   2.379   0.114   3.524 -0.1896 -0.1095  0.0890
15653TIP3   OH268449   4.619   5.075  14.218  0.0367  0.7846 -0.1927
15653TIP3    H168450   4.570   5.099  14.139 -1.2127  0.7054  0.5360
15653TIP3    H268451   4.619   5.155  14.271 -0.5134  0.3917  0.4113
15654TIP3   OH268452   3.225   3.341  17.183 -0.0406 -0.5891  0.0276
15654TIP3    H168453   3.283   3.326  17.108 -0.4152 -0.9245 -0.1986
15654TIP3    H268454   3.239   3.433  17.205  1.5486 -0.9977  0.8125
15655TIP3   OH268455   6.176   1.260  16.626  0.2897 -0.1862 -0.0485
15655TIP3    H168456   6.086   1.228  16.621  0.9951 -2.4444  0.6982
15655TIP3    H268457   6.192   1.269  16.720  1.1589 -0.8371 -0.1251
15656TIP3   OH268458   1.173   1.418  15.267 -0.0255 -0.8322  0.3906
15656TIP3    H168459   1.107   1.357  15.233  0.7590 -1.8164  0.6253
15656TIP3    H268460   1.175   1.489  15.202  1.3816 -2.6332 -1.6107
15657TIP3   OH268461   1.089   5.829  11.899  0.8270  0.1768 -0.5353
15657TIP3    H168462   1.101   5.742  11.937  0.0442  0.0498 -0.5591
15657TIP3    H268463   1.177   5.858  11.875  1.3695  0.3931  1.6706
15658TIP3   OH268464   5.423   3.937  14.031 -0.6190  0.5425  0.3136
15658TIP3    H168465   5.410   4.031  14.046 -2.3455  0.5047 -0.8444
15658TIP3    H268466   5.438   3.930  13.937  3.9116  0.1044  0.9229
15659TIP3   OH268467   0.050   0.600  15.417  0.2862  0.2480  0.1386
15659TIP3    H168468  -0.029   0.634  15.375  1.4805  0.7011 -1.8086
15659TIP3    H268469   0.024   0.515  15.453 -1.3341  0.8464  0.4213
15660TIP3   OH268470   6.491   2.322  15.280  0.1749  0.8031  0.0800
15660TIP3    H168471   6.541   2.314  15.199  0.0098 -1.1449  0.1320
15660TIP3    H268472   6.557   2.324  15.349  0.2271 -1.4247  0.1259
15661TIP3   OH268473   1.525   3.015   3.360  0.1853 -0.2158  0.1645
15661TIP3    H168474   1.514   2.936   3.413 -0.8013 -0.8228 -0.9221
15661TIP3    H268475   1.595   3.064   3.404 -0.9383 -0.4733  2.2819
15662TIP3   OH268476   5.074   3.335   3.758 -0.3367  0.5855  0.6009
15662TIP3    H168477   5.152   3.333   3.814 -0.3927  1.2051  0.6939
15662TIP3    H268478   5.055   3.427   3.746  0.6411  0.5301 -1.7555
15663TIP3   OH268479   5.428   3.172  12.201  0.1597 -0.5037  0.4336
15663TIP3    H168480   5.387   3.171  12.114  0.8887  1.8560  0.0141
15663TIP3    H268481   5.477   3.090  12.205 -0.9265 -1.2471 -0.8550
15664TIP3   OH268482   1.357   3.584  16.590 -0.0125  0.3429  0.5116
15664TIP3    H168483   1.430   3.644  16.598 -1.9239  2.8659 -0.2928
15664TIP3    H268484   1.357   3.558  16.497 -0.3365  0.6267  0.4296
15665TIP3   OH268485   1.756   4.477  16.697 -0.2116  0.4508  0.3002
15665TIP3    H168486   1.677   4.439  16.660  0.4452  0.7559 -1.5017
15665TIP3    H268487   1.725   4.535  16.766 -1.6157  1.0088 -0.7674
15666TIP3   OH268488   2.694   4.159   3.267  0.7511  0.6996 -0.7815
15666TIP3    H168489   2.616   4.193   3.310  0.9117 -0.6904  0.6308
15666TIP3    H268490   2.757   4.145   3.338  1.5587 -0.1577 -1.6498
15667TIP3   OH268491   3.556   6.635   2.930 -0.1327 -0.1666 -0.1355
15667TIP3    H168492   3.561   6.562   2.991 -0.0515 -0.9337 -1.0439
15667TIP3    H268493   3.642   6.676   2.933 -0.9067  1.3656  2.1538
15668TIP3   OH268494   4.781   2.597  11.355  0.3395  0.0175 -0.6339
15668TIP3    H168495   4.857   2.544  11.378 -0.3874 -0.5721  0.4134
15668TIP3    H268496   4.708   2.557  11.402 -0.7569  0.1606 -2.1799
15669TIP3   OH268497   5.280   0.792  15.493  0.5098 -0.4748 -0.2437
15669TIP3    H168498   5.327   0.874  15.507  1.4755 -0.7876 -1.5003
15669TIP3    H268499   5.213   0.814  15.428 -0.7336 -0.1696  1.1050
15670TIP3   OH268500   1.422   3.458   3.200 -0.4932  0.7802 -0.2944
15670TIP3    H168501   1.420   3.364   3.187  1.3162  0.7560 -0.5718
15670TIP3    H268502   1.348   3.477   3.257 -1.7877 -0.5991 -1.4703
15671TIP3   OH268503   3.631   6.224  13.439  0.5203 -0.0131 -0.5438
15671TIP3    H168504   3.579   6.185  13.509  1.3445 -1.1233 -0.5378
15671TIP3    H268505   3.577   6.214  13.361  0.9889 -1.7780 -0.6654
15672TIP3   OH268506   2.884   1.015   1.546  0.2117 -0.3131 -0.6660
15672TIP3    H168507   2.838   1.085   1.500  0.6666  0.6076  0.2542
15672TIP3    H268508   2.960   1.058   1.586  0.5843 -1.3570 -0.2240
15673TIP3   OH268509   6.530   3.530  14.559  0.5490  0.0105 -0.1880
15673TIP3    H168510   6.531   3.496  14.649  0.5734  1.3079  0.3132
15673TIP3    H268511   6.490   3.460  14.507 -1.3440  0.0633  1.1574
15674TIP3   OH268512   1.333   1.063  14.705 -0.4874  0.3007 -0.4115
15674TIP3    H168513   1.425   1.044  14.726 -0.9222  1.2599  2.6852
15674TIP3    H268514   1.289   0.978  14.710  0.0470  0.0023 -0.7815
15675TIP3   OH268515   0.362   1.437  14.946  0.0009  0.8815  0.1605
15675TIP3    H168516   0.394   1.527  14.950  2.3550  0.0962 -0.4035
15675TIP3    H268517   0.278   1.444  14.901  0.5476  2.7137 -0.6226
15676TIP3   OH268518   4.501   6.701   3.769  0.3116  0.1466 -0.4973
15676TIP3    H168519   4.509   6.781   3.821 -0.9190 -0.1070  0.0997
15676TIP3    H268520   4.590   6.668   3.762  0.9374  1.8882 -1.2650
15677TIP3   OH268521   1.026   0.337   2.178  0.0230  0.1933  0.3261
15677TIP3    H168522   1.028   0.289   2.260  1.2273 -0.5184 -0.1202
15677TIP3    H268523   1.105   0.390   2.178  0.3979 -0.3380 -0.6767
15678TIP3   OH268524   3.726   0.272  15.589  0.0932  0.5943  0.2158
15678TIP3    H168525   3.819   0.247  15.584 -0.4172 -1.3919  0.2309
15678TIP3    H268526   3.714   0.334  15.517  0.7311 -1.5130 -1.7740
15679TIP3   OH268527   2.783   4.468   3.382  0.7201 -0.5585 -0.1084
15679TIP3    H168528   2.854   4.420   3.339 -0.8406 -1.8792 -1.3005
15679TIP3    H268529   2.720   4.486   3.312  0.7672  2.3439  0.5260
15680TIP3   OH268530   1.834   5.856  14.585 -0.0050 -0.7583  0.8092
15680TIP3    H168531   1.799   5.936  14.546  2.4342 -0.1950 -0.3229
15680TIP3    H268532   1.846   5.796  14.512  1.0655 -1.0473  1.2062
15681TIP3   OH268533   5.025   1.167   0.865  0.1478 -0.1116 -0.7410
15681TIP3    H168534   4.974   1.095   0.903 -0.0618  0.2088 -0.4200
15681TIP3    H268535   5.070   1.127   0.790 -1.3795 -0.1540 -1.6621
15682TIP3   OH268536   0.368   4.486  12.045  0.2881  0.2705 -0.5716
15682TIP3    H168537   0.404   4.419  11.987 -0.0843  0.5500 -1.1300
15682TIP3    H268538   0.336   4.438  12.121 -0.9111 -0.3083 -1.4190
15683TIP3   OH268539   0.837   4.419  11.999  0.0152  0.2258 -0.2878
15683TIP3    H168540   0.836   4.477  12.075 -0.0321  1.2305 -1.0501
15683TIP3    H268541   0.756   4.440  11.952  0.2398 -0.1115 -0.8223
15684TIP3   OH268542   3.421   6.304  11.223 -0.3775 -0.0699 -0.0677
15684TIP3    H168543   3.471   6.230  11.190 -0.3797 -1.0990  2.1447
15684TIP3    H268544   3.330   6.273  11.224 -0.5211  0.3476 -0.2145
15685TIP3   OH268545   6.538   5.880   2.078 -0.5068 -0.4018 -0.0526
15685TIP3    H168546   6.548   5.809   2.015  2.5943 -2.3464  2.4716
15685TIP3    H268547   6.609   5.941   2.058 -1.4386  0.5998 -0.3997
15686TIP3   OH268548   2.828   5.427   2.817  0.3773 -0.3491 -0.0896
15686TIP3    H168549   2.746   5.425   2.768  1.2346 -0.4398 -1.5456
15686TIP3    H268550   2.894   5.452   2.752  1.3844  0.5109  1.2343
15687TIP3   OH268551   1.325   5.372  12.253  0.0300  0.1423  0.3781
15687TIP3    H168552   1.369   5.443  12.300 -1.3970  0.5262  1.1383
15687TIP3    H268553   1.246   5.411  12.218  0.4024 -0.4937 -1.2241
15688TIP3   OH268554   4.315   4.078  14.040 -0.3100 -0.3731 -0.3238
15688TIP3    H168555   4.378   4.150  14.048 -1.2280  0.3399  0.7669
15688TIP3    H268556   4.351   4.007  14.092  0.0856 -0.3184 -0.5287
15689TIP3   OH268557   6.503   6.151  14.914  0.7766 -0.4715 -0.2718
15689TIP3    H168558   6.505   6.245  14.931  1.3912 -0.3893 -0.7766
15689TIP3    H268559   6.444   6.116  14.981  0.3500  0.3018 -0.2318
15690TIP3   OH268560   0.829   6.684   0.329  0.2962  0.6724 -0.5763
15690TIP3    H168561   0.820   6.634   0.248 -2.6374  0.3209 -0.0908
15690TIP3    H268562   0.847   6.774   0.299  0.9568  0.2251 -1.5544
15691TIP3   OH268563   0.221   1.887  14.104  0.0613  0.2208  0.7003
15691TIP3    H168564   0.180   1.952  14.161  0.8827  1.2825  0.0827
15691TIP3    H268565   0.208   1.920  14.016 -1.5950 -1.6387  0.2027
15692TIP3   OH268566   3.062   1.572  15.209 -0.4853  0.2956 -0.0037
15692TIP3    H168567   3.106   1.520  15.276  1.4287  2.8941  0.8490
15692TIP3    H268568   3.031   1.649  15.256 -1.1044  1.0724 -1.6784
15693TIP3   OH268569   0.804   3.591   2.861 -0.1266  0.5110 -0.1117
15693TIP3    H168570   0.716   3.602   2.896 -1.0421 -2.0211 -1.5203
15693TIP3    H268571   0.804   3.641   2.780  0.4122  2.1830  0.8844
15694TIP3   OH268572   0.564   3.475   3.214  0.0623 -0.5871  0.2768
15694TIP3    H168573   0.594   3.392   3.176  0.2123 -0.5060  0.2153
15694TIP3    H268574   0.607   3.542   3.161  2.1405 -0.4741  2.0139
15695TIP3   OH268575   1.212   2.487  11.526  0.0515  0.3712  0.0366
15695TIP3    H168576   1.178   2.530  11.605  0.1927 -1.2050  0.9725
15695TIP3    H268577   1.177   2.398  11.530  0.4491  0.1285 -1.4516
15696TIP3   OH268578   6.217   3.224  14.927  0.1761 -0.1395 -0.1516
15696TIP3    H168579   6.170   3.159  14.979 -0.8814 -0.3996 -1.4260
15696TIP3    H268580   6.174   3.307  14.947  2.8246  0.5803  3.0781
15697TIP3   OH268581   6.329   6.719   2.137  0.1253  0.4663 -0.0355
15697TIP3    H168582   6.381   6.760   2.206  1.0925 -1.2117  0.2764
15697TIP3    H268583   6.263   6.669   2.185 -0.6022  1.0813 -0.3920
15698TIP3   OH268584   0.876   2.089  15.810  0.1580  0.0838  0.1092
15698TIP3    H168585   0.847   2.084  15.901 -0.6148 -1.1811 -0.1868
15698TIP3    H268586   0.800   2.126  15.763  0.5981  0.8525 -0.0024
15699TIP3   OH268587   6.364   0.679  11.282 -0.6363  0.0261 -0.7749
15699TIP3    H168588   6.321   0.728  11.212 -2.7444  0.0150  0.4689
15699TIP3    H268589   6.369   0.589  11.248  0.2720  0.4388 -1.7471
15700TIP3   OH268590   5.422   2.728   0.752 -0.1566  0.3047 -0.8866
15700TIP3    H168591   5.430   2.762   0.841  0.5715  0.5876 -1.0578
15700TIP3    H268592   5.469   2.645   0.753  0.8634  0.8624 -1.2982
15701TIP3   OH268593   3.200   2.463   2.120 -0.0866 -0.0191 -0.4459
15701TIP3    H168594   3.254   2.511   2.183  0.3709 -0.2909 -0.6235
15701TIP3    H268595   3.111   2.469   2.155  0.4105 -1.7137  1.2327
15702TIP3   OH268596   0.965   6.231  11.254  0.9955  0.0608  0.2672
15702TIP3    H168597   0.880   6.194  11.278  0.4774  0.1840 -1.3270
15702TIP3    H268598   0.974   6.212  11.161  2.1701  1.1335  0.1467
15703TIP3   OH268599   4.998   3.372   1.813  0.7175  0.0053  0.2670
15703TIP3    H168600   4.963   3.443   1.759  0.2085 -0.4488 -0.0001
15703TIP3    H268601   5.079   3.346   1.768 -0.1845 -1.0050 -0.8172
15704TIP3   OH268602   2.456   5.727   6.017 -0.3547 -0.4475  0.3707
15704TIP3    H168603   2.517   5.728   6.091 -0.8031 -0.6996  0.7413
15704TIP3    H268604   2.513   5.716   5.940  0.1836  0.5903  0.6009
15705TIP3   OH268605   5.296   3.248   2.035 -0.3563  0.4793 -0.0582
15705TIP3    H168606   5.266   3.338   2.047 -0.6009  0.4191 -0.2357
15705TIP3    H268607   5.388   3.257   2.012  0.3514  0.5954  2.5713
15706TIP3   OH268608   0.427   2.688  14.328 -0.6171 -0.2502 -0.0171
15706TIP3    H168609   0.471   2.744  14.392  0.1415 -2.2267  1.2252
15706TIP3    H268610   0.365   2.746  14.285 -0.1668  1.4499  1.5563
15707TIP3   OH268611   3.574   0.108   2.428 -0.2089  0.1884  0.2740
15707TIP3    H168612   3.544   0.192   2.392 -0.8148 -0.0301  0.2494
15707TIP3    H268613   3.583   0.052   2.351 -0.6732 -0.0296  0.3794
15708TIP3   OH268614   4.374   5.997  13.300 -0.0417  0.1779 -0.1696
15708TIP3    H168615   4.290   6.013  13.257  0.3661 -0.3230 -1.1627
15708TIP3    H268616   4.356   5.929  13.365 -0.8547  1.5776  1.1216
15709TIP3   OH268617   1.839   4.490   5.322 -0.0309 -0.5864  0.2266
15709TIP3    H168618   1.813   4.579   5.298 -1.0630 -1.0341 -0.3190
15709TIP3    H268619   1.758   4.448   5.350  0.1663 -1.8512 -1.0575
15710TIP3   OH268620   5.874   1.732  15.825  0.6481  0.9804 -0.1103
15710TIP3    H168621   5.967   1.744  15.808  0.6393  0.8535 -0.2413
15710TIP3    H268622   5.832   1.803  15.775  0.5929  0.3416 -0.9723
15711TIP3   OH268623   1.045   3.101  13.380 -0.2368 -0.2854 -0.2648
15711TIP3    H168624   0.960   3.113  13.338 -1.3596  1.0700  2.2556
15711TIP3    H268625   1.024   3.060  13.465  1.4307  1.5741  1.0905
15712TIP3   OH268626   1.304   0.358  14.003 -0.0193  0.2571 -0.1278
15712TIP3    H168627   1.250   0.428  14.039 -0.3044  0.2167 -0.4827
15712TIP3    H268628   1.375   0.404  13.957 -0.2467  0.3109 -0.4232
15713TIP3   OH268629   1.091   1.463   1.931 -0.4270 -0.6606 -0.7564
15713TIP3    H168630   1.142   1.393   1.890  1.7466 -0.4355  1.4385
15713TIP3    H268631   1.026   1.417   1.983 -0.4903 -1.0050 -1.1345
15714TIP3   OH268632   3.693   2.195   1.355 -0.3778 -0.0456  0.4730
15714TIP3    H168633   3.708   2.285   1.327  1.1388  1.0952  4.5409
15714TIP3    H268634   3.636   2.204   1.432 -0.3008 -2.5605  0.8501
15715TIP3   OH268635   0.960   5.840   6.007  0.0923  0.5415  0.1510
15715TIP3    H168636   0.939   5.780   5.936  0.0986 -1.4496  1.8161
15715TIP3    H268637   0.884   5.899   6.012 -1.0142 -0.8676  0.1334
15716TIP3   OH268638   5.726   1.408   4.146 -0.7355  0.5031 -0.4614
15716TIP3    H168639   5.656   1.461   4.184 -0.9008  0.0853 -0.1757
15716TIP3    H268640   5.757   1.354   4.219 -1.1152 -0.3663 -0.9396
15717TIP3   OH268641   1.894   4.948  13.479  0.1836  0.3214 -0.1205
15717TIP3    H168642   1.825   4.885  13.461  0.0984  0.4994 -0.4253
15717TIP3    H268643   1.975   4.896  13.479 -0.0830 -0.1048  1.5510
15718TIP3   OH268644   1.530   6.743   1.063 -0.9809  0.1254 -0.1411
15718TIP3    H168645   1.486   6.791   1.132 -2.2210 -1.9182  0.5483
15718TIP3    H268646   1.612   6.713   1.102 -0.6489  0.8542 -0.2741
15719TIP3   OH268647   6.245   1.004   4.362 -0.7279 -0.0389 -0.4098
15719TIP3    H168648   6.293   0.981   4.441 -0.7414 -0.1992 -0.4474
15719TIP3    H268649   6.207   1.090   4.381 -1.7111 -0.6031  0.2065
15720TIP3   OH268650   4.762   1.375   5.137 -0.1980  0.2069  0.0823
15720TIP3    H168651   4.794   1.307   5.077  2.7329  2.1843 -0.7344
15720TIP3    H268652   4.808   1.359   5.219 -1.4715 -0.3288  0.7026
15721TIP3   OH268653   5.604   4.292   6.229  0.5747 -0.8796 -0.8038
15721TIP3    H168654   5.569   4.365   6.279 -0.9900 -2.7866  0.9838
15721TIP3    H268655   5.692   4.279   6.264  1.4983  1.1743 -2.2905
15722TIP3   OH268656   2.550   4.856   0.731 -0.3568 -0.1748  0.5280
15722TIP3    H168657   2.588   4.931   0.775 -1.5899  1.0685 -0.4678
15722TIP3    H268658   2.520   4.890   0.646  1.5560 -2.3802 -1.1055
15723TIP3   OH268659   3.452   2.307   5.193  0.7014 -0.1543 -0.5923
15723TIP3    H168660   3.437   2.352   5.110 -0.2770 -0.1547 -0.4163
15723TIP3    H268661   3.372   2.321   5.243  0.8039 -1.1996 -0.1245
15724TIP3   OH268662   2.577   5.056  15.198 -0.7441 -0.0726 -0.2359
15724TIP3    H168663   2.515   5.121  15.230 -0.0076  0.7202 -0.3942
15724TIP3    H268664   2.633   5.036  15.273 -1.4943 -1.1441  0.0396
15725TIP3   OH268665   1.608   6.533  16.667  0.5394  0.0911 -0.1597
15725TIP3    H168666   1.693   6.505  16.700  1.3254  0.8189 -1.5121
15725TIP3    H268667   1.545   6.474  16.709  1.5256  0.7089  2.2500
15726TIP3   OH268668   1.535   0.773   2.487 -0.0554  0.1410  0.6399
15726TIP3    H168669   1.621   0.735   2.469 -0.9495 -2.7026  2.0211
15726TIP3    H268670   1.551   0.836   2.557  1.0421  0.2361  0.3103
15727TIP3   OH268671   6.005   1.940   1.394  0.6887  0.5852 -0.5202
15727TIP3    H168672   6.088   1.928   1.441  0.8833  1.5837 -0.6010
15727TIP3    H268673   5.982   1.852   1.364  1.7356  0.3063 -0.5210
15728TIP3   OH268674   2.911   2.622  14.172 -0.1876 -0.5485 -0.4697
15728TIP3    H168675   2.979   2.687  14.185 -0.1950 -0.7566  0.6939
15728TIP3    H268676   2.831   2.664  14.203 -0.1765 -1.1359  0.3798
15729TIP3   OH268677   4.221   5.377  11.848  0.0265  0.2885 -0.2462
15729TIP3    H168678   4.295   5.316  11.840 -0.6975 -0.5283 -0.8241
15729TIP3    H268679   4.196   5.395  11.757 -0.4008  0.6670 -0.0539
15730TIP3   OH268680   2.130   2.973  14.774  0.0686 -0.0182 -0.0150
15730TIP3    H168681   2.196   2.903  14.775  1.5819  1.3281  2.8208
15730TIP3    H268682   2.166   3.038  14.714  0.8289  0.2262  0.6871
15731TIP3   OH268683   4.819   2.828   5.143  0.1847  0.1996  0.0192
15731TIP3    H168684   4.869   2.812   5.063 -0.4134  2.7414 -0.8987
15731TIP3    H268685   4.837   2.919   5.166 -1.8401  0.3383  1.2296
15732TIP3   OH268686   2.521   3.975  14.989 -0.1383 -0.0496  0.6057
15732TIP3    H168687   2.584   3.952  14.921 -1.1581 -0.4094 -0.2300
15732TIP3    H268688   2.528   3.905  15.053 -0.5927 -0.7519 -0.1083
15733TIP3   OH268689   1.148   4.773   5.662 -0.2559  0.2121 -0.2372
15733TIP3    H168690   1.228   4.787   5.611 -0.2965  1.2395 -0.0313
15733TIP3    H268691   1.112   4.861   5.675  1.0392  0.2797  3.6290
15734TIP3   OH268692   5.269   5.547   2.070 -0.0889  0.0865  0.5682
15734TIP3    H168693   5.253   5.503   2.154 -1.5948 -0.0845  0.2017
15734TIP3    H268694   5.308   5.631   2.094 -1.1376  0.3304  1.4858
15735TIP3   OH268695   1.835   2.844  12.050  0.2831  0.0731  0.1160
15735TIP3    H168696   1.903   2.861  12.115  1.6126 -2.2575 -0.6074
15735TIP3    H268697   1.760   2.813  12.100  1.0385 -0.9526  0.6155
15736TIP3   OH268698   1.874   3.092   5.030  0.8411 -0.0501 -0.1105
15736TIP3    H168699   1.939   3.066   4.965  1.2829 -1.4343  0.8699
15736TIP3    H268700   1.916   3.163   5.079  0.3609  1.2580 -1.5581
15737TIP3   OH268701   2.211   0.749  16.684  0.0609  0.8004 -0.3696
15737TIP3    H168702   2.224   0.795  16.600 -0.8970  1.8292  0.0252
15737TIP3    H268703   2.122   0.774  16.710  0.7447  1.3342  1.4751
15738TIP3   OH268704   0.471   3.722   6.631 -0.1150  0.2178 -0.4573
15738TIP3    H168705   0.376   3.736   6.634 -0.4254 -0.8757 -3.5478
15738TIP3    H268706   0.482   3.628   6.619  1.4791  0.0390  1.9506
15739TIP3   OH268707   5.873   3.739   4.302  0.5349  0.0111 -0.4295
15739TIP3    H168708   5.891   3.657   4.348  0.0191 -0.3062 -0.7911
15739TIP3    H268709   5.923   3.732   4.221 -0.7060 -0.6060 -1.1557
15740TIP3   OH268710   5.640   0.866  11.344  0.0601 -0.4823 -0.2265
15740TIP3    H168711   5.709   0.809  11.378 -0.3645 -0.2393  1.0512
15740TIP3    H268712   5.575   0.806  11.307  0.3932 -0.7575 -0.3643
15741TIP3   OH268713   3.898   6.025   1.206  0.0800 -1.1237  0.1386
15741TIP3    H168714   3.911   6.115   1.177 -0.5285 -1.3851 -0.9741
15741TIP3    H268715   3.979   6.003   1.253  0.0945  0.1028  0.7182
15742TIP3   OH268716   6.125   1.451  12.516  0.6543  0.4811  0.2129
15742TIP3    H168717   6.211   1.493  12.509  0.0190  2.2146  2.5175
15742TIP3    H268718   6.143   1.365  12.554  1.2824  1.2334  1.6462
15743TIP3   OH268719   3.360   4.478  16.386  0.2901  0.4989  0.0976
15743TIP3    H168720   3.385   4.514  16.472  0.8791 -0.2921  0.2609
15743TIP3    H268721   3.270   4.508  16.374  0.4849  1.3286  0.6110
15744TIP3   OH268722   6.215   6.261  14.947 -0.0446  0.5315 -0.1099
15744TIP3    H168723   6.227   6.253  14.852 -0.4431 -0.8628 -0.0574
15744TIP3    H268724   6.240   6.175  14.981  1.4166  1.4467  1.1935
15745TIP3   OH268725   3.540   0.070  17.283 -0.3045 -0.3082 -0.1654
15745TIP3    H168726   3.497   0.152  17.304 -2.1836 -1.2227 -0.2987
15745TIP3    H268727   3.593   0.089  17.205 -0.4979  0.8316 -0.0141
15746TIP3   OH268728   3.703   6.223   1.871  0.3858 -0.5137  0.3858
15746TIP3    H168729   3.722   6.223   1.777 -1.2742 -0.1829  0.0329
15746TIP3    H268730   3.768   6.283   1.908  0.6883 -0.1998 -0.6251
15747TIP3   OH268731   5.204   0.144  14.691  0.2584 -0.0455 -0.5657
15747TIP3    H168732   5.202   0.080  14.620  0.3477  0.7211 -1.2649
15747TIP3    H268733   5.117   0.138  14.731  0.2869 -0.6471 -0.5992
15748TIP3   OH268734   5.101   1.956  13.005  0.3080  0.8772 -0.0406
15748TIP3    H168735   5.191   1.932  13.026 -1.0064 -2.3938  2.3923
15748TIP3    H268736   5.083   1.909  12.923 -0.9800 -3.6775  2.6434
15749TIP3   OH268737   2.476   2.754   4.929 -0.1249 -0.2031 -0.3596
15749TIP3    H168738   2.430   2.707   4.859 -0.5857 -0.6186  0.2182
15749TIP3    H268739   2.523   2.824   4.884 -1.2751  0.1993 -0.9808
15750TIP3   OH268740   4.935   2.448   5.966  0.2219  1.0319 -0.5110
15750TIP3    H168741   4.883   2.508   5.913  0.2889  3.8920  2.5271
15750TIP3    H268742   4.876   2.416   6.033  0.4756 -1.5554 -1.4654
15751TIP3   OH268743   6.403   2.555  16.105 -0.6422  0.7386  0.0769
15751TIP3    H168744   6.360   2.470  16.091  0.9138  0.0903 -0.9887
15751TIP3    H268745   6.480   2.552  16.048  0.5984  2.0291  1.6365
15752TIP3   OH268746   3.229   4.343  14.208 -0.2493 -0.4148  0.3104
15752TIP3    H168747   3.193   4.288  14.139 -0.6740  1.0053 -0.6319
15752TIP3    H268748   3.157   4.403  14.231  0.9347  1.3059 -0.3697
15753TIP3   OH268749   6.056   4.523  16.006 -0.3408 -0.7493 -0.4017
15753TIP3    H168750   6.005   4.488  15.933 -1.6412 -0.8078  0.5150
15753TIP3    H268751   5.997   4.516  16.081  1.9032 -3.1190  1.1754
15754TIP3   OH268752   2.788   6.332  15.900 -0.0634 -0.1522  0.1952
15754TIP3    H168753   2.715   6.283  15.937 -0.3696  0.8483  0.9283
15754TIP3    H268754   2.797   6.409  15.957 -0.3169  1.2293 -1.5860
15755TIP3   OH268755   2.081   2.229  12.774 -0.2372  0.2875 -0.0528
15755TIP3    H168756   2.112   2.221  12.684 -1.2068 -1.0538 -0.2681
15755TIP3    H268757   2.155   2.269  12.821  1.3834 -1.7565 -0.8008
15756TIP3   OH268758   3.581   1.652  15.573  0.4987 -0.1075 -0.0092
15756TIP3    H168759   3.544   1.691  15.652  3.5980 -0.0731  1.5091
15756TIP3    H268760   3.514   1.665  15.506 -2.3844 -0.4691  2.6749
15757TIP3   OH268761   2.139   3.053   3.127  0.2108 -0.4878 -0.3704
15757TIP3    H168762   2.150   3.092   3.040 -0.8219 -1.1978 -0.8256
15757TIP3    H268763   2.228   3.025   3.151  0.7074  0.7493 -0.6879
15758TIP3   OH268764   4.717   1.015   0.709 -0.2121  0.2752 -0.1217
15758TIP3    H168765   4.635   0.966   0.702  0.1357 -0.3647  0.1760
15758TIP3    H268766   4.746   1.001   0.799 -0.1212  1.0581 -0.0262
15759TIP3   OH268767   4.412   1.835   3.511 -0.2971  0.2409 -0.6080
15759TIP3    H168768   4.382   1.852   3.421  1.3823 -0.9874 -1.4191
15759TIP3    H268769   4.507   1.823   3.503 -0.1509 -0.0308  1.3171
15760TIP3   OH268770   2.469   1.502  15.240  0.4290 -0.4364  0.2129
15760TIP3    H168771   2.480   1.592  15.209 -2.3414  0.6541  2.2670
15760TIP3    H268772   2.385   1.474  15.204 -0.1494 -1.1246  2.0830
15761TIP3   OH268773   0.803   5.884   5.746 -0.0899  0.4706  0.1979
15761TIP3    H168774   0.798   5.797   5.706 -0.0192  0.0312  1.1368
15761TIP3    H268775   0.732   5.933   5.704  1.1135  0.5709 -1.7686
15762TIP3   OH268776   0.760   5.636  16.395  0.2881 -0.2213 -0.3835
15762TIP3    H168777   0.741   5.616  16.303 -2.6657  0.3348  0.0403
15762TIP3    H268778   0.825   5.705  16.392  1.1321 -1.0511 -2.0294
15763TIP3   OH268779   0.936   3.409   5.147  0.8778  0.2836  0.4919
15763TIP3    H168780   0.852   3.430   5.105 -0.1834 -0.7451  2.0719
15763TIP3    H268781   0.971   3.337   5.094 -0.4455 -0.9967  1.3070
15764TIP3   OH268782   6.407   0.667  15.947 -0.5872  0.4794 -0.4059
15764TIP3    H168783   6.347   0.621  16.006 -0.2055 -0.1911 -0.5299
15764TIP3    H268784   6.388   0.760  15.960 -2.1126  0.2608 -0.9154
15765TIP3   OH268785   5.581   3.089  13.395 -0.1660 -0.5844 -0.1585
15765TIP3    H168786   5.611   3.171  13.434  2.4141 -1.1321 -0.8637
15765TIP3    H268787   5.534   3.116  13.316  0.5729  0.2184 -0.3318
15766TIP3   OH268788   3.246   3.896  15.638 -0.6931 -0.4102  0.0286
15766TIP3    H168789   3.170   3.948  15.664 -2.5517 -2.6634 -0.7396
15766TIP3    H268790   3.267   3.928  15.550 -1.2141 -0.2819 -0.0526
15767TIP3   OH268791   4.855   4.858   3.366  0.2457 -0.1369  0.0862
15767TIP3    H168792   4.811   4.876   3.450 -0.5758 -1.9927  0.0825
15767TIP3    H268793   4.786   4.822   3.310  1.6372 -2.6665 -0.0692
15768TIP3   OH268794   5.237   1.345   2.267  0.1803  0.1849 -0.4263
15768TIP3    H168795   5.295   1.270   2.280  1.1332  1.1137  0.8425
15768TIP3    H268796   5.294   1.421   2.278 -1.2240  1.1222  0.5677
15769TIP3   OH268797   2.166   4.878  13.483 -0.0986  0.2292  0.5118
15769TIP3    H168798   2.259   4.893  13.469  0.4379 -1.2004  2.3644
15769TIP3    H268799   2.132   4.963  13.512  0.8075  0.5248  0.7179
15770TIP3   OH268800   6.432   0.518   0.795  0.0198  0.5399  0.1358
15770TIP3    H168801   6.351   0.564   0.817  0.2026  1.7434 -1.6320
15770TIP3    H268802   6.406   0.455   0.728  0.4869  0.7287 -0.2245
15771TIP3   OH268803   6.117   1.672   0.318  0.8087  0.9819  0.0524
15771TIP3    H168804   6.115   1.717   0.233  0.9025 -0.1220 -0.5404
15771TIP3    H268805   6.178   1.725   0.371  1.5580  1.0961 -0.9024
15772TIP3   OH268806   5.160   3.909  10.978 -0.2375 -0.6189 -0.1493
15772TIP3    H168807   5.146   3.925  10.885 -1.2548 -0.2479  0.0586
15772TIP3    H268808   5.109   3.831  10.997 -0.5772 -0.2998  0.2437
15773TIP3   OH268809   3.409   4.774  15.136 -0.1080 -0.0613 -0.3333
15773TIP3    H168810   3.356   4.778  15.215 -0.5128 -0.8057 -0.5703
15773TIP3    H268811   3.498   4.794  15.166 -0.6333  2.0762 -0.0672
15774TIP3   OH268812   4.139   5.629  13.353  0.8331 -0.3992  0.2454
15774TIP3    H168813   4.117   5.564  13.420  1.1317  0.9552  1.6772
15774TIP3    H268814   4.214   5.592  13.308  1.7305 -0.5394  1.8113
15775TIP3   OH268815   3.946   6.752  16.288 -0.6888 -0.3902 -0.3034
15775TIP3    H168816   3.852   6.738  16.290 -0.2706 -3.3418  1.0911
15775TIP3    H268817   3.984   6.665  16.298  2.2018  0.7055 -1.1124
15776TIP3   OH268818   2.088   4.956  15.318  0.1225  0.4278  0.0346
15776TIP3    H168819   2.071   4.992  15.232  0.5892  0.6922  0.0532
15776TIP3    H268820   2.179   4.925  15.314 -0.4506 -1.3114 -0.1855
15777TIP3   OH268821   1.197   3.493  14.882  0.3804 -0.6735  0.1078
15777TIP3    H168822   1.118   3.446  14.911  0.4845 -1.6601 -1.1785
15777TIP3    H268823   1.269   3.436  14.909  0.7035  0.4241  1.6582
15778TIP3   OH268824   6.002   3.187  17.031 -0.3880 -0.1622 -0.2175
15778TIP3    H168825   6.074   3.217  17.087  0.4351 -0.1720 -1.2537
15778TIP3    H268826   5.981   3.263  16.977 -2.2216  0.3340  1.1393
15779TIP3   OH268827   4.266   0.474  12.096 -0.4776  0.2360 -0.0481
15779TIP3    H168828   4.199   0.499  12.033  1.1303  0.9075 -1.5101
15779TIP3    H268829   4.348   0.472  12.046  0.6186 -0.5186  1.7093
15780TIP3   OH268830   1.270   4.920   1.416  0.1800  0.1158 -0.0339
15780TIP3    H168831   1.252   4.930   1.509 -0.5195  2.0653 -0.3495
15780TIP3    H268832   1.278   5.010   1.383  2.1389 -0.5606 -1.5328
15781TIP3   OH268833   5.502   6.660  16.464  0.3453 -0.1296 -0.3140
15781TIP3    H168834   5.579   6.691  16.416  0.2327  1.2586  0.3978
15781TIP3    H268835   5.427   6.698  16.417 -0.0230 -2.4945 -1.7783
15782TIP3   OH268836   4.014   0.068  13.641  0.0387 -0.0804 -0.4718
15782TIP3    H168837   3.946   0.118  13.685  0.0313 -1.3019  0.9347
15782TIP3    H268838   3.992  -0.023  13.658  2.3894 -0.4932  0.6091
15783TIP3   OH268839   3.398   3.254   0.783  0.0667 -0.7388  0.0663
15783TIP3    H168840   3.441   3.334   0.813  0.3045 -0.8349 -0.0219
15783TIP3    H268841   3.353   3.279   0.702 -0.3753 -0.5399  0.3665
15784TIP3   OH268842   2.631   4.235  14.724 -0.5440  0.6190  0.3404
15784TIP3    H168843   2.721   4.246  14.755  0.0963  1.0093 -1.6002
15784TIP3    H268844   2.636   4.160  14.664 -1.4281  0.8888 -0.0709
15785TIP3   OH268845   1.019   6.289  16.673 -0.4957 -0.4118  0.3489
15785TIP3    H168846   0.962   6.333  16.735  0.1791  0.5885  0.2684
15785TIP3    H268847   0.962   6.268  16.599 -0.5731  1.4056 -0.1319
15786TIP3   OH268848   3.449   1.782  15.768 -0.5112 -0.6028 -0.5236
15786TIP3    H168849   3.368   1.811  15.726  0.6667  0.2917 -2.2479
15786TIP3    H268850   3.496   1.863  15.789 -1.0366 -1.0270  2.5255
15787TIP3   OH268851   5.360   5.954   2.904 -0.1884  0.2753  0.2389
15787TIP3    H168852   5.440   5.997   2.875 -1.5804  1.6214 -1.7304
15787TIP3    H268853   5.379   5.926   2.993  2.9923 -0.7950 -0.7189
15788TIP3   OH268854   6.733   0.387   0.692  0.1116  0.2224 -0.3145
15788TIP3    H168855   6.685   0.450   0.746  2.0600  0.8668  0.7202
15788TIP3    H268856   6.733   0.425   0.604 -1.4738  0.0740 -0.3949
15789TIP3   OH268857   4.062   0.633  15.238  0.1388  0.4526 -0.1916
15789TIP3    H168858   4.130   0.594  15.293 -0.7985 -0.4940  0.3269
15789TIP3    H268859   3.997   0.666  15.300 -0.3487  0.4567 -0.7005
15790TIP3   OH268860   5.091   3.124  13.470  0.1220  0.0064 -0.0165
15790TIP3    H168861   5.064   3.195  13.412 -1.4215 -1.4724 -1.1650
15790TIP3    H268862   5.015   3.107  13.526  1.1803  0.6000  1.6236
15791TIP3   OH268863   5.781   5.800   5.745 -0.1808  0.1458 -0.0963
15791TIP3    H168864   5.818   5.747   5.816 -1.7276  1.6737  1.9138
15791TIP3    H268865   5.701   5.753   5.721 -0.7252  0.7000  0.6025
15792TIP3   OH268866   2.316   3.633  14.154 -0.5310 -0.1722 -0.2244
15792TIP3    H168867   2.290   3.627  14.246  0.9930 -1.6852  0.1239
15792TIP3    H268868   2.295   3.548  14.117 -0.6474  0.2592 -1.1669
15793TIP3   OH268869   2.116   3.415  12.195 -0.3913 -0.0693 -0.0603
15793TIP3    H168870   2.160   3.338  12.158  0.1321 -0.3104  1.0450
15793TIP3    H268871   2.186   3.466  12.234 -1.0325 -0.2070  1.2780
15794TIP3   OH268872   1.767   2.616   3.358 -0.1735  0.0102 -0.0133
15794TIP3    H168873   1.809   2.701   3.370 -0.8071  0.1805  1.0236
15794TIP3    H268874   1.746   2.587   3.446 -1.3258 -0.5401 -0.4672
15795TIP3   OH268875   4.199   6.011  11.537 -0.3240  0.1566  0.2313
15795TIP3    H168876   4.276   6.057  11.571 -0.3225 -1.0871  1.9411
15795TIP3    H268877   4.234   5.952  11.470  0.1458 -0.0348  0.6446
15796TIP3   OH268878   4.198   4.747  13.475 -0.0411  0.0747 -0.0213
15796TIP3    H168879   4.159   4.754  13.388 -1.1183 -1.2491  0.3287
15796TIP3    H268880   4.282   4.704  13.461 -0.2779 -0.2668 -0.3841
15797TIP3   OH268881   1.712   4.549  15.943 -0.0099  0.2155 -0.1555
15797TIP3    H168882   1.693   4.494  16.018  1.5630  0.3357  0.3360
15797TIP3    H268883   1.724   4.488  15.870 -0.4114  0.0355 -0.0692
15798TIP3   OH268884   2.236   6.363   3.390  0.6660  0.2678 -0.6928
15798TIP3    H168885   2.275   6.299   3.450 -1.6680  0.1163  0.7432
15798TIP3    H268886   2.179   6.311   3.333 -0.8296  0.9893  0.1253
15799TIP3   OH268887   5.513   6.302   4.215 -0.1148  0.0774 -0.5189
15799TIP3    H168888   5.489   6.210   4.205  0.8659  0.1001 -3.7036
15799TIP3    H268889   5.605   6.306   4.189 -0.7691  2.3026 -2.7219
15800TIP3   OH268890   2.144   1.782   5.107 -0.3230 -0.3646  0.3374
15800TIP3    H168891   2.113   1.698   5.074 -0.8558 -1.0511  2.5000
15800TIP3    H268892   2.239   1.775   5.106 -0.3522 -0.7190 -0.1498
15801TIP3   OH268893   4.454   2.606   4.829 -0.0818 -0.4173 -0.3985
15801TIP3    H168894   4.516   2.536   4.808 -1.1988 -1.2283 -1.0787
15801TIP3    H268895   4.407   2.573   4.905 -1.3647 -0.9135 -1.3843
15802TIP3   OH268896   5.629   0.521   2.334 -0.7086 -0.0324  0.2433
15802TIP3    H168897   5.706   0.543   2.387  0.2101  0.1382 -1.1114
15802TIP3    H268898   5.665   0.473   2.259 -2.1515 -1.7127  0.6061
15803TIP3   OH268899   2.826   5.088  14.236 -0.5406  0.2800  0.0615
15803TIP3    H168900   2.844   5.063  14.327  0.3824  0.2836 -0.1262
15803TIP3    H268901   2.861   5.177  14.228  0.2800 -0.0993 -0.5818
15804TIP3   OH268902   0.701   0.482   4.306 -0.0392 -0.3760  0.2630
15804TIP3    H168903   0.761   0.557   4.311  0.5169 -0.6941 -1.4160
15804TIP3    H268904   0.621   0.514   4.348  0.2574  1.0952 -0.2414
15805TIP3   OH268905   6.612   0.044   3.809  0.1975 -0.1445 -0.4284
15805TIP3    H168906   6.578   0.133   3.802 -0.2536 -0.1479  1.4803
15805TIP3    H268907   6.546  -0.010   3.765  1.0069  0.5565 -2.5597
15806TIP3   OH268908   4.913   5.548   5.467  0.5645 -0.0299 -0.0980
15806TIP3    H168909   4.907   5.453   5.478  1.0410  0.1944  2.4537
15806TIP3    H268910   5.002   5.563   5.435  0.4050 -0.4484 -0.7516
15807TIP3   OH268911   4.414   6.215   5.561  0.8393 -0.0361 -0.3146
15807TIP3    H168912   4.332   6.166   5.553  0.3580  0.9949 -1.8192
15807TIP3    H268913   4.444   6.195   5.650 -1.2443 -0.1262  0.4163
15808TIP3   OH268914   1.630   1.482   2.244 -0.4643 -0.3914  0.1344
15808TIP3    H168915   1.659   1.391   2.239  0.8994 -0.2113  3.4186
15808TIP3    H268916   1.555   1.480   2.304 -0.0833  0.7053  0.6600
15809TIP3   OH268917   2.095   4.138  14.245  0.2092 -0.0660 -0.1420
15809TIP3    H168918   2.097   4.044  14.258 -0.6032 -0.2424 -1.1917
15809TIP3    H268919   2.132   4.151  14.157  1.6751  0.7168  0.5732
15810TIP3   OH268920   6.560   3.714   4.251  0.3838  0.0497 -0.6749
15810TIP3    H168921   6.579   3.621   4.260  0.6651  0.2866  1.4359
15810TIP3    H268922   6.486   3.729   4.309  1.3417  1.4429  0.2113
15811TIP3   OH268923   4.960   3.745   2.407  0.7034  0.6611 -0.5360
15811TIP3    H168924   4.976   3.652   2.418  1.5580  0.6988 -1.3490
15811TIP3    H268925   4.931   3.775   2.493 -2.6803 -0.9430 -1.0109
15812TIP3   OH268926   0.065   2.911   3.826 -0.3254 -0.4841  0.3477
15812TIP3    H168927   0.016   2.910   3.743  0.6766  0.4800 -0.2814
15812TIP3    H268928   0.019   2.976   3.879  0.1485  0.2875 -0.1717
15813TIP3   OH268929   2.097   6.648  11.761 -0.5738 -0.3496 -0.5187
15813TIP3    H168930   2.117   6.557  11.737 -3.5944 -0.7734 -1.5620
15813TIP3    H268931   2.131   6.700  11.688 -0.3729 -0.7621 -0.7197
15814TIP3   OH268932   1.186   2.337   3.331  0.3418  0.1909 -0.1599
15814TIP3    H168933   1.139   2.283   3.266  0.2644  0.9327 -0.7243
15814TIP3    H268934   1.127   2.410   3.348  1.3406  1.2072 -0.9811
15815TIP3   OH268935   5.451   5.495   5.432  0.3141  0.3075 -0.1463
15815TIP3    H168936   5.482   5.565   5.489 -1.1712  1.4140 -0.6587
15815TIP3    H268937   5.381   5.535   5.381  0.2032 -1.2477 -1.2562
15816TIP3   OH268938   4.484   1.474   4.678 -0.0238  0.6655  0.2709
15816TIP3    H168939   4.500   1.478   4.772 -0.0911 -1.7257  0.4174
15816TIP3    H268940   4.414   1.538   4.663  0.6456  1.7499  1.6797
15817TIP3   OH268941   1.013   6.032  17.023 -0.3784  0.3744 -0.3059
15817TIP3    H168942   0.943   5.998  16.968 -0.9814 -0.8509  1.1834
15817TIP3    H268943   1.085   5.969  17.010 -0.9537 -0.6272  1.2439
15818TIP3   OH268944   4.864   0.413   0.486  0.2945 -0.6925  0.0540
15818TIP3    H168945   4.847   0.450   0.573  1.4711  1.9499 -0.7802
15818TIP3    H268946   4.784   0.364   0.465 -1.3821  1.4337  1.2192
15819TIP3   OH268947   6.248   5.277   4.150  0.3423 -0.0311  0.7215
15819TIP3    H168948   6.190   5.256   4.077 -0.1807 -0.5411  1.2752
15819TIP3    H268949   6.224   5.214   4.218  1.5972 -0.2815  0.9348
15820TIP3   OH268950   6.632   1.224   2.181 -0.1735  0.3374  0.3460
15820TIP3    H168951   6.675   1.139   2.174 -1.7693 -0.3422 -1.7100
15820TIP3    H268952   6.571   1.226   2.108 -3.4366  1.3762  2.9679
15821TIP3   OH268953   1.555   2.820  11.524  0.0832  0.0586  0.1531
15821TIP3    H168954   1.596   2.906  11.531  0.6067 -0.1372 -0.4767
15821TIP3    H268955   1.624   2.758  11.551 -0.2840 -0.1658  0.5869
15822TIP3   OH268956   6.731   1.314   1.422  0.0651 -0.3495 -0.1561
15822TIP3    H168957   6.794   1.378   1.454 -0.9760 -0.4289  2.2479
15822TIP3    H268958   6.775   1.269   1.351  2.5943 -0.1576  1.2329
15823TIP3   OH268959   2.973   3.532  12.142  0.2045  0.2742 -0.7225
15823TIP3    H168960   3.055   3.578  12.158  0.5839 -0.3774 -0.7794
15823TIP3    H268961   2.906   3.600  12.148  0.6114  0.5526  0.7435
15824TIP3   OH268962   2.464   4.804   5.249 -0.3626 -0.1949  0.4882
15824TIP3    H168963   2.554   4.772   5.244 -0.8769 -1.5196 -0.5607
15824TIP3    H268964   2.464   4.883   5.195  0.2469 -0.0063  0.7627
15825TIP3   OH268965   6.080   5.395   3.639  0.7307 -0.4579  0.3107
15825TIP3    H168966   6.053   5.317   3.688  2.0932 -0.5750  0.9024
15825TIP3    H268967   6.175   5.386   3.632  0.7249  0.3905 -0.9404
15826TIP3   OH268968   6.477   4.407  11.794  0.0143  0.5953  0.1706
15826TIP3    H168969   6.434   4.407  11.879 -0.7246  2.4094 -0.1770
15826TIP3    H268970   6.490   4.500  11.773  1.0353  0.1554 -1.2661
15827TIP3   OH268971   6.239   5.744   3.221 -0.1912  0.0467 -0.0971
15827TIP3    H168972   6.176   5.752   3.149 -0.4659  0.8379  0.2246
15827TIP3    H268973   6.301   5.815   3.207 -0.4578  0.4329  0.6574
15828TIP3   OH268974   6.054   6.732  12.691 -0.1431 -0.2241 -0.0716
15828TIP3    H168975   6.025   6.823  12.690 -0.6167 -0.3701 -1.1494
15828TIP3    H268976   6.115   6.726  12.764  0.2117  1.0586 -0.2630
15829TIP3   OH268977   6.509   0.230  16.714 -0.0579 -0.1387  0.3715
15829TIP3    H168978   6.552   0.168  16.655 -1.3631 -0.1065 -0.6365
15829TIP3    H268979   6.463   0.174  16.777 -0.7836 -0.2033 -0.2072
15830TIP3   OH268980   5.515   5.790   1.541  0.6277 -0.6443  0.2193
15830TIP3    H168981   5.587   5.727   1.552  0.3893 -0.9823 -0.1678
15830TIP3    H268982   5.543   5.866   1.592  1.5487 -0.5372 -0.4220
15831TIP3   OH268983   1.353   4.543  14.253  0.4054  0.0015  0.9936
15831TIP3    H168984   1.273   4.528  14.302  0.2979 -1.1237  0.4827
15831TIP3    H268985   1.342   4.631  14.216 -0.6831 -0.2361  0.7395
15832TIP3   OH268986   5.613   3.720   1.919 -0.2164  0.3686 -0.0158
15832TIP3    H168987   5.669   3.716   1.997  0.5948 -1.7362 -0.6639
15832TIP3    H268988   5.654   3.785   1.862  0.0662  0.7606  0.6315
15833TIP3   OH268989   4.329   4.647  16.471 -0.1960  0.0143 -0.2722
15833TIP3    H168990   4.357   4.667  16.560  0.9957  0.7978 -0.8211
15833TIP3    H268991   4.261   4.580  16.482  0.7656 -0.7459  1.1487
15834TIP3   OH268992   4.812   4.926  14.495  0.0074  0.0143  0.1440
15834TIP3    H168993   4.874   4.875  14.547  0.2609  0.0435 -0.1311
15834TIP3    H268994   4.726   4.908  14.535 -0.2387 -2.5187 -1.4550
15835TIP3   OH268995   4.324   0.397  13.457  0.2466  0.3257  0.1164
15835TIP3    H168996   4.340   0.355  13.372 -1.2624 -0.2311  0.0941
15835TIP3    H268997   4.343   0.490  13.442 -1.6354  0.5192 -1.3096
15836TIP3   OH268998   0.510   5.299  17.054  0.4313  0.2213 -0.3827
15836TIP3    H168999   0.519   5.320  17.147 -2.2786  0.8365 -0.2098
15836TIP3    H269000   0.526   5.205  17.048  0.3929  0.1417  0.7521
15837TIP3   OH269001   6.034   2.594   4.955 -0.3336 -0.0973 -0.0464
15837TIP3    H169002   5.956   2.556   4.914 -0.2752 -0.3945  0.1169
15837TIP3    H269003   6.107   2.544   4.918 -0.3128 -0.6410  0.7321
15838TIP3   OH269004   3.648   3.166  11.539  0.5469 -0.1250  0.3579
15838TIP3    H169005   3.737   3.168  11.573  0.3295 -0.6354  0.9719
15838TIP3    H269006   3.609   3.248  11.568  0.8979  0.2215 -0.1404
15839TIP3   OH269007   0.066   3.360   5.698  0.4252  0.1099  0.2670
15839TIP3    H169008  -0.024   3.392   5.705  0.2983 -0.3137  0.6170
15839TIP3    H269009   0.064   3.273   5.739  1.0037  0.1223  0.3313
15840TIP3   OH269010   5.320   0.425  17.089  0.1931 -0.0507 -0.4377
15840TIP3    H169011   5.247   0.472  17.128 -0.3028 -0.9676 -0.2543
15840TIP3    H269012   5.351   0.483  17.018 -2.0541 -0.5812 -1.8868
15841TIP3   OH269013   6.459   0.608  12.624  0.5068 -0.0596 -0.0902
15841TIP3    H169014   6.515   0.644  12.555 -3.1220  0.2004 -3.0620
15841TIP3    H269015   6.400   0.680  12.647 -0.3977 -1.1431  1.0405
15842TIP3   OH269016   5.754   3.714   1.006 -0.2806 -0.2536 -0.3807
15842TIP3    H169017   5.746   3.805   0.978 -2.2936  0.0529  1.0623
15842TIP3    H269018   5.720   3.714   1.095 -0.2318 -2.4160 -0.3452
15843TIP3   OH269019   2.177   4.131   1.555 -0.1226  0.3678  0.2411
15843TIP3    H169020   2.202   4.220   1.580 -0.2512 -0.1754  2.3874
15843TIP3    H269021   2.084   4.137   1.534  0.3269  1.1296 -1.6588
15844TIP3   OH269022   1.168   3.968  16.137  0.2969 -0.2245  0.3156
15844TIP3    H169023   1.100   3.992  16.200  1.0314  0.6245  0.8220
15844TIP3    H269024   1.245   3.949  16.191  0.7234 -0.2390 -0.2826
15845TIP3   OH269025   4.560   1.657   2.020  0.0453  0.0639  0.1002
15845TIP3    H169026   4.587   1.745   1.993  0.0726 -0.2159 -0.7890
15845TIP3    H269027   4.570   1.603   1.941 -0.7134 -0.5713  0.4269
15846TIP3   OH269028   2.113   3.789   2.008 -0.5363 -0.3307 -0.4552
15846TIP3    H169029   2.141   3.827   2.092  0.3825 -0.7325 -0.5801
15846TIP3    H269030   2.133   3.856   1.944  0.0120 -0.5596 -0.5256
15847TIP3   OH269031   4.901   5.770  15.733  0.0616  0.0860  0.0179
15847TIP3    H169032   4.991   5.740  15.743  0.6007  1.6385 -0.1653
15847TIP3    H269033   4.848   5.691  15.748  1.4839 -1.1616 -1.3327
15848TIP3   OH269034   4.644   4.441   4.980  0.3294 -0.1587 -0.0234
15848TIP3    H169035   4.724   4.491   4.996  0.2031 -0.1819  0.6813
15848TIP3    H269036   4.600   4.438   5.064 -1.3247  1.3971 -0.8106
15849TIP3   OH269037   0.228   1.620   3.677 -0.2896 -0.3546 -0.7085
15849TIP3    H169038   0.286   1.560   3.631  1.2708  0.1168  0.5679
15849TIP3    H269039   0.199   1.683   3.611 -0.3789 -1.3715 -1.6307
15850TIP3   OH269040   4.886   2.822  11.507 -0.5237 -0.2147  0.5122
15850TIP3    H169041   4.860   2.765  11.435  0.0811  2.1085 -1.6196
15850TIP3    H269042   4.812   2.881  11.519 -0.2157  0.0502  1.1299
15851TIP3   OH269043   1.288   1.747   4.425  0.7920 -0.0688  0.0518
15851TIP3    H169044   1.201   1.767   4.458  0.6424  0.6023 -0.7431
15851TIP3    H269045   1.345   1.813   4.465  0.7621  0.1600 -0.2818
15852TIP3   OH269046   0.520   6.194   3.396 -0.1394  0.4410  0.3117
15852TIP3    H169047   0.555   6.204   3.485  0.6355  1.9101 -0.1426
15852TIP3    H269048   0.457   6.267   3.387  0.7941  1.1221 -0.8079
15853TIP3   OH269049   1.586   6.221   1.499 -0.4525  0.4701 -0.2102
15853TIP3    H169050   1.610   6.189   1.412  2.0717  0.7922  0.3105
15853TIP3    H269051   1.560   6.143   1.547  0.5480 -0.0639 -0.5232
15854TIP3   OH269052   1.754   2.252  12.474 -0.1165  0.4866 -0.2216
15854TIP3    H169053   1.740   2.187  12.543 -1.5205  0.4735 -0.4859
15854TIP3    H269054   1.701   2.328  12.502 -2.1371 -0.1724 -2.1178
15855TIP3   OH269055   3.993   3.311  14.855 -0.4875  0.1300 -0.3463
15855TIP3    H169056   4.039   3.229  14.835 -1.4066 -0.0623 -1.7016
15855TIP3    H269057   3.963   3.300  14.945 -0.6418 -1.0299 -0.5328
15856TIP3   OH269058   3.188   4.480   3.899 -0.1982 -0.1133 -0.1146
15856TIP3    H169059   3.187   4.410   3.833 -0.6091 -0.5799  0.3775
15856TIP3    H269060   3.177   4.434   3.982  1.2719  0.3850  0.3662
15857TIP3   OH269061   4.604   1.938  15.491  0.7161  0.3184  0.2950
15857TIP3    H169062   4.539   1.869  15.482  0.6679  0.5324 -1.0837
15857TIP3    H269063   4.585   1.978  15.576 -0.7549  0.1705  0.0508
15858TIP3   OH269064   0.919   0.490   5.522 -0.4236 -0.1699 -0.3832
15858TIP3    H169065   0.982   0.428   5.559 -1.0532  0.9341  2.6767
15858TIP3    H269066   0.841   0.438   5.506 -0.4824 -0.4711  0.8416
15859TIP3   OH269067   6.091   6.463   3.906  0.3055  0.1292  0.3179
15859TIP3    H169068   6.026   6.506   3.850 -0.7326  1.1509  2.2751
15859TIP3    H269069   6.051   6.378   3.927  0.2073  0.1961  0.4024
15860TIP3   OH269070   4.107   1.535   6.195  0.1734 -0.1058  0.2826
15860TIP3    H169071   4.201   1.539   6.176  0.3127 -0.7280  0.8328
15860TIP3    H269072   4.090   1.616   6.243  0.8279 -0.9124  1.9001
15861TIP3   OH269073   1.852   4.959   1.992  0.2333  0.2196  0.6000
15861TIP3    H169074   1.851   4.864   1.981 -0.3044  0.2286  0.5505
15861TIP3    H269075   1.760   4.984   1.994  0.3846  0.8963 -0.6502
15862TIP3   OH269076   0.277   2.501  14.491 -0.4112 -0.2239  0.5269
15862TIP3    H169077   0.274   2.543  14.577 -0.4890 -0.1411  0.4837
15862TIP3    H269078   0.340   2.553  14.441 -2.1118  1.1386 -0.2122
15863TIP3   OH269079   0.953   5.399  12.598 -0.5782 -0.3355 -0.8636
15863TIP3    H169080   0.913   5.406  12.685  0.6043 -2.0688 -0.1614
15863TIP3    H269081   1.044   5.424  12.612 -0.9938  2.0860 -2.1709
15864TIP3   OH269082   4.022   5.415  10.415 -0.1577 -0.9182  0.5386
15864TIP3    H169083   4.067   5.499  10.424  0.7694 -1.3736  0.1951
15864TIP3    H269084   3.958   5.431  10.345  0.1428 -0.5457  0.3394
15865TIP3   OH269085   3.112   0.500  13.817 -0.4620 -0.0510 -0.4928
15865TIP3    H169086   3.125   0.516  13.724 -1.4326 -2.4426 -1.0638
15865TIP3    H269087   3.187   0.447  13.843  0.8958  2.3383  0.5858
15866TIP3   OH269088   3.200   1.602   4.683  0.2602  0.2846 -0.0917
15866TIP3    H169089   3.177   1.578   4.592  0.9297 -0.9664  0.0575
15866TIP3    H269090   3.140   1.674   4.704 -0.3117  0.1929 -1.3250
15867TIP3   OH269091   4.962   1.233   1.242 -0.2869 -0.5438 -0.1019
15867TIP3    H169092   4.992   1.184   1.318 -0.6069  1.5751  1.4392
15867TIP3    H269093   4.866   1.231   1.249 -0.5080 -3.7144 -2.6940
15868TIP3   OH269094   1.246   5.702  14.080 -0.0741  0.3041 -0.4898
15868TIP3    H169095   1.225   5.639  14.012  2.8755 -1.5029  0.1603
15868TIP3    H269096   1.230   5.655  14.162  2.0628  0.3306 -0.0058
15869TIP3   OH269097   0.253   3.811   1.934 -0.0738  0.5716 -0.1769
15869TIP3    H169098   0.297   3.784   1.854  1.0965 -0.7486  0.8921
15869TIP3    H269099   0.176   3.860   1.904  0.2283 -0.0992 -2.0920
15870TIP3   OH269100   0.769   0.279  11.579  0.3645  0.0331 -0.2546
15870TIP3    H169101   0.806   0.329  11.652  0.3064  0.0627 -0.2451
15870TIP3    H269102   0.679   0.261  11.606  0.5271 -0.4917 -0.0511
15871TIP3   OH269103   2.924   2.479  14.878 -0.0241  0.1448 -0.9165
15871TIP3    H169104   2.855   2.425  14.840  0.5475 -1.4384  0.2295
15871TIP3    H269105   2.968   2.421  14.940 -0.1033  2.2590  1.1924
15872TIP3   OH269106   6.598   6.693  16.843  0.0441  0.2845 -0.3872
15872TIP3    H169107   6.686   6.723  16.822 -0.2519  0.3024 -1.6775
15872TIP3    H269108   6.564   6.659  16.760 -1.4027  0.8988 -0.0670
15873TIP3   OH269109   6.092   6.701  13.810 -0.0395  0.1430 -0.2623
15873TIP3    H169110   6.008   6.745  13.825 -0.4083 -0.3653 -0.8022
15873TIP3    H269111   6.139   6.710  13.893 -0.3599  1.0024 -0.1693
15874TIP3   OH269112   4.536   1.470  15.125  0.5901 -0.4663  0.2985
15874TIP3    H169113   4.616   1.524  15.133  0.9387 -0.8159 -0.8045
15874TIP3    H269114   4.565   1.382  15.148  0.9704 -0.9569 -1.9795
15875TIP3   OH269115   2.115   3.778   5.811 -0.2188 -0.1456  0.8659
15875TIP3    H169116   2.148   3.764   5.900 -0.2123  0.0709  0.8984
15875TIP3    H269117   2.141   3.700   5.763 -0.8519 -0.5867  1.2327
15876TIP3   OH269118   2.344   2.650  16.138  0.3854  0.6119  0.5449
15876TIP3    H169119   2.283   2.577  16.144  1.7447 -0.4702  1.5762
15876TIP3    H269120   2.302   2.713  16.079  0.2494 -2.0256 -2.2969
15877TIP3   OH269121   4.692   2.700   0.157  0.0382  0.0227  0.3488
15877TIP3    H169122   4.784   2.702   0.129  0.2047 -0.2450  0.8692
15877TIP3    H269123   4.689   2.632   0.224 -0.9154 -1.2694 -0.9542
15878TIP3   OH269124   4.739   6.623   3.834  0.2216  0.2070 -0.6340
15878TIP3    H169125   4.704   6.592   3.918  0.1063  1.5650 -0.1723
15878TIP3    H269126   4.806   6.558   3.811 -2.1614 -2.1422 -1.2594
15879TIP3   OH269127   1.875   2.202  11.693  0.6158  0.5212 -0.0934
15879TIP3    H169128   1.948   2.239  11.742  0.2717  0.7941  0.2166
15879TIP3    H269129   1.868   2.112  11.725  1.0411  0.3878 -0.3790
15880TIP3   OH269130   3.715   2.094  12.227  0.3097 -0.8187 -0.3000
15880TIP3    H169131   3.743   2.006  12.200 -1.0415 -1.4474  0.2908
15880TIP3    H269132   3.678   2.132  12.147 -1.8299 -1.9224  0.1229
15881TIP3   OH269133   6.013   6.237   5.300  0.5399  0.2227 -0.0435
15881TIP3    H169134   6.011   6.144   5.321  1.2511 -0.2997 -2.1473
15881TIP3    H269135   5.922   6.265   5.304  0.0641 -1.0659 -1.4367
15882TIP3   OH269136   2.298   6.179  12.349  0.5197  0.3364 -0.1917
15882TIP3    H169137   2.367   6.136  12.297  0.9252  1.7569 -0.8694
15882TIP3    H269138   2.241   6.220  12.283 -1.5815 -1.6712  0.3118
15883TIP3   OH269139   1.611   1.223  13.399  0.2031  0.2933 -0.3610
15883TIP3    H169140   1.621   1.275  13.319  1.7873 -1.1038 -1.1016
15883TIP3    H269141   1.563   1.145  13.371  0.7932 -0.2157  0.0404
15884TIP3   OH269142   1.984   5.942   6.277  0.2023  0.1960 -0.0223
15884TIP3    H169143   2.040   5.918   6.204 -0.3400  1.5142 -0.8933
15884TIP3    H269144   2.044   5.975   6.344  0.6566 -0.6157 -0.0215
15885TIP3   OH269145   5.481   2.192  15.063  0.3374 -1.1303 -0.2836
15885TIP3    H169146   5.462   2.202  15.156 -2.4096 -1.3881 -0.7602
15885TIP3    H269147   5.469   2.098  15.046  0.6363 -1.0581 -0.9206
15886TIP3   OH269148   0.648   5.483  10.871  0.5108  0.1445 -0.3476
15886TIP3    H169149   0.566   5.523  10.899  0.4601  0.8239 -1.4679
15886TIP3    H269150   0.714   5.522  10.929  0.4592  1.8389 -1.4117
15887TIP3   OH269151   4.523   5.257  13.639  0.2562  0.0588  0.6295
15887TIP3    H169152   4.514   5.162  13.637 -1.1661  0.1773  0.9956
15887TIP3    H269153   4.445   5.287  13.685  1.1246  1.3506  1.2720
15888TIP3   OH269154   2.638   3.212  13.147  0.2586  0.3956  0.3249
15888TIP3    H169155   2.653   3.306  13.161 -0.5659  1.0945 -2.9112
15888TIP3    H269156   2.553   3.208  13.103  1.1125 -1.6981 -1.2161
15889TIP3   OH269157   2.337   2.968   1.007 -0.3127  0.1697 -0.7397
15889TIP3    H169158   2.303   3.017   1.082  0.7831  1.1940 -0.8898
15889TIP3    H269159   2.391   3.031   0.960  0.8189 -1.0688 -1.1468
15890TIP3   OH269160   1.523   5.651  14.215  0.0961  0.0528 -0.4667
15890TIP3    H169161   1.568   5.567  14.206 -1.4110 -1.2488  3.0228
15890TIP3    H269162   1.431   5.628  14.229 -0.1641  2.1456  1.8214
15891TIP3   OH269163   1.947   2.277   5.281 -0.1212 -0.2485 -0.1608
15891TIP3    H169164   1.919   2.327   5.358 -0.3603  0.5128 -0.7391
15891TIP3    H269165   2.042   2.273   5.289 -0.1769 -0.5366  0.3978
15892TIP3   OH269166   4.987   2.685   1.087  0.4563  0.6909 -0.2823
15892TIP3    H169167   5.018   2.774   1.071  0.8524  1.0751  2.3543
15892TIP3    H269168   5.051   2.630   1.042  1.4890  1.6848 -0.0665
15893TIP3   OH269169   2.914   4.195  16.433  0.5864 -0.0814 -0.0012
15893TIP3    H169170   2.949   4.107  16.439  4.4257  1.3595  0.0322
15893TIP3    H269171   2.943   4.227  16.347  1.0894  1.8558  0.8516
15894TIP3   OH269172   5.741   3.278   0.216  0.3987 -0.2101  1.3881
15894TIP3    H169173   5.780   3.353   0.260  1.7582  0.2352 -0.5123
15894TIP3    H269174   5.744   3.301   0.123 -1.7944 -1.3998  0.9970
15895TIP3   OH269175   2.394   2.715  16.714  0.1141 -0.0482 -0.0657
15895TIP3    H169176   2.394   2.671  16.799  1.5372  1.3975  0.7164
15895TIP3    H269177   2.345   2.795  16.728  1.5141  0.8609 -0.2188
15896TIP3   OH269178   2.975   1.413   2.784 -0.1962 -0.1931 -0.5112
15896TIP3    H169179   2.986   1.375   2.697  1.8184 -0.4237 -0.1771
15896TIP3    H269180   2.970   1.507   2.768 -0.5277 -0.2840 -0.9450
15897TIP3   OH269181   2.280   5.477   5.818 -0.3368  0.0186 -0.6553
15897TIP3    H169182   2.265   5.429   5.900  1.0588  0.0883 -0.3532
15897TIP3    H269183   2.198   5.525   5.804 -0.5455  0.1064  0.7590
15898TIP3   OH269184   6.544   3.349   3.666  0.5173 -0.1831 -0.0580
15898TIP3    H169185   6.578   3.259   3.661  0.2310 -0.3218  0.4809
15898TIP3    H269186   6.451   3.339   3.682 -0.0919  0.1847 -2.9755
15899TIP3   OH269187   6.187   3.249  15.382 -0.0107 -0.5817 -0.8863
15899TIP3    H169188   6.231   3.200  15.451  1.2953  0.7024 -0.7648
15899TIP3    H269189   6.105   3.279  15.422  0.4194 -0.4365 -0.1054
15900TIP3   OH269190   3.117   0.986   5.824  0.1883  0.5116  0.0635
15900TIP3    H169191   3.185   0.942   5.772 -1.1899 -2.2420  0.5300
15900TIP3    H269192   3.136   0.961   5.914 -2.4292 -1.7611  0.0447
15901TIP3   OH269193   1.092   2.802  12.633 -0.0710  0.2329 -0.2358
15901TIP3    H169194   1.162   2.867  12.632 -0.9790  1.2244 -0.6634
15901TIP3    H269195   1.039   2.822  12.556 -0.1058 -1.3185 -0.6511
15902TIP3   OH269196   1.058   4.383   1.543 -0.1387  0.6020  0.4406
15902TIP3    H169197   0.989   4.380   1.609  0.7418  0.0049  1.3623
15902TIP3    H269198   1.090   4.474   1.546  1.5650 -0.0205  2.6384
15903TIP3   OH269199   0.531   0.535  17.243  0.2266  0.2720  0.0957
15903TIP3    H169200   0.625   0.555  17.243  0.5227 -1.1052  0.0717
15903TIP3    H269201   0.515   0.493  17.158  0.0892 -1.7681  1.1008
15904TIP3   OH269202   0.173   3.795  11.096 -0.2253  0.1637  0.1996
15904TIP3    H169203   0.214   3.789  11.010  0.6410 -0.5423  0.6652
15904TIP3    H269204   0.161   3.889  11.111  0.8159  0.3416 -0.1249
15905TIP3   OH269205   0.190   4.093  14.584 -0.3398  0.2743  0.2477
15905TIP3    H169206   0.270   4.144  14.595 -0.7762  0.4936  2.7450
15905TIP3    H269207   0.219   4.012  14.542  1.0736  0.6632  0.4482
15906TIP3   OH269208   2.262   0.822   0.005 -0.0670  0.1842 -0.2214
15906TIP3    H169209   2.238   0.915   0.008  0.2038  0.2092  1.8627
15906TIP3    H269210   2.179   0.776   0.012  0.0659  0.2774  2.1631
15907TIP3   OH269211   1.819   3.039   1.728  0.2144  0.3481 -0.2116
15907TIP3    H169212   1.912   3.052   1.746  0.3497 -2.2430  1.1120
15907TIP3    H269213   1.779   3.124   1.746  2.1124  1.0852  0.5825
15908TIP3   OH269214   5.500   5.621   0.094  0.1915  0.6667  0.4026
15908TIP3    H169215   5.449   5.636   0.173 -0.5724 -1.6363  0.4008
15908TIP3    H269216   5.576   5.678   0.103 -0.8428  1.8451  1.8751
15909TIP3   OH269217   3.426   5.637   3.099 -0.3502  0.0659 -0.0366
15909TIP3    H169218   3.472   5.553   3.104  1.0956  0.8122 -0.3150
15909TIP3    H269219   3.484   5.693   3.047 -0.1710  1.9539  2.0803
15910TIP3   OH269220   5.949   3.901  10.892 -0.4404 -0.8058 -0.0795
15910TIP3    H169221   5.895   3.822  10.897 -2.3242  0.5126  0.8221
15910TIP3    H269222   5.908   3.954  10.824  0.3042 -0.2222 -0.0806
15911TIP3   OH269223   1.482   3.870  17.107 -0.3543  0.4633 -0.0165
15911TIP3    H169224   1.464   3.857  17.199 -0.6367  1.5975  0.1041
15911TIP3    H269225   1.398   3.857  17.063 -0.1631 -0.3428 -0.1410
15912TIP3   OH269226   3.004   1.794   4.701 -0.5441 -0.3189 -0.3799
15912TIP3    H169227   2.994   1.879   4.659  3.0817  0.9027  1.0178
15912TIP3    H269228   2.917   1.755   4.699 -1.5815  1.9350 -4.1482
15913TIP3   OH269229   3.401   4.368   5.979 -0.1773 -0.6178  0.3980
15913TIP3    H169230   3.494   4.357   5.999  0.4443  1.9554 -0.9393
15913TIP3    H269231   3.397   4.363   5.883 -1.1079  1.3417  0.3234
15914TIP3   OH269232   2.569   5.505   1.579 -0.1599  0.1252 -0.1238
15914TIP3    H169233   2.654   5.467   1.559  0.3965  1.5319 -0.4710
15914TIP3    H269234   2.582   5.553   1.661 -0.9875 -0.8645  0.5944
15915TIP3   OH269235   3.953   1.179   5.719 -0.2266 -0.0992  0.1441
15915TIP3    H169236   4.024   1.212   5.774  0.3744 -1.1993  0.0443
15915TIP3    H269237   3.959   1.084   5.727 -1.0678 -0.2224 -0.6504
15916TIP3   OH269238   1.659   5.393   1.552  0.5579 -1.0451  0.3600
15916TIP3    H169239   1.665   5.455   1.480  0.1523  0.6852  1.7730
15916TIP3    H269240   1.583   5.422   1.602 -0.5527 -3.6085  0.2228
15917TIP3   OH269241   1.296   0.145   0.627  0.1165 -0.5047 -0.3245
15917TIP3    H169242   1.326   0.058   0.654  0.6780 -0.6737 -1.4139
15917TIP3    H269243   1.373   0.201   0.637  0.3947 -0.6165 -1.7194
15918TIP3   OH269244   6.437   4.447  14.679  0.4100 -0.7816 -0.4943
15918TIP3    H169245   6.447   4.514  14.611 -1.9183 -0.1319 -0.2586
15918TIP3    H269246   6.439   4.364  14.632 -0.7307 -0.3547 -1.3130
15919TIP3   OH269247   1.826   1.785  11.401 -0.1010 -0.1515 -0.4791
15919TIP3    H169248   1.844   1.750  11.488 -0.3913  0.1545 -0.2929
15919TIP3    H269249   1.805   1.708  11.348  1.1942 -0.4513 -0.5676
15920TIP3   OH269250   4.689   3.899  14.146  0.4371 -0.0295  0.1484
15920TIP3    H169251   4.747   3.938  14.080  0.1789  0.5848  0.2789
15920TIP3    H269252   4.681   3.808  14.120  0.8515  0.0622 -0.3070
15921TIP3   OH269253   5.095   3.044  10.963 -0.1484  0.0599  0.5089
15921TIP3    H169254   5.035   2.976  10.933  1.5412 -0.2209 -2.4668
15921TIP3    H269255   5.067   3.123  10.917  0.7187  0.2873  0.3525
15922TIP3   OH269256   4.685   2.519   4.617  0.4779  0.5987  0.0778
15922TIP3    H169257   4.744   2.557   4.552 -0.7137 -1.2833 -2.1656
15922TIP3    H269258   4.605   2.499   4.569  0.5176 -3.4013  1.4359
15923TIP3   OH269259   6.610   2.746   1.817 -0.1795 -0.5388  0.2056
15923TIP3    H169260   6.698   2.712   1.833  0.8992  0.7685 -2.5914
15923TIP3    H269261   6.597   2.736   1.722 -1.8472  1.9636  0.1022
15924TIP3   OH269262   2.018   4.284   0.506  0.0876  0.6242 -0.8200
15924TIP3    H169263   2.101   4.245   0.533 -1.3323  0.1883  3.2271
15924TIP3    H269264   1.957   4.210   0.502 -0.9105  1.4073 -0.2934
15925TIP3   OH269265   6.113   0.398  12.628 -0.7574 -0.6085 -0.1807
15925TIP3    H169266   6.201   0.432  12.608 -1.1831 -0.2460 -1.5318
15925TIP3    H269267   6.086   0.447  12.706 -0.0360 -0.2183 -0.1617
15926TIP3   OH269268   4.314   1.567  13.313  0.0271  0.4696  0.2694
15926TIP3    H169269   4.344   1.648  13.354  1.2594  0.0984  0.1162
15926TIP3    H269270   4.394   1.517  13.298 -0.5194  0.0983 -1.5251
15927TIP3   OH269271   1.332   2.110   2.622  0.2758 -0.1294  0.3368
15927TIP3    H169272   1.369   2.189   2.661  1.4157 -0.4826  0.0223
15927TIP3    H269273   1.368   2.038   2.674  0.6294 -0.5195 -0.4299
15928TIP3   OH269274   3.300   5.219  14.974  0.5344 -0.1643 -0.3259
15928TIP3    H169275   3.220   5.186  14.934  1.1902 -0.1449 -1.6802
15928TIP3    H269276   3.294   5.193  15.065 -1.5607  0.8378 -0.1507
15929TIP3   OH269277   5.175   5.323  12.592 -0.1979  0.4632  0.6861
15929TIP3    H169278   5.205   5.331  12.683  2.3334 -1.0612  0.0394
15929TIP3    H269279   5.254   5.303  12.542 -2.0435 -2.1279 -1.3628
15930TIP3   OH269280   3.441   2.023   6.598 -0.7487 -0.4191 -0.0237
15930TIP3    H169281   3.457   2.105   6.552 -0.7291  0.2156  1.0950
15930TIP3    H269282   3.360   1.989   6.559 -2.0596  1.3098  1.0942
15931TIP3   OH269283   4.381   2.486  15.373  0.0159  0.3937  0.2230
15931TIP3    H169284   4.426   2.570  15.365  1.6214 -0.4464  0.1191
15931TIP3    H269285   4.360   2.461  15.283  1.5789 -0.3740  0.0562
15932TIP3   OH269286   4.012   1.929   5.172 -0.0449  0.6011 -0.1578
15932TIP3    H169287   4.005   1.992   5.244  0.5347  0.8799 -0.3413
15932TIP3    H269288   4.022   1.983   5.094 -1.8116  0.3150 -0.5891
15933TIP3   OH269289   2.432   0.824   0.214 -0.8764  0.3559  0.3999
15933TIP3    H169290   2.427   0.741   0.260  0.5893  1.2167  2.1803
15933TIP3    H269291   2.362   0.820   0.148 -1.3577 -1.9118  1.0284
15934TIP3   OH269292   5.496   1.654   6.398  0.2736 -0.2555  0.2775
15934TIP3    H169293   5.470   1.598   6.471 -0.8991  0.1917  0.2097
15934TIP3    H269294   5.429   1.722   6.394 -0.2432 -0.8412 -1.8330
15935TIP3   OH269295   5.533   0.918  14.351  0.1889 -0.7400  0.0222
15935TIP3    H169296   5.483   0.872  14.418 -0.2410  0.7243  0.7462
15935TIP3    H269297   5.544   1.007  14.386  2.5835 -0.7931 -0.4845
15936TIP3   OH269298   3.257   6.320   3.794 -0.0649  0.0949  0.4312
15936TIP3    H169299   3.225   6.239   3.756 -0.1203  0.3287 -0.0191
15936TIP3    H269300   3.249   6.307   3.889 -1.7688  0.2797  0.3155
15937TIP3   OH269301   6.241   5.880   5.066 -0.0403 -0.1032  0.2017
15937TIP3    H169302   6.271   5.919   5.148  0.5409  0.0859 -0.0990
15937TIP3    H269303   6.285   5.930   4.998 -2.4582  1.3928 -0.3156
15938TIP3   OH269304   2.612   3.578   5.508 -0.1986 -0.4374  0.2086
15938TIP3    H169305   2.557   3.610   5.579  0.5591 -2.1036  1.5823
15938TIP3    H269306   2.689   3.636   5.509  0.1852 -0.9605  1.2901
15939TIP3   OH269307   0.667   2.962  12.218  0.0694 -0.0037  0.0603
15939TIP3    H169308   0.690   3.053  12.198  0.6668 -0.1890 -0.1195
15939TIP3    H269309   0.751   2.916  12.215 -0.0405 -0.3156  1.5279
15940TIP3   OH269310   4.558   3.705  15.694 -0.2055 -0.0660 -0.5559
15940TIP3    H169311   4.641   3.704  15.646 -1.9205  0.0437 -3.6268
15940TIP3    H269312   4.501   3.648  15.643 -1.9940 -0.2722  1.6272
15941TIP3   OH269313   0.726   0.144   1.774 -0.4386 -0.6895  0.4332
15941TIP3    H169314   0.819   0.152   1.755 -0.2884 -2.2385  0.4465
15941TIP3    H269315   0.720   0.146   1.869 -0.5174  0.3016  0.4133
15942TIP3   OH269316   4.649   5.273   1.048 -0.4177  0.3898  0.4695
15942TIP3    H169317   4.734   5.298   1.084 -0.2519  1.8713 -0.9006
15942TIP3    H269318   4.620   5.200   1.103  2.9695 -1.9430 -0.7415
15943TIP3   OH269319   6.053   2.149  14.024 -0.0189 -0.4498 -0.0213
15943TIP3    H169320   6.012   2.143  13.937 -0.2911  0.1704  0.0579
15943TIP3    H269321   6.103   2.231  14.020 -2.2809  1.0556  1.3508
15944TIP3   OH269322   5.572   0.451  15.899 -0.5639  0.3522  0.2517
15944TIP3    H169323   5.659   0.488  15.917 -1.2800  2.3374 -0.2351
15944TIP3    H269324   5.584   0.356  15.907  1.5881  0.6186  0.4443
15945TIP3   OH269325   3.007   2.279   0.192 -0.4310  0.3372 -0.6123
15945TIP3    H169326   3.061   2.296   0.115 -0.3112 -0.9275 -0.8173
15945TIP3    H269327   2.963   2.196   0.173 -1.8290  0.9353 -0.1022
15946TIP3   OH269328   6.219   3.284   0.949  0.1624 -0.1119 -0.1285
15946TIP3    H169329   6.138   3.280   0.897 -0.1277 -1.2646  0.3880
15946TIP3    H269330   6.194   3.251   1.035  1.1008 -0.1095  0.1508
15947TIP3   OH269331   6.524   1.207  10.929  0.3504  0.0318 -0.1619
15947TIP3    H169332   6.602   1.152  10.934  0.9524  0.8616 -0.4338
15947TIP3    H269333   6.494   1.197  10.838  2.0032  2.2476 -0.9938
15948TIP3   OH269334   2.172   0.189   3.830  0.5077 -0.1340  0.1917
15948TIP3    H169335   2.129   0.209   3.913  0.0148  1.8052 -0.4929
15948TIP3    H269336   2.114   0.227   3.764  3.4370  2.8962 -0.7372
15949TIP3   OH269337   6.252   2.959   4.944 -0.0027 -0.1886 -0.1842
15949TIP3    H169338   6.184   2.905   4.983  2.6228 -2.1759  1.8249
15949TIP3    H269339   6.307   2.898   4.894  1.4288  1.0344 -0.1693
15950TIP3   OH269340   3.706   4.611  17.253 -0.8163 -0.5475  0.1028
15950TIP3    H169341   3.622   4.649  17.227 -1.5088 -2.3461 -0.3655
15950TIP3    H269342   3.764   4.632  17.180 -0.5450  1.6320  0.9013
15951TIP3   OH269343   6.200   6.557  13.622 -0.3287 -0.4102 -0.0789
15951TIP3    H169344   6.145   6.592  13.692 -0.2634 -0.3407 -0.0627
15951TIP3    H269345   6.221   6.633  13.568 -0.8785 -0.5662 -0.5158
15952TIP3   OH269346   2.647   1.787   1.479 -0.1638 -0.4977 -0.0829
15952TIP3    H169347   2.648   1.822   1.568  0.3941 -0.4285 -0.1160
15952TIP3    H269348   2.738   1.766   1.460 -0.3766 -1.1551 -0.3869
15953TIP3   OH269349   0.689   6.382  15.596  0.2688 -0.6866  0.3202
15953TIP3    H169350   0.650   6.349  15.516  2.1908 -0.1439 -0.8691
15953TIP3    H269351   0.630   6.452  15.625 -1.2273 -1.8852  0.2193
15954TIP3   OH269352   2.876   2.936  13.941  0.0993 -0.1408 -0.2866
15954TIP3    H169353   2.955   2.887  13.918  0.7631 -0.1617  1.9693
15954TIP3    H269354   2.872   2.933  14.036 -1.3669  1.8520 -0.2500
15955TIP3   OH269355   0.863   4.686  14.908 -0.8304  0.1800 -0.4962
15955TIP3    H169356   0.779   4.681  14.861 -0.4681 -3.4697 -0.9254
15955TIP3    H269357   0.924   4.638  14.852  1.5879  2.7204 -0.1401
15956TIP3   OH269358   1.746   3.531   2.499 -0.2860 -0.3409 -0.2268
15956TIP3    H169359   1.665   3.481   2.484  0.4101 -1.2000 -1.2314
15956TIP3    H269360   1.723   3.594   2.567 -1.7997 -0.5877 -0.4831
15957TIP3   OH269361   1.039   0.306   3.117  0.1905 -0.2196 -0.0655
15957TIP3    H169362   1.076   0.250   3.186  2.5301  0.2159 -0.9164
15957TIP3    H269363   1.063   0.262   3.036 -0.0418  0.7612 -0.6716
15958TIP3   OH269364   5.077   1.022  13.116 -0.2491  0.2436 -0.3863
15958TIP3    H169365   5.084   0.955  13.184 -1.8883  0.8933  0.4637
15958TIP3    H269366   5.054   1.102  13.164 -0.4547  0.9312 -1.6054
15959TIP3   OH269367   1.754   2.594  11.521  0.1994  0.1806  0.1959
15959TIP3    H169368   1.673   2.557  11.558 -0.3692  1.8433  0.6911
15959TIP3    H269369   1.806   2.518  11.495 -0.6688 -0.9593  1.7133
15960TIP3   OH269370   0.093   2.866  14.832  0.4312  0.7429 -0.4146
15960TIP3    H169371   0.062   2.949  14.868 -1.2237 -0.1803  0.3430
15960TIP3    H269372   0.013   2.820  14.806  1.3648 -0.3981 -1.2898
15961TIP3   OH269373   0.322   2.570  15.727 -0.3925 -0.4191 -0.3106
15961TIP3    H169374   0.247   2.512  15.711 -0.8459  0.4215 -1.3503
15961TIP3    H269375   0.396   2.526  15.686 -0.4565 -0.9337  0.1326
15962TIP3   OH269376   6.172   1.476   1.525  0.0212 -0.4829  0.1711
15962TIP3    H169377   6.181   1.514   1.438  0.0681  0.9836  0.8064
15962TIP3    H269378   6.164   1.382   1.509 -1.9395 -0.0632 -1.5255
15963TIP3   OH269379   6.761   5.263   5.010  0.1784  0.3315 -0.7815
15963TIP3    H169380   6.736   5.190   4.953  0.2040 -1.1882  1.0764
15963TIP3    H269381   6.853   5.280   4.987  0.3528 -0.6290 -0.8371
15964TIP3   OH269382   6.058   2.151  13.758 -0.5552 -0.4324  0.7258
15964TIP3    H169383   6.057   2.224  13.697 -0.7484  0.7801  2.1449
15964TIP3    H269384   6.140   2.106  13.740 -0.2763  0.3265  0.0643
15965TIP3   OH269385   5.008   0.620   3.888  0.4442  0.1601 -0.2425
15965TIP3    H169386   4.939   0.683   3.866  0.7730  1.0767  1.2210
15965TIP3    H269387   4.972   0.571   3.963  0.7921 -0.3609 -0.4198
15966TIP3   OH269388   3.003   1.774  15.564  0.4212 -0.6710  0.3384
15966TIP3    H169389   3.035   1.824  15.639 -0.3685 -0.4590  0.5355
15966TIP3    H269390   3.058   1.695  15.563 -0.3879 -1.2824  1.8909
15967TIP3   OH269391   4.372   1.877   2.093  0.0867 -0.0614 -0.7840
15967TIP3    H169392   4.430   1.953   2.101 -0.6224  0.4487 -0.3982
15967TIP3    H269393   4.430   1.805   2.069  1.0049  0.2676  0.3957
15968TIP3   OH269394   2.131   6.424  11.459  0.2061 -0.2782  0.3253
15968TIP3    H169395   2.215   6.436  11.502  0.7691  0.8694 -1.0632
15968TIP3    H269396   2.138   6.341  11.413  0.1708 -0.7237  1.1160
15969TIP3   OH269397   1.743   2.189   0.970  0.4972  0.3579 -0.0380
15969TIP3    H169398   1.651   2.203   0.947  1.1881 -0.6161 -3.8009
15969TIP3    H269399   1.757   2.095   0.957  1.4697  0.0563  2.8345
15970TIP3   OH269400   5.503   5.364  14.370 -0.2425  0.7156 -0.6323
15970TIP3    H169401   5.460   5.330  14.292  0.6412 -0.8420 -0.4687
15970TIP3    H269402   5.518   5.287  14.425  3.1977  1.0915 -0.9311
15971TIP3   OH269403   6.697   5.401   0.627  0.7623 -0.4022  0.5274
15971TIP3    H169404   6.663   5.459   0.695  0.3796 -0.2618  0.2150
15971TIP3    H269405   6.694   5.453   0.546  0.4579 -0.8428  0.2552
15972TIP3   OH269406   0.013   1.580   3.447  0.2605  0.6995  0.1375
15972TIP3    H169407   0.040   1.496   3.484 -3.0923 -0.9326 -0.9083
15972TIP3    H269408   0.053   1.582   3.360  1.5108  0.8534  0.7088
15973TIP3   OH269409   2.229   4.223   0.676  0.5329  0.2868 -0.7196
15973TIP3    H169410   2.253   4.155   0.738 -0.4444  1.2119  0.7106
15973TIP3    H269411   2.261   4.304   0.716  0.8701  0.7826 -1.9641
15974TIP3   OH269412   0.858   0.609  16.319 -0.2985 -0.7100 -0.5626
15974TIP3    H169413   0.838   0.517  16.301  2.1272 -1.3304 -0.3819
15974TIP3    H269414   0.789   0.658  16.276 -2.3287 -2.6497  0.3629
15975TIP3   OH269415   0.652   1.426   4.676 -0.2381 -0.0703  0.1693
15975TIP3    H169416   0.673   1.352   4.733  1.1948  0.2221  0.0539
15975TIP3    H269417   0.632   1.386   4.591 -2.0124 -0.4800  0.7635
15976TIP3   OH269418   0.213   5.226   6.659 -0.2742 -0.0108 -0.6021
15976TIP3    H169419   0.189   5.167   6.587  0.6852 -1.3254  0.1286
15976TIP3    H269420   0.260   5.170   6.721  1.5789  1.7541 -0.3644
15977TIP3   OH269421   4.545   4.847  12.437  0.2247  0.3295  0.0452
15977TIP3    H169422   4.480   4.820  12.501 -0.3359 -0.7667 -0.9651
15977TIP3    H269423   4.511   4.930  12.402  0.7752  1.1671  1.4973
15978TIP3   OH269424   4.707   3.007  11.354  0.3879  0.3532 -0.5262
15978TIP3    H169425   4.698   2.933  11.294  1.3196 -0.2719  0.0938
15978TIP3    H269426   4.764   3.069  11.307  0.3465  0.2780 -0.6737
15979TIP3   OH269427   0.312   5.899   6.619 -0.5836 -0.6333 -0.1886
15979TIP3    H169428   0.396   5.920   6.659  0.0432  1.3610 -2.4459
15979TIP3    H269429   0.284   5.819   6.664  1.1429  0.2184  2.5665
15980TIP3   OH269430   1.208   2.840   2.788  0.8857 -0.2993  0.0211
15980TIP3    H169431   1.223   2.928   2.824  1.9956 -1.4202  2.4630
15980TIP3    H269432   1.277   2.786   2.828 -1.7959 -2.9708  1.2862
15981TIP3   OH269433   6.060   0.963  11.290 -0.0971  0.7087 -0.3203
15981TIP3    H169434   6.086   0.990  11.202  1.9151 -0.9637 -0.2862
15981TIP3    H269435   6.118   1.011  11.348  0.0307  0.2028 -0.0222
15982TIP3   OH269436   5.456   0.923  16.286  0.0851  0.0395 -0.7391
15982TIP3    H169437   5.362   0.920  16.304  0.1299  1.3322 -0.2114
15982TIP3    H269438   5.471   1.010  16.250  1.3941  0.6254  1.1428
15983TIP3   OH269439   2.426   5.483  11.943 -0.5720 -0.5013 -0.2153
15983TIP3    H169440   2.453   5.573  11.924  0.4829 -0.6950  0.3071
15983TIP3    H269441   2.489   5.453  12.009 -0.5086 -1.8477 -0.8769
15984TIP3   OH269442   3.419   2.454   3.398 -0.1885  0.3480  0.0642
15984TIP3    H169443   3.508   2.482   3.377 -0.1329 -0.5184 -0.9024
15984TIP3    H269444   3.423   2.429   3.490  0.5594  0.3437  0.0367
15985TIP3   OH269445   4.850   5.315  14.143  0.2763  0.1898 -0.1819
15985TIP3    H169446   4.906   5.340  14.216  0.6849 -2.7688  0.5557
15985TIP3    H269447   4.770   5.367  14.155 -0.3797 -1.5251  3.3906
15986TIP3   OH269448   3.770   3.830   0.600 -0.1641 -0.5114  0.2781
15986TIP3    H169449   3.736   3.880   0.673 -1.7523  0.5161 -1.1284
15986TIP3    H269450   3.743   3.740   0.617 -0.9088 -0.2027  0.7255
15987TIP3   OH269451   6.542   1.775  11.822  0.2247 -0.2410  0.3031
15987TIP3    H169452   6.594   1.855  11.813 -0.0170 -0.2568 -1.3672
15987TIP3    H269453   6.580   1.730  11.897  2.4295 -0.1007 -0.7033
15988TIP3   OH269454   0.396   0.611   5.662 -0.1148  0.4761 -0.3712
15988TIP3    H169455   0.482   0.644   5.636  0.1966  0.2537  0.3730
15988TIP3    H269456   0.399   0.517   5.642 -0.0731  0.4081 -0.0364
15989TIP3   OH269457   3.871   2.763   2.065 -0.0465  0.4667 -0.3247
15989TIP3    H169458   3.804   2.740   2.129  1.4269 -1.9438  0.4102
15989TIP3    H269459   3.903   2.849   2.093 -1.7147  0.9362  0.1984
15990TIP3   OH269460   0.864   1.902   1.155  0.4372  0.2021  0.6371
15990TIP3    H169461   0.806   1.836   1.193  1.6629 -0.4493  1.3952
15990TIP3    H269462   0.848   1.981   1.206 -0.6532  0.3596  0.0669
15991TIP3   OH269463   1.478   4.459  11.339 -0.0038  0.4290  0.6063
15991TIP3    H169464   1.547   4.411  11.384 -0.1569 -0.4318 -0.0664
15991TIP3    H269465   1.498   4.551  11.355  1.7565  0.2169 -0.2612
15992TIP3   OH269466   2.626   5.282   3.765 -0.1997  0.4447  0.8173
15992TIP3    H169467   2.581   5.345   3.821 -0.6525  0.7523  0.1091
15992TIP3    H269468   2.677   5.229   3.826  0.3991  1.6642  1.4093
15993TIP3   OH269469   6.280   1.649   0.738  0.4167 -0.4930  0.0098
15993TIP3    H169470   6.368   1.685   0.751 -0.8812  2.3296  1.2927
15993TIP3    H269471   6.243   1.701   0.666 -0.7395 -0.7056  0.4422
15994TIP3   OH269472   0.582   2.403  15.936 -1.0009 -0.0570  0.5060
15994TIP3    H169473   0.497   2.368  15.911 -1.1999  0.6977  0.0973
15994TIP3    H269474   0.562   2.469  16.003 -0.7396  0.0814  0.4487
15995TIP3   OH269475   2.348   0.709  14.946 -0.6170  0.2037  0.4882
15995TIP3    H169476   2.267   0.663  14.925 -1.4706  1.7495  0.3116
15995TIP3    H269477   2.376   0.748  14.863 -0.3070  0.6282  0.7873
15996TIP3   OH269478   6.680   3.610  11.367  0.1347  0.1525 -0.2745
15996TIP3    H169479   6.607   3.548  11.365  0.6867 -0.6427  1.8492
15996TIP3    H269480   6.709   3.617  11.276 -2.2240  0.0628 -1.0583
15997TIP3   OH269481   5.501   6.250   1.392  0.5491  0.4192 -0.5986
15997TIP3    H169482   5.504   6.158   1.419  3.4112  0.5158 -0.4608
15997TIP3    H269483   5.476   6.247   1.300  1.5970 -0.5753 -0.8632
15998TIP3   OH269484   0.707   4.374   1.250  0.0440  0.2157 -0.5916
15998TIP3    H169485   0.631   4.322   1.278  0.0993  0.4886  0.0679
15998TIP3    H269486   0.772   4.309   1.223 -0.1434 -0.0352 -0.4367
15999TIP3   OH269487   3.767   1.943   0.752 -0.8273  0.3112 -0.3837
15999TIP3    H169488   3.781   1.996   0.673 -2.3291  0.4527 -0.5715
15999TIP3    H269489   3.672   1.941   0.762 -0.6805 -0.5908  0.8310
16000TIP3   OH269490   1.377   6.074  13.975 -0.9765 -0.2241  0.4764
16000TIP3    H169491   1.445   6.006  13.974 -1.9690 -1.2212 -1.3978
16000TIP3    H269492   1.333   6.065  13.891 -2.6107  1.2719  1.1434
16001TIP3   OH269493   3.643   0.090   1.070 -0.2816  0.2166  0.9133
16001TIP3    H169494   3.696   0.119   0.996  0.4123 -0.0227  1.3063
16001TIP3    H269495   3.646  -0.006   1.064  0.0214  0.1934  1.4176
16002TIP3   OH269496   3.961   4.408   6.025  1.0056 -0.2863  0.2992
16002TIP3    H169497   3.901   4.437   5.957 -0.2099  1.1323  1.9436
16002TIP3    H269498   3.978   4.316   6.004 -1.9697 -0.8134 -0.0101
16003TIP3   OH269499   0.704   4.694  12.787 -0.0736  0.0694  0.4514
16003TIP3    H169500   0.690   4.730  12.875 -1.6518  0.4835  0.0616
16003TIP3    H269501   0.696   4.769  12.729  0.4395 -0.2907 -0.0906
16004TIP3   OH269502   6.440   5.246  16.572 -0.1987 -0.3418 -0.1049
16004TIP3    H169503   6.448   5.275  16.663 -2.6897 -2.1784  0.7549
16004TIP3    H269504   6.442   5.328  16.522 -1.1219  0.9038  1.7945
16005TIP3   OH269505   3.563   5.478   2.386  0.8913 -0.3215  0.0018
16005TIP3    H169506   3.596   5.559   2.347 -0.8687 -0.6579 -2.3114
16005TIP3    H269507   3.481   5.503   2.428  1.1233 -0.6056  0.6249
16006TIP3   OH269508   0.609   3.403   4.379 -0.5298  0.1573  0.1119
16006TIP3    H169509   0.675   3.334   4.388 -1.3577 -0.8533 -1.5804
16006TIP3    H269510   0.532   3.359   4.343 -0.7956  2.1093 -1.7558
16007TIP3   OH269511   5.718   0.996  14.132  0.5332  0.0116 -0.1266
16007TIP3    H169512   5.654   0.960  14.193 -2.5646  0.8540 -2.7656
16007TIP3    H269513   5.775   0.921  14.111 -0.1489 -1.0025  1.4956
16008TIP3   OH269514   5.421   1.160   1.600  0.3916  0.0588  0.3646
16008TIP3    H169515   5.371   1.241   1.595  1.1326  0.4178 -1.6328
16008TIP3    H269516   5.468   1.155   1.516  1.5064 -1.6768  1.0572
16009TIP3   OH269517   3.562   2.939   1.477  0.3115 -0.1117  0.1644
16009TIP3    H169518   3.633   2.921   1.415 -0.1979 -0.2118 -0.4031
16009TIP3    H269519   3.511   3.008   1.435 -0.2123 -0.3965  0.3259
16010TIP3   OH269520   2.999   4.220  16.864 -0.3126 -0.4467  0.7412
16010TIP3    H169521   3.015   4.128  16.887 -0.3137 -0.6870 -0.2007
16010TIP3    H269522   2.972   4.261  16.946  0.2220 -1.1659  1.2854
16011TIP3   OH269523   5.527   2.253  16.342 -0.0937 -0.3853  0.1099
16011TIP3    H169524   5.460   2.236  16.275 -0.8051 -0.2296  0.7710
16011TIP3    H269525   5.548   2.167  16.378 -0.3123 -0.3775  0.2549
16012TIP3   OH269526   4.996   0.382   4.768  0.0626 -0.3734 -0.3285
16012TIP3    H169527   4.909   0.343   4.777 -0.5073  1.4339  2.3361
16012TIP3    H269528   5.051   0.309   4.737 -1.8088 -2.2186  0.5489
16013TIP3   OH269529   4.620   1.642   3.890 -0.6833  0.2437  0.0989
16013TIP3    H169530   4.532   1.654   3.854 -0.6993  0.8082  0.3095
16013TIP3    H269531   4.637   1.724   3.937 -1.1176 -0.8988  2.3114
16014TIP3   OH269532   2.113   1.661   1.251  0.3158  0.0368  0.7673
16014TIP3    H169533   2.148   1.743   1.215 -0.2985 -0.1397 -0.2463
16014TIP3    H269534   2.056   1.627   1.182 -0.6091 -0.4839  1.7734
16015TIP3   OH269535   4.309   6.537  14.195 -0.0105  0.9984 -0.2387
16015TIP3    H169536   4.248   6.593  14.147  0.9357  1.7748 -0.5398
16015TIP3    H269537   4.394   6.580  14.187  0.7829 -0.6150 -0.7029
16016TIP3   OH269538   0.121   4.530   3.044 -0.1601  0.3502 -0.1271
16016TIP3    H169539   0.032   4.512   3.013 -0.2546 -0.1477  0.4013
16016TIP3    H269540   0.173   4.539   2.964 -0.3831 -0.9728 -0.4471
16017TIP3   OH269541   6.127   1.202   0.701 -0.0953  0.5286  0.5820
16017TIP3    H169542   6.159   1.193   0.791 -1.4010  2.8276  1.3186
16017TIP3    H269543   6.031   1.202   0.710 -0.2531 -0.4891 -0.9607
16018TIP3   OH269544   4.637   3.338   5.198  0.3413  0.3587  0.1997
16018TIP3    H169545   4.557   3.373   5.158 -0.4907 -0.5789  1.0398
16018TIP3    H269546   4.627   3.243   5.192  2.2183  0.2215 -1.3189
16019TIP3   OH269547   5.212   4.880  15.741  0.0966 -0.0078 -0.1615
16019TIP3    H169548   5.175   4.912  15.659 -1.0210  1.0079  0.7370
16019TIP3    H269549   5.260   4.955  15.777  2.0558 -0.9520 -0.7177
16020TIP3   OH269550   0.304   1.897  12.436  0.4544 -0.0093 -0.5357
16020TIP3    H169551   0.308   1.915  12.530 -1.5886  1.4990 -0.6977
16020TIP3    H269552   0.212   1.876  12.419  1.2736 -2.8457 -1.7911
16021TIP3   OH269553   1.310   4.006   5.093 -0.1352 -0.4648  0.0305
16021TIP3    H169554   1.264   3.940   5.040 -1.9386  0.5181  0.3387
16021TIP3    H269555   1.403   3.985   5.081 -0.6280 -2.2974 -0.8665
16022TIP3   OH269556   6.729   0.805  15.888  0.5988 -0.6550  0.3512
16022TIP3    H169557   6.687   0.873  15.940  0.4432 -1.1052  0.8189
16022TIP3    H269558   6.781   0.755  15.952  3.4493  1.0913 -0.4879
16023TIP3   OH269559   5.966   4.893   3.164 -0.4812  0.0529 -0.0449
16023TIP3    H169560   5.882   4.929   3.191 -0.6884 -2.6757  3.2424
16023TIP3    H269561   6.031   4.942   3.215 -0.4784 -1.3426  1.3200
16024TIP3   OH269562   2.895   5.697  11.668  0.2066 -0.1327 -0.2069
16024TIP3    H169563   2.930   5.640  11.600 -0.2203 -1.5191  0.7133
16024TIP3    H269564   2.802   5.676  11.673  0.5438 -1.2950  1.9450
16025TIP3   OH269565   4.453   4.551   6.645 -0.0267  1.0147 -1.1091
16025TIP3    H169566   4.523   4.532   6.583  0.5754  0.7694 -0.3654
16025TIP3    H269567   4.444   4.646   6.643 -0.2202  0.9835 -1.7972
16026TIP3   OH269568   2.022   3.538   0.623 -0.0634 -0.3386  0.6238
16026TIP3    H169569   2.003   3.612   0.566 -0.8190 -0.9226  0.1159
16026TIP3    H269570   1.957   3.545   0.693 -0.2580 -0.6370  0.4710
16027TIP3   OH269571   2.962   5.940  14.578 -0.3566 -0.1273  0.4046
16027TIP3    H169572   2.905   5.910  14.649 -1.7184  1.4040  0.0046
16027TIP3    H269573   2.903   5.950  14.503  0.5075  1.0739 -0.1306
16028TIP3   OH269574   2.124   4.112   2.388  0.5168  0.3647  0.2825
16028TIP3    H169575   2.032   4.134   2.399  0.5384  1.0154 -0.7815
16028TIP3    H269576   2.127   4.061   2.307  0.9572 -0.5638  0.8658
16029TIP3   OH269577   2.030   5.431   2.102  0.6401  0.0096 -0.2089
16029TIP3    H169578   1.970   5.370   2.058 -1.7846  2.3379 -0.3033
16029TIP3    H269579   2.071   5.379   2.170 -0.1516 -2.1369 -1.3098
16030TIP3   OH269580   6.211   3.635  12.647  0.0938  0.2884 -0.7322
16030TIP3    H169581   6.228   3.541  12.636 -2.2963 -0.4506  1.2811
16030TIP3    H269582   6.158   3.659  12.571 -0.2131 -0.2720 -0.7007
16031TIP3   OH269583   4.846   0.840   5.969 -0.4328  0.4850  0.6199
16031TIP3    H169584   4.790   0.793   5.907 -0.3661  1.7945 -0.4479
16031TIP3    H269585   4.798   0.921   5.987  0.5410  1.0523  0.6617
16032TIP3   OH269586   1.066   2.548   1.481  0.9268  0.4787  1.1412
16032TIP3    H169587   1.125   2.488   1.435  0.6191  0.0677  1.2854
16032TIP3    H269588   1.091   2.541   1.573  0.3241 -0.0675  1.2648
16033TIP3   OH269589   5.892   0.225   2.574 -0.2723  0.1505 -0.1192
16033TIP3    H169590   5.806   0.253   2.542 -0.7117 -0.3606  0.5944
16033TIP3    H269591   5.953   0.287   2.535 -1.1708  1.8347  1.0652
16034TIP3   OH269592   2.996   4.230   6.398 -0.4255  0.3756  0.0756
16034TIP3    H169593   2.918   4.260   6.444  0.3868 -0.1308  1.8106
16034TIP3    H269594   3.069   4.259   6.452  0.6268  1.0621 -1.6528
16035TIP3   OH269595   5.311   5.218   4.339  0.5109 -0.2878 -0.5877
16035TIP3    H169596   5.229   5.261   4.363  0.2652 -0.4363 -1.1467
16035TIP3    H269597   5.371   5.240   4.410 -0.1295 -0.5126  0.0354
16036TIP3   OH269598   3.534   2.188   2.288  0.2336  0.5708  0.5651
16036TIP3    H169599   3.439   2.194   2.273  0.0411  0.5863  1.7661
16036TIP3    H269600   3.572   2.190   2.200 -0.9644 -0.9273 -0.0035
16037TIP3   OH269601   0.737   4.489   3.684  0.4307  0.0170  0.4893
16037TIP3    H169602   0.657   4.481   3.631  2.2444  0.1669 -2.3780
16037TIP3    H269603   0.705   4.496   3.774 -2.7977  0.4256 -0.6086
16038TIP3   OH269604   4.328   0.349  11.827  0.2187  0.0887  0.2053
16038TIP3    H169605   4.311   0.399  11.748  0.9489  0.4728  0.2922
16038TIP3    H269606   4.248   0.297  11.840  0.8320 -1.4316 -1.8663
16039TIP3   OH269607   3.439   3.612  11.688 -0.6451  0.2449 -0.0007
16039TIP3    H169608   3.414   3.694  11.731 -0.6225 -0.4020  1.2807
16039TIP3    H269609   3.392   3.613  11.605  1.1390  2.6213 -1.0290
16040TIP3   OH269610   0.263   4.665  12.899  0.2615 -0.1719 -0.2589
16040TIP3    H169611   0.295   4.666  12.989 -0.9499  0.6309  0.1631
16040TIP3    H269612   0.172   4.691  12.905  0.4873  1.0542 -1.8500
16041TIP3   OH269613   1.216   6.468  16.702 -0.6003 -0.2261  0.4522
16041TIP3    H169614   1.191   6.560  16.712 -0.7934 -0.2703  0.3743
16041TIP3    H269615   1.134   6.421  16.699 -0.5033 -0.3880  0.3517
16042TIP3   OH269616   1.822   5.071   5.828  0.1966  0.0756 -0.1998
16042TIP3    H169617   1.760   5.044   5.760 -0.5173 -2.4176  1.3914
16042TIP3    H269618   1.784   5.038   5.910  2.0608  1.2398  1.1793
16043TIP3   OH269619   0.925   0.915   2.387  0.1708  0.9380  0.7862
16043TIP3    H169620   0.854   0.963   2.343  0.7687  1.0974 -0.0128
16043TIP3    H269621   0.940   0.838   2.332  1.1781  1.3286  0.5045
16044TIP3   OH269622   5.757   3.245  15.171  0.3596  0.6410 -0.3921
16044TIP3    H169623   5.717   3.319  15.125  1.9231  0.1916 -2.5300
16044TIP3    H269624   5.806   3.285  15.243 -2.1250  1.3476  0.9858
16045TIP3   OH269625   4.489   6.366   1.792  0.5502 -0.7490 -0.0710
16045TIP3    H169626   4.574   6.393   1.758  0.0554 -0.4706 -1.0877
16045TIP3    H269627   4.464   6.434   1.855 -0.2437  0.6755 -1.8974
16046TIP3   OH269628   2.408   2.217  17.131  0.5957 -0.2301 -0.0945
16046TIP3    H169629   2.342   2.272  17.173  1.3324  1.4117 -1.0461
16046TIP3    H269630   2.363   2.134  17.115 -1.6643  1.3192 -1.9679
16047TIP3   OH269631   4.635   0.940   2.463 -0.5470 -0.2845  0.1081
16047TIP3    H169632   4.634   1.028   2.499  0.3878 -0.2429  0.0371
16047TIP3    H269633   4.571   0.892   2.516 -1.0185  0.4122  0.1839
16048TIP3   OH269634   1.080   2.574  10.887  0.1173  0.0322 -0.3750
16048TIP3    H169635   0.997   2.533  10.912  1.0417 -0.7652  1.4547
16048TIP3    H269636   1.145   2.531  10.941  1.5007  1.9377 -0.4782
16049TIP3   OH269637   6.071   4.168   4.212 -0.0873  0.7967  0.1451
16049TIP3    H169638   5.993   4.190   4.162  1.4628  1.4451 -2.0317
16049TIP3    H269639   6.083   4.243   4.271 -0.2756  1.3689 -0.5365
16050TIP3   OH269640   6.104   3.794   1.581 -0.3980 -0.6008  0.4902
16050TIP3    H169641   6.009   3.797   1.572 -0.3213  0.2401 -0.1747
16050TIP3    H269642   6.120   3.785   1.675 -1.1107  1.0006  0.7795
16051TIP3   OH269643   5.404   1.811  15.554  0.0128 -0.0865 -0.3170
16051TIP3    H169644   5.334   1.797  15.490  0.9146  0.8684 -1.5561
16051TIP3    H269645   5.458   1.732  15.548 -1.7837 -1.5076  1.7568
16052TIP3   OH269646   0.674   5.164   5.255  0.2073  0.2587 -0.4302
16052TIP3    H169647   0.589   5.151   5.213 -0.5329 -0.7663  1.3435
16052TIP3    H269648   0.655   5.213   5.335  1.7193  3.0071 -1.7067
16053TIP3   OH269649   5.291   2.975  14.677 -0.2648 -0.2847 -0.5565
16053TIP3    H169650   5.280   3.030  14.600 -1.3536 -1.6364 -1.4016
16053TIP3    H269651   5.353   2.907  14.649  1.4172  0.7529  0.6118
16054TIP3   OH269652   0.686   3.695   5.657  0.6789  0.1624  0.9814
16054TIP3    H169653   0.680   3.603   5.635  0.8574  0.5487 -0.7092
16054TIP3    H269654   0.769   3.704   5.703  1.9246 -0.0467 -1.2098
16055TIP3   OH269655   6.127   0.173  15.373  0.7124  0.0296 -0.4677
16055TIP3    H169656   6.036   0.143  15.380  0.4265  1.4647  2.7447
16055TIP3    H269657   6.119   0.264  15.344  1.0055  0.6029  1.1762
16056TIP3   OH269658   5.402   0.186  14.038 -0.1494  0.1544  0.3152
16056TIP3    H169659   5.357   0.271  14.030 -1.1953 -0.2375  1.9332
16056TIP3    H269660   5.333   0.121  14.027  0.9919 -0.5855 -3.2479
16057TIP3   OH269661   3.069   1.448  12.915 -0.1092  0.6318 -0.5488
16057TIP3    H169662   3.151   1.400  12.902 -0.2674  0.3132 -0.3956
16057TIP3    H269663   3.023   1.398  12.983  0.6704  2.2346  1.1695
16058TIP3   OH269664   1.985   6.634  16.987  0.2756  0.6105  0.3107
16058TIP3    H169665   2.046   6.707  16.976  0.7340  0.2566  0.4715
16058TIP3    H269666   1.937   6.653  17.068  0.2167  0.8610  0.2157
16059TIP3   OH269667   5.914   1.627  16.819 -0.4078  0.0846 -0.1456
16059TIP3    H169668   5.995   1.670  16.791  0.5992 -1.8953 -0.3235
16059TIP3    H269669   5.885   1.678  16.894 -0.0450  1.9773 -1.2386
16060TIP3   OH269670   2.993   6.395   1.154 -0.1096  0.3788 -0.5538
16060TIP3    H169671   3.057   6.359   1.092  0.3185  0.1345  0.0201
16060TIP3    H269672   2.962   6.319   1.203 -1.6303  0.3520 -1.5379
16061TIP3   OH269673   4.980   2.891  15.664 -0.3011  0.1546 -0.0395
16061TIP3    H169674   4.954   2.799  15.659  0.1032  0.0362  0.0653
16061TIP3    H269675   5.017   2.900  15.752  1.4426 -0.0396 -0.7475
16062TIP3   OH269676   4.588   4.559  12.609  0.2768 -0.3467 -0.3883
16062TIP3    H169677   4.614   4.650  12.623  1.5180 -0.5085 -1.5103
16062TIP3    H269678   4.604   4.517  12.693 -0.1091  0.4277  0.0816
16063TIP3   OH269679   3.990   0.008  13.978 -0.2041  0.0720 -0.0038
16063TIP3    H169680   3.895   0.005  13.986 -0.1668  0.1716  0.4691
16063TIP3    H269681   4.014   0.095  14.010  0.0607 -0.0022 -0.0026
16064TIP3   OH269682   1.917   4.732   1.163 -0.3689 -0.2310 -0.3806
16064TIP3    H169683   1.838   4.713   1.213 -0.3623 -1.3116 -0.7792
16064TIP3    H269684   1.963   4.649   1.157  0.5780  0.2928 -0.5513
16065TIP3   OH269685   1.470   3.223   6.550  0.0844 -0.3739  0.9042
16065TIP3    H169686   1.408   3.295   6.532  0.3831  0.2839  2.4342
16065TIP3    H269687   1.548   3.267   6.583  0.6488 -1.3441  0.8649
16066TIP3   OH269688   4.666   1.262  16.994 -0.2974 -0.0716  0.4661
16066TIP3    H169689   4.709   1.189  16.949 -1.9215 -2.1412  2.2175
16066TIP3    H269690   4.581   1.271  16.951 -0.0480  0.9168  0.1555
16067TIP3   OH269691   4.231   6.319   0.392  0.5532  0.1607 -0.6203
16067TIP3    H169692   4.247   6.292   0.483 -0.9769  0.0778 -0.3747
16067TIP3    H269693   4.136   6.328   0.386  0.8509  3.4542 -1.2511
16068TIP3   OH269694   4.491   3.854  11.351 -0.1252 -0.0142 -0.1444
16068TIP3    H169695   4.484   3.782  11.414 -1.1443  0.0805 -0.1515
16068TIP3    H269696   4.440   3.825  11.276  2.9590 -1.1249 -1.8902
16069TIP3   OH269697   0.804   0.882  14.526  0.0566 -0.3694 -0.3637
16069TIP3    H169698   0.753   0.945  14.476 -0.4560 -0.1232  0.4683
16069TIP3    H269699   0.895   0.909  14.513 -0.2126  1.2764  0.9581
16070TIP3   OH269700   1.310   6.273  14.192  0.1109 -0.2860 -0.3956
16070TIP3    H169701   1.356   6.214  14.132  1.8092  0.7391 -0.1093
16070TIP3    H269702   1.266   6.336  14.134 -0.8260 -1.1559 -0.6584
16071TIP3   OH269703   2.287   1.384  17.282 -0.2244  0.5600 -0.6040
16071TIP3    H169704   2.211   1.408  17.228 -2.5492 -0.6543  2.0077
16071TIP3    H269705   2.303   1.460  17.337 -0.9496  0.0447  0.3420
16072TIP3   OH269706   2.184   0.405  15.614  1.0680  0.5746 -0.3873
16072TIP3    H169707   2.134   0.453  15.547 -0.4464 -0.2985  0.0768
16072TIP3    H269708   2.201   0.469  15.682  2.7019  1.4955 -1.6423
16073TIP3   OH269709   6.819   4.069   1.037  0.7986 -0.5037 -0.1725
16073TIP3    H169710   6.832   4.060   0.942 -1.7638 -0.0480 -0.6169
16073TIP3    H269711   6.771   3.990   1.062  0.6773 -0.1916  0.5824
16074TIP3   OH269712   6.633   1.867  12.693 -0.0537  0.1411 -0.3630
16074TIP3    H169713   6.674   1.876  12.779 -0.4618 -1.8184  0.0573
16074TIP3    H269714   6.656   1.948  12.647  2.0771  0.2331  0.7901
16075TIP3   OH269715   4.272   1.617   2.838 -0.5914  0.3679  0.4718
16075TIP3    H169716   4.265   1.702   2.796  0.7539  0.2405 -0.0429
16075TIP3    H269717   4.334   1.568   2.784  0.4810 -0.1002  2.0801
16076TIP3   OH269718   3.033   2.248  16.800  0.2850 -1.1294 -0.1296
16076TIP3    H169719   3.047   2.272  16.709  1.1019  0.9447  0.5120
16076TIP3    H269720   2.968   2.310  16.832  1.7833 -0.2482  1.3200
16077TIP3   OH269721   1.074   5.978   2.994 -0.1271 -0.4094 -0.3538
16077TIP3    H169722   1.051   6.057   3.043 -1.4917 -1.9042  1.4875
16077TIP3    H269723   0.998   5.962   2.937 -1.3529 -2.2149  1.6941
16078TIP3   OH269724   3.524   6.503  12.817 -0.1572 -0.1409  0.0466
16078TIP3    H169725   3.509   6.593  12.790  0.6083  0.1359  0.5000
16078TIP3    H269726   3.458   6.451  12.771 -1.8199  0.8846  1.2562
16079TIP3   OH269727   4.017   0.990  17.285  0.1953  0.0281  0.7049
16079TIP3    H169728   4.052   1.038  17.210 -0.4527 -0.5012  0.0562
16079TIP3    H269729   4.094   0.965  17.335  0.5943  0.9439  0.5620
16080TIP3   OH269730   5.788   5.936  15.751 -0.4626  0.2802  0.4017
16080TIP3    H169731   5.777   5.977  15.665 -1.4734  1.6899  1.1755
16080TIP3    H269732   5.836   6.001  15.802  2.0212 -1.4089  0.3138
16081TIP3   OH269733   4.144   6.653  13.311 -0.3096 -0.0728  0.2849
16081TIP3    H169734   4.177   6.711  13.242  0.2309 -2.3036 -1.4011
16081TIP3    H269735   4.172   6.694  13.393  2.5570  0.5886 -0.9632
16082TIP3   OH269736   1.790   2.806   4.949  0.4407 -0.3494  0.0324
16082TIP3    H169737   1.867   2.862   4.937  0.4029 -0.3089 -0.0200
16082TIP3    H269738   1.742   2.847   5.022  0.4956 -0.4038  0.0990
16083TIP3   OH269739   5.784   5.916  16.123  0.4289  0.2594 -0.3683
16083TIP3    H169740   5.706   5.883  16.167  0.9859 -0.5159  0.0499
16083TIP3    H269741   5.756   5.998  16.083 -1.2708 -1.2200 -2.3180
16084TIP3   OH269742   5.881   0.854  16.748 -0.6087  0.1338  0.3838
16084TIP3    H169743   5.820   0.782  16.735 -2.1110  1.5376 -0.6465
16084TIP3    H269744   5.850   0.897  16.828  0.7641 -0.8090  1.4443
16085TIP3   OH269745   0.458   3.623  14.340 -0.0529 -0.5232  0.1609
16085TIP3    H169746   0.397   3.682  14.295  0.1764  0.4220  1.0688
16085TIP3    H269747   0.419   3.607  14.425  1.6795  1.3420  1.3554
16086TIP3   OH269748   3.561   0.685  15.533 -0.3048  0.1228 -0.4111
16086TIP3    H169749   3.501   0.613  15.516 -0.0811  0.3137 -2.1032
16086TIP3    H269750   3.547   0.746  15.461  0.7102  0.9814  0.0926
16087TIP3   OH269751   5.147   1.857   0.887 -0.2351 -0.1041 -0.2474
16087TIP3    H169752   5.076   1.849   0.950  1.1566  0.5023  1.4425
16087TIP3    H269753   5.153   1.951   0.871  0.6769 -0.0841  0.2015
16088TIP3   OH269754   0.335   3.298  14.423 -0.5300 -0.4908  0.1859
16088TIP3    H169755   0.350   3.326  14.332  0.3580 -2.1317 -0.1897
16088TIP3    H269756   0.421   3.297  14.463 -0.3926 -3.5681 -0.0957
16089TIP3   OH269757   5.582   2.258  17.254 -0.8070 -0.0135  0.3298
16089TIP3    H169758   5.509   2.260  17.192  1.4350  1.9197 -2.3974
16089TIP3    H269759   5.610   2.167  17.255 -1.5032 -0.2479 -0.7792
16090TIP3   OH269760   2.660   5.921  15.025  0.4488  0.2209  0.1831
16090TIP3    H169761   2.703   5.858  15.083  1.7154  1.2520  0.3917
16090TIP3    H269762   2.671   5.885  14.937 -2.3517 -1.8569  0.6184
16091TIP3   OH269763   2.060   0.424   1.246  0.4709  0.2934 -0.5600
16091TIP3    H169764   2.152   0.411   1.267  0.2137 -1.5055 -0.4718
16091TIP3    H269765   2.013   0.401   1.327 -0.1391 -0.3471 -1.0881
16092TIP3   OH269766   5.408   3.878   5.646  0.3458 -0.0308 -0.2076
16092TIP3    H169767   5.345   3.866   5.717 -0.0843 -1.6671 -0.8360
16092TIP3    H269768   5.488   3.908   5.689 -1.2190  3.3662  0.4587
16093TIP3   OH269769   5.661   1.372  15.269 -0.2552 -0.1801 -0.8469
16093TIP3    H169770   5.734   1.421  15.231 -0.8266 -0.2026 -1.9705
16093TIP3    H269771   5.612   1.340  15.194 -0.7025 -1.2576 -0.0982
16094TIP3   OH269772   2.793   1.945  16.361 -0.8000 -0.3171 -0.3868
16094TIP3    H169773   2.810   1.873  16.421 -0.5400  0.1757  0.1399
16094TIP3    H269774   2.878   1.962  16.319 -0.2981  1.2037  1.1962
16095TIP3   OH269775   5.071   5.251   2.913 -0.9315 -0.5802 -0.0991
16095TIP3    H169776   5.117   5.170   2.888  0.2523 -0.2437  0.9333
16095TIP3    H269777   5.003   5.261   2.847 -0.0065 -1.5237 -1.2169
16096TIP3   OH269778   5.389   3.678   2.921 -0.4743  0.0672 -0.1220
16096TIP3    H169779   5.308   3.709   2.960  0.7285  0.4290  2.1885
16096TIP3    H269780   5.363   3.640   2.837 -2.6374  2.6636 -0.6821
16097TIP3   OH269781   0.710   3.860  12.368 -1.2536 -0.0432 -0.2892
16097TIP3    H169782   0.732   3.855  12.275  1.8447 -1.6890  0.4463
16097TIP3    H269783   0.647   3.790  12.383 -1.8499  0.3106 -1.1833
16098TIP3   OH269784   0.157   3.182  12.398 -0.1365 -0.2398  0.4449
16098TIP3    H169785   0.086   3.207  12.338 -0.0838 -0.6622  0.2060
16098TIP3    H269786   0.220   3.136  12.343  1.1487  1.6373  0.3169
16099TIP3   OH269787   0.346   3.095  15.343  0.3167 -0.5055 -0.3514
16099TIP3    H169788   0.423   3.116  15.291  0.4894 -1.3184 -0.4408
16099TIP3    H269789   0.356   3.001  15.363  0.1687 -0.2535  0.9818
16100TIP3   OH269790   6.209   2.815  16.945  0.3185 -0.3586 -0.2021
16100TIP3    H169791   6.291   2.842  16.904  0.5399 -0.3368  0.2462
16100TIP3    H269792   6.198   2.723  16.921 -0.1902 -0.0098 -1.3377
16101TIP3   OH269793   1.750   1.035   1.207 -1.3248  0.2969  0.1836
16101TIP3    H169794   1.802   1.018   1.128 -0.9859 -0.0425  0.4749
16101TIP3    H269795   1.729   1.128   1.202 -1.0651  0.3387 -0.1704
16102TIP3   OH269796   6.127   6.053   1.586  0.3896 -0.4397 -0.2610
16102TIP3    H169797   6.102   6.082   1.498 -0.6824 -1.7777 -0.4102
16102TIP3    H269798   6.074   6.107   1.645  1.3280  0.6662 -0.4110
16103TIP3   OH269799   0.644   1.740  15.812 -0.3588  0.2854 -0.1565
16103TIP3    H169800   0.572   1.803  15.815 -1.5475 -1.1100  1.3897
16103TIP3    H269801   0.651   1.707  15.902  0.4734 -1.5215 -0.8513
16104TIP3   OH269802   5.296   6.145   0.118 -0.2090 -0.0470  0.2254
16104TIP3    H169803   5.310   6.079   0.050 -0.2310 -0.2936  0.4594
16104TIP3    H269804   5.217   6.191   0.091  0.6675  0.9252 -0.7617
16105TIP3   OH269805   5.555   4.990  12.951  0.2140  0.2648  0.8223
16105TIP3    H169806   5.522   5.070  12.993  1.0468 -0.3728  2.7802
16105TIP3    H269807   5.497   4.921  12.984 -0.6591  0.0622 -1.0582
16106TIP3   OH269808   0.986   6.235   1.012 -0.3499 -0.5621 -0.2226
16106TIP3    H169809   1.033   6.312   1.043  0.7367 -1.5397  0.6047
16106TIP3    H269810   0.929   6.267   0.942 -0.4454  1.1109  0.6123
16107TIP3   OH269811   1.425   0.722  12.203 -0.1764 -0.2144 -0.4207
16107TIP3    H169812   1.453   0.800  12.252 -1.6390 -1.2745  2.2254
16107TIP3    H269813   1.359   0.755  12.142 -1.0666  0.5828  0.9421
16108TIP3   OH269814   1.139   6.264   3.403  0.3081  0.6666  0.1443
16108TIP3    H169815   1.223   6.220   3.389  1.0922  1.7308  1.3997
16108TIP3    H269816   1.079   6.220   3.343  2.1362  1.0196 -2.0240
16109TIP3   OH269817   1.447   4.807   6.204 -0.2753 -0.1649  0.3021
16109TIP3    H169818   1.435   4.869   6.276  0.5620  0.9785 -0.5250
16109TIP3    H269819   1.537   4.776   6.215  0.4933  1.4025 -1.2976
16110TIP3   OH269820   3.604   2.492   2.272 -0.2098 -0.2948  0.1517
16110TIP3    H169821   3.587   2.399   2.287 -2.4112  0.2653  1.3720
16110TIP3    H269822   3.519   2.529   2.250  0.1754  1.8425  1.9902
16111TIP3   OH269823   3.925   1.001   3.892 -0.4518 -0.0756  0.0415
16111TIP3    H169824   3.990   1.045   3.837  0.3057  0.9338  1.7190
16111TIP3    H269825   3.845   1.001   3.839  0.3416  0.6276 -1.1704
16112TIP3   OH269826   3.337   4.333   1.919 -0.9721 -0.6064 -0.2101
16112TIP3    H169827   3.418   4.380   1.899 -1.5190  0.7620  0.7707
16112TIP3    H269828   3.310   4.294   1.835  0.5901 -0.9166 -0.5790
16113TIP3   OH269829   3.756   0.964   1.183 -0.0967 -0.1769 -0.2628
16113TIP3    H169830   3.724   0.946   1.095 -0.4392  0.7906 -0.3485
16113TIP3    H269831   3.852   0.964   1.175 -0.1260  2.9997 -1.3166
16114TIP3   OH269832   4.853   4.115   2.169  0.4267 -0.6547 -0.0167
16114TIP3    H169833   4.871   4.121   2.263  1.3055 -2.1761 -0.0683
16114TIP3    H269834   4.786   4.046   2.163 -1.2558  0.9870 -0.3212
16115TIP3   OH269835   5.655   6.349   3.175  0.5675 -0.1145  0.3745
16115TIP3    H169836   5.720   6.291   3.135  0.7716  0.7840 -0.6141
16115TIP3    H269837   5.630   6.408   3.105 -0.0175  0.6714  1.2440
16116TIP3   OH269838   0.463   4.460  15.547 -0.6654  0.2957 -0.6547
16116TIP3    H169839   0.526   4.434  15.614 -2.1919  0.0694  0.7068
16116TIP3    H269840   0.393   4.395  15.552 -0.0137 -0.7198 -3.6303
16117TIP3   OH269841   4.554   3.048   0.464  0.1841 -0.2071 -0.4105
16117TIP3    H169842   4.538   2.990   0.390  0.4077  0.6230 -1.1139
16117TIP3    H269843   4.466   3.071   0.495  0.0456  1.2062 -1.8065
16118TIP3   OH269844   2.861   5.533  17.019  0.5488 -0.2400  0.4704
16118TIP3    H169845   2.903   5.479  17.086 -0.3398 -0.1634  1.1054
16118TIP3    H269846   2.767   5.517  17.030  0.4223 -0.7183 -1.1856
16119TIP3   OH269847   4.805   3.729  13.784  0.4567 -0.2457  0.8185
16119TIP3    H169848   4.763   3.800  13.735 -2.7494 -1.9518  0.9628
16119TIP3    H269849   4.805   3.759  13.875  1.6793  0.7128  0.5221
16120TIP3   OH269850   1.780   5.605   2.671 -0.3736 -0.2018  0.8103
16120TIP3    H169851   1.803   5.661   2.746  0.2924  0.1903  0.3203
16120TIP3    H269852   1.850   5.539   2.669 -1.2480 -1.1644  1.4911
16121TIP3   OH269853   1.091   1.729  15.598 -0.1637  0.0013  0.2867
16121TIP3    H169854   1.008   1.720  15.645 -0.8760 -0.5594 -1.0480
16121TIP3    H269855   1.067   1.769  15.515  0.6077 -2.0704 -0.9676
16122TIP3   OH269856   0.188   2.292   1.737  0.2786 -0.4561 -0.8676
16122TIP3    H169857   0.193   2.358   1.668 -0.0143 -1.0046 -1.4203
16122TIP3    H269858   0.245   2.222   1.707 -0.5632 -1.0983 -0.9918
16123TIP3   OH269859   0.426   5.893  11.684 -0.2437  1.1250 -0.0710
16123TIP3    H169860   0.439   5.982  11.718 -2.0001  0.7681  1.5448
16123TIP3    H269861   0.445   5.836  11.758 -0.6730  0.2046 -0.6689
16124TIP3   OH269862   5.146   1.793  14.389  1.0118 -0.0622  0.1058
16124TIP3    H169863   5.113   1.778  14.300 -0.5331  0.4838  0.5775
16124TIP3    H269864   5.182   1.708  14.415  2.2036 -0.0210 -1.3271
16125TIP3   OH269865   0.606   4.175   4.758  0.1285  0.4723  0.0614
16125TIP3    H169866   0.535   4.112   4.766 -1.5549  2.0103 -2.1838
16125TIP3    H269867   0.683   4.123   4.735 -0.6305 -1.0087  0.8028
16126TIP3   OH269868   6.401   3.777  14.599  0.4884 -0.3531  0.4098
16126TIP3    H169869   6.430   3.689  14.574 -0.0238 -0.5174  0.3889
16126TIP3    H269870   6.353   3.763  14.681 -0.1496 -0.1781  0.0647
16127TIP3   OH269871   3.162   3.358   0.699 -0.8088  0.1555 -0.1296
16127TIP3    H169872   3.070   3.384   0.703 -0.8962 -0.4114  2.1912
16127TIP3    H269873   3.208   3.428   0.745  0.0805  0.9426 -2.1400
16128TIP3   OH269874   4.322   0.157  16.563  0.0867 -0.3008 -0.1330
16128TIP3    H169875   4.382   0.148  16.489 -1.5135  0.7156 -1.5946
16128TIP3    H269876   4.291   0.247  16.558 -0.4690 -0.3872  1.4476
16129TIP3   OH269877   5.600   5.185  14.537 -0.0329 -0.0024 -0.2705
16129TIP3    H169878   5.577   5.098  14.506  0.1609 -0.0475 -0.2833
16129TIP3    H269879   5.695   5.188  14.536 -0.0231  0.0033  0.2883
16130TIP3   OH269880   3.097   4.085  13.801  0.2109 -0.0948 -0.6421
16130TIP3    H169881   3.031   4.040  13.853  0.4216 -0.4318 -0.6656
16130TIP3    H269882   3.171   4.025  13.799  1.9249  1.8026  2.4938
16131TIP3   OH269883   4.143   2.086   4.236 -0.0923 -0.4111 -0.7339
16131TIP3    H169884   4.075   2.019   4.247 -0.3612  0.1902  1.5527
16131TIP3    H269885   4.095   2.167   4.221 -0.0356  0.4753  3.3928
16132TIP3   OH269886   6.481   4.646  13.171 -0.9054 -0.0794  0.1851
16132TIP3    H169887   6.451   4.557  13.153  1.6335 -0.5344 -2.2011
16132TIP3    H269888   6.422   4.703  13.122 -2.6950 -0.3861  1.9245
16133TIP3   OH269889   4.857   4.954   2.885 -0.0986 -0.8052 -0.1558
16133TIP3    H169890   4.782   4.994   2.929  1.1701 -0.2246  1.5433
16133TIP3    H269891   4.855   4.991   2.796 -0.6772  0.7705  0.4928
16134TIP3   OH269892   6.258   0.091   5.687 -0.5018 -0.7537  0.3451
16134TIP3    H169893   6.270   0.186   5.690  0.2978 -0.7776 -1.4910
16134TIP3    H269894   6.179   0.075   5.738 -0.4214  0.8639  0.9886
16135TIP3   OH269895   0.168   1.115   5.492 -0.2360 -0.1786 -0.4158
16135TIP3    H169896   0.178   1.178   5.564  1.8275 -0.5327 -0.3832
16135TIP3    H269897   0.182   1.167   5.413  0.0100 -0.3180 -0.4610
16136TIP3   OH269898   3.087   0.546   6.255 -0.4302 -0.3468  0.2007
16136TIP3    H169899   3.110   0.460   6.288 -0.8709 -1.3086 -1.9337
16136TIP3    H269900   3.135   0.554   6.172 -2.9859  0.0848 -1.2768
16137TIP3   OH269901   1.585   5.668  17.223 -0.3348  0.7961 -0.0120
16137TIP3    H169902   1.557   5.618  17.299  3.2423 -1.7726 -0.2341
16137TIP3    H269903   1.661   5.718  17.254 -0.1751  1.3977 -1.3432
16138TIP3   OH269904   6.491   5.245  12.600  0.1310  0.7312  0.4854
16138TIP3    H169905   6.451   5.159  12.584 -1.2431  1.3672  0.4349
16138TIP3    H269906   6.583   5.226  12.618 -0.0134 -0.6919 -0.2403
16139TIP3   OH269907   6.480   1.727   5.868 -0.3052 -0.1112  0.2479
16139TIP3    H169908   6.459   1.818   5.846 -1.4183 -0.7172 -1.2963
16139TIP3    H269909   6.466   1.721   5.962 -0.6971  1.1900  0.2783
16140TIP3   OH269910   1.578   5.010   3.305  0.0890  0.6605  0.7997
16140TIP3    H169911   1.491   4.981   3.276  1.7507 -0.9569 -2.8676
16140TIP3    H269912   1.615   4.933   3.349  1.2739 -0.0941 -1.4647
16141TIP3   OH269913   5.047   6.759  16.635 -0.1333 -0.5200 -0.2102
16141TIP3    H169914   5.031   6.805  16.552  0.1725 -2.0044 -1.1047
16141TIP3    H269915   4.974   6.785  16.691 -1.0071 -0.4515 -1.3531
16142TIP3   OH269916   5.965   6.601   6.269 -0.1672 -0.1774 -0.1502
16142TIP3    H169917   5.928   6.556   6.193  0.3252  0.3221 -0.7033
16142TIP3    H269918   5.916   6.683   6.274 -1.1512 -0.8237  0.9312
16143TIP3   OH269919   1.970   4.544  10.739 -0.4564 -0.4129 -0.0523
16143TIP3    H169920   1.906   4.534  10.669 -1.1429  1.2291  0.3098
16143TIP3    H269921   1.919   4.531  10.819 -0.1994  0.1905  0.2136
16144TIP3   OH269922   5.768   2.763   5.858 -0.1631  0.4588 -0.0165
16144TIP3    H169923   5.753   2.742   5.766 -0.9067  0.0134  0.2065
16144TIP3    H269924   5.718   2.843   5.873  0.4442  0.8669 -0.1522
16145TIP3   OH269925   0.470   1.155  14.209 -0.0665 -0.0240  0.3216
16145TIP3    H169926   0.546   1.213  14.217  1.0268 -1.5498  1.2392
16145TIP3    H269927   0.500   1.084  14.153 -1.0389 -0.2991  0.1456
16146TIP3   OH269928   0.437   5.199   0.594  0.1892 -0.1614  0.2152
16146TIP3    H169929   0.505   5.141   0.561  2.4482  1.7221  1.4650
16146TIP3    H269930   0.402   5.154   0.670  0.1938 -1.0114 -0.2787
16147TIP3   OH269931   3.165   1.118   3.829  0.1302 -0.6182  0.3915
16147TIP3    H169932   3.155   1.055   3.758  2.6474 -0.4943 -0.1293
16147TIP3    H269933   3.137   1.201   3.791 -0.0945 -0.8423  0.0642
16148TIP3   OH269934   0.182   3.174  12.946  0.3111 -0.3561  0.0228
16148TIP3    H169935   0.110   3.232  12.921  1.9512  1.9034  0.3356
16148TIP3    H269936   0.261   3.225  12.927  1.7782 -1.7879  2.0479
16149TIP3   OH269937   2.305   1.387  14.547  0.1354 -0.2099 -0.1224
16149TIP3    H169938   2.265   1.450  14.487  0.0849  1.6267  1.7770
16149TIP3    H269939   2.383   1.357  14.501 -0.0434  0.9628 -1.2275
16150TIP3   OH269940   1.012   1.032  13.103  0.0061 -0.2242 -0.5207
16150TIP3    H169941   0.958   1.052  13.027  1.0712 -0.0483 -1.2345
16150TIP3    H269942   1.097   1.008  13.067  0.1619 -1.3557  0.5473
16151TIP3   OH269943   1.399   1.550  13.610 -0.1440  0.1352  0.2675
16151TIP3    H169944   1.310   1.569  13.641 -0.8713 -0.9235 -1.0948
16151TIP3    H269945   1.416   1.617  13.544  0.0236  0.2580  0.4351
16152TIP3   OH269946   1.114   6.453   4.782 -0.0027 -0.2076  0.2577
16152TIP3    H169947   1.171   6.481   4.710  1.4616 -4.0069 -0.1744
16152TIP3    H269948   1.035   6.421   4.739 -0.2374  0.0246  0.5154
16153TIP3   OH269949   6.762   5.813  13.870  0.0662  0.3375 -0.5581
16153TIP3    H169950   6.721   5.818  13.784  0.3659 -1.8742 -0.8609
16153TIP3    H269951   6.856   5.818  13.851  0.1037  0.5797 -0.3019
16154TIP3   OH269952   4.002   3.174   1.787  0.4328  0.2836  0.0227
16154TIP3    H169953   3.959   3.099   1.828  2.3272 -0.4123  0.7513
16154TIP3    H269954   4.095   3.158   1.798  0.9114  1.6193 -1.8415
16155TIP3   OH269955   3.326   6.629  14.533  0.1159  0.1954  0.3831
16155TIP3    H169956   3.257   6.695  14.535 -0.8291 -0.7687  0.3229
16155TIP3    H269957   3.397   6.666  14.584 -0.2907  1.3794  0.0995
16156TIP3   OH269958   6.444   1.668   2.886 -0.6366  0.2037  0.0660
16156TIP3    H169959   6.422   1.575   2.887 -2.5670  0.5588 -2.8768
16156TIP3    H269960   6.494   1.680   2.805  0.8105  1.4970  1.1207
16157TIP3   OH269961   1.062   0.280   2.834 -0.3426 -0.2115  0.6033
16157TIP3    H169962   0.992   0.241   2.782 -0.4539 -0.4972  0.9629
16157TIP3    H269963   1.060   0.373   2.812  0.0274 -0.4353 -0.3794
16158TIP3   OH269964   1.020   2.400   2.826 -0.0233  0.2655  0.4635
16158TIP3    H169965   1.022   2.328   2.763  0.7826 -0.6989  1.5593
16158TIP3    H269966   0.929   2.404   2.855 -1.1745  2.8834 -3.1462
16159TIP3   OH269967   5.625   6.591  12.559  0.2224 -0.2540  0.4040
16159TIP3    H169968   5.576   6.512  12.537  0.2815 -1.0436  2.9969
16159TIP3    H269969   5.585   6.660  12.506 -2.0856 -1.3574  0.6718
16160TIP3   OH269970   1.626   0.219  17.142 -0.1751 -0.0860  0.4491
16160TIP3    H169971   1.614   0.251  17.053 -0.6948  2.2430  1.3063
16160TIP3    H269972   1.721   0.223  17.156 -0.2109  0.9712  0.4734
16161TIP3   OH269973   1.282   3.495  14.195 -0.2696 -0.3934 -0.0955
16161TIP3    H169974   1.287   3.472  14.103  0.7207  0.4260 -0.2585
16161TIP3    H269975   1.358   3.453  14.235  2.1010  3.1770 -0.5628
16162TIP3   OH269976   2.222   3.054  13.788  0.3948 -0.3031 -0.2837
16162TIP3    H169977   2.207   2.960  13.790 -0.9368 -0.1259 -1.3663
16162TIP3    H269978   2.172   3.088  13.863 -0.2450 -0.3122 -0.7031
16163TIP3   OH269979   4.668   1.081  14.635 -0.2318  0.3067 -0.4606
16163TIP3    H169980   4.615   1.003  14.619 -1.2458  1.4062 -2.5100
16163TIP3    H269981   4.728   1.054  14.705 -1.5674 -1.8322 -0.0929
16164TIP3   OH269982   1.956   2.547   6.031  0.7468  0.2564 -0.5159
16164TIP3    H169983   2.030   2.597   5.996  2.5311 -1.1216  1.2023
16164TIP3    H269984   1.953   2.468   5.977 -2.5328  2.3693 -3.7145
16165TIP3   OH269985   5.413   4.874   4.761 -0.2068 -0.0285  0.5393
16165TIP3    H169986   5.425   4.852   4.853  1.3845 -0.5960  0.2038
16165TIP3    H269987   5.498   4.858   4.720 -1.1436 -0.6817 -1.2167
16166TIP3   OH269988   6.586   1.343   5.828  0.1966 -0.4670  0.1394
16166TIP3    H169989   6.529   1.385   5.764 -0.1463  0.1510  0.8459
16166TIP3    H269990   6.630   1.273   5.779 -0.8862 -0.7048 -0.4967
16167TIP3   OH269991   5.250   5.016   4.152  0.4402  0.0545 -0.5251
16167TIP3    H169992   5.276   5.077   4.221  0.4166  1.1203 -1.4412
16167TIP3    H269993   5.222   5.072   4.080  1.2456 -1.0387 -1.7132
16168TIP3   OH269994   2.718   0.798  16.352 -0.0369 -0.3926  0.0163
16168TIP3    H169995   2.668   0.877  16.329 -1.1506 -1.2563 -0.5784
16168TIP3    H269996   2.692   0.779  16.442  0.6823  0.2419  0.3677
16169TIP3   OH269997   0.611   3.675   0.514  0.5560  0.2117  0.1174
16169TIP3    H169998   0.544   3.735   0.548  1.2069  2.1219 -1.8536
16169TIP3    H269999   0.688   3.691   0.569  0.2460 -0.0063  0.6235
16170TIP3   OH270000   0.992   1.531  12.564 -0.2560  0.1072 -0.1676
16170TIP3    H170001   1.050   1.540  12.640 -0.2353  2.3974 -0.4004
16170TIP3    H270002   0.908   1.565  12.594 -1.3260 -2.5230 -0.0551
16171TIP3   OH270003   0.325   5.288  14.967 -0.4638 -0.5822 -0.4527
16171TIP3    H170004   0.245   5.328  15.001  0.1473  0.5358 -0.2922
16171TIP3    H270005   0.296   5.234  14.894 -1.5479 -1.3901  0.5505
16172TIP3   OH270006   0.305   0.479   2.257 -0.0013  0.0379 -0.5260
16172TIP3    H170007   0.300   0.559   2.309 -0.1357 -0.8198  0.8108
16172TIP3    H270008   0.275   0.505   2.170  3.6938  2.3416 -1.2119
16173TIP3   OH270009   0.211   4.240   2.151  0.4773 -0.5047  0.1834
16173TIP3    H170010   0.276   4.207   2.213  1.4661  0.2988 -0.4011
16173TIP3    H270011   0.127   4.220   2.191  1.0344 -3.2867  0.1021
16174TIP3   OH270012   4.617   0.662   4.703  0.5629 -0.1699  0.4630
16174TIP3    H170013   4.597   0.708   4.784  1.2737 -1.7571  1.5809
16174TIP3    H270014   4.563   0.583   4.706 -0.6313  0.5188 -1.4090
16175TIP3   OH270015   5.881   3.536   0.040 -0.0819  0.7066 -0.8419
16175TIP3    H170016   5.865   3.514  -0.052  1.4191  0.7510 -1.1407
16175TIP3    H270017   5.963   3.490   0.060 -0.7766  0.1302  0.6816
16176TIP3   OH270018   3.960   3.865   2.163  0.4191  0.0223  0.4108
16176TIP3    H170019   3.896   3.934   2.181  2.3104  1.5409  1.4874
16176TIP3    H270020   3.942   3.798   2.229 -0.2220  0.3185  0.5438
16177TIP3   OH270021   0.511   5.741   1.679 -0.5816 -0.7915 -0.1486
16177TIP3    H170022   0.568   5.812   1.649 -0.9536 -0.4480 -0.0478
16177TIP3    H270023   0.428   5.758   1.635 -0.5987 -1.3037 -0.3127
16178TIP3   OH270024   2.889   6.245  16.549  0.3485 -0.3149 -0.3094
16178TIP3    H170025   2.796   6.254  16.527  0.4132 -0.8881 -0.8276
16178TIP3    H270026   2.931   6.223  16.466  0.6311 -2.2375  0.3021
16179TIP3   OH270027   0.538   6.778  12.589  0.0961  0.6998  0.1600
16179TIP3    H170028   0.612   6.824  12.552  2.7283 -1.6278  2.2930
16179TIP3    H270029   0.498   6.841  12.649  0.9521  1.6578 -0.2642
16180TIP3   OH270030   0.472   5.482   3.316  0.7075  0.5463 -0.5922
16180TIP3    H170031   0.524   5.517   3.244  1.0680  2.8835  0.7259
16180TIP3    H270032   0.534   5.430   3.368  0.8825  0.3717 -0.9768
16181TIP3   OH270033   3.353   1.037  10.945  0.2313 -0.2629 -0.2172
16181TIP3    H170034   3.316   1.023  11.033  1.2222  0.8679  0.4036
16181TIP3    H270035   3.297   1.104  10.906  1.5373  1.4651  0.7301
16182TIP3   OH270036   1.180   3.699  16.025 -0.0478  1.1729 -0.2621
16182TIP3    H170037   1.092   3.665  16.010 -0.2380  0.9461  1.2932
16182TIP3    H270038   1.166   3.784  16.068  0.4831  1.2366 -0.2107
16183TIP3   OH270039   0.615   0.882   5.122 -0.2663 -0.1435 -0.0050
16183TIP3    H170040   0.588   0.810   5.065  0.0225  0.0677 -0.4192
16183TIP3    H270041   0.620   0.844   5.209 -0.6035 -0.5024 -0.1407
16184TIP3   OH270042   2.025   0.095  15.253  0.4516  0.4240 -0.0759
16184TIP3    H170043   2.033   0.155  15.180  0.8246 -0.4069 -0.7278
16184TIP3    H270044   2.016   0.008  15.213 -1.6592  0.2044  0.8067
16185TIP3   OH270045   0.220   1.364   2.993 -0.0295  0.0020 -0.7548
16185TIP3    H170046   0.239   1.285   3.045  0.8401 -0.7219 -2.1583
16185TIP3    H270047   0.131   1.388   3.018  0.6151  0.1024  1.6330
16186TIP3   OH270048   6.102   0.306  14.233  0.4737 -0.3373 -0.0039
16186TIP3    H170049   6.047   0.325  14.158  1.8089 -0.8553 -1.1401
16186TIP3    H270050   6.066   0.225  14.269  0.1543 -0.3762 -0.4133
16187TIP3   OH270051   1.344   0.979   6.800  0.2109  0.0245  0.1029
16187TIP3    H170052   1.283   0.933   6.743 -0.3990  2.2765 -1.0944
16187TIP3    H270053   1.346   0.926   6.880 -3.4231 -0.0043  0.2449
16188TIP3   OH270054   3.646   0.510  14.959 -0.6494 -0.4636 -0.2819
16188TIP3    H170055   3.691   0.564  14.893 -0.5174 -1.1808 -0.7813
16188TIP3    H270056   3.650   0.562  15.039 -0.7312  0.3793 -0.8195
16189TIP3   OH270057   1.918   5.910  14.965  0.5542  0.6055  0.3411
16189TIP3    H170058   1.877   5.993  14.939 -0.5745 -0.1061 -0.2089
16189TIP3    H270059   1.903   5.852  14.891  1.2971 -0.1082  0.7474
16190TIP3   OH270060   1.154   4.054  13.118 -0.1300  0.2118  0.1412
16190TIP3    H170061   1.143   4.084  13.028  2.0353  1.0791  0.1287
16190TIP3    H270062   1.225   3.989  13.114 -0.6326 -0.4209  1.0884
16191TIP3   OH270063   6.686   2.618  11.909 -0.7321  0.1022 -0.4946
16191TIP3    H170064   6.653   2.623  11.820 -0.7035 -1.4018 -0.6017
16191TIP3    H270065   6.732   2.535  11.913  1.9065  1.5421  0.0457
16192TIP3   OH270066   0.679   2.372  17.020 -0.1483  0.6503 -0.6812
16192TIP3    H170067   0.615   2.385  16.949 -1.3310 -1.7873 -0.1303
16192TIP3    H270068   0.747   2.436  17.003 -1.5548  1.6652 -2.7110
16193TIP3   OH270069   3.128   2.952  13.648  0.2689  0.2953  0.5705
16193TIP3    H170070   3.143   2.895  13.723  0.0922 -0.8468 -0.2496
16193TIP3    H270071   3.210   3.000  13.638 -0.4325  2.0469  2.8111
16194TIP3   OH270072   1.276   4.209  14.169  0.0103  0.1221  0.1144
16194TIP3    H170073   1.207   4.270  14.142  0.6128  0.6914 -0.1618
16194TIP3    H270074   1.337   4.263  14.220  0.7156 -0.1686 -0.4105
16195TIP3   OH270075   3.737   0.588  15.714  0.0405 -0.2727  0.0248
16195TIP3    H170076   3.768   0.675  15.740  0.2183  0.4675 -2.5567
16195TIP3    H270077   3.664   0.605  15.654 -1.3970 -1.9385  1.2403
16196TIP3   OH270078   0.877   3.135  11.855  0.8183  0.1300 -0.6817
16196TIP3    H170079   0.856   3.211  11.800  1.2306 -1.1877 -2.7393
16196TIP3    H270080   0.812   3.069  11.830  0.4753 -0.2060  1.0769
16197TIP3   OH270081   0.914   3.213   2.486 -0.2215 -0.5021  0.3000
16197TIP3    H170082   0.891   3.207   2.579 -0.3608  0.3299  0.3213
16197TIP3    H270083   0.896   3.304   2.462  0.9662 -0.3948 -0.2343
16198TIP3   OH270084   6.643   5.837  16.011  0.0550  0.0636 -0.2662
16198TIP3    H170085   6.706   5.772  16.042 -0.4497  0.1302  0.9177
16198TIP3    H270086   6.574   5.785  15.969  0.6509 -0.0352 -1.1420
16199TIP3   OH270087   4.686   1.499  14.094  0.3717 -0.1923  0.2544
16199TIP3    H170088   4.733   1.582  14.096 -0.6222  0.6315 -3.9792
16199TIP3    H270089   4.689   1.473  14.002 -3.2311 -2.5285  0.6881
16200TIP3   OH270090   4.743   1.081  13.732 -0.1585  0.1263 -0.3215
16200TIP3    H170091   4.681   1.094  13.804  0.1137 -0.1845 -0.0308
16200TIP3    H270092   4.690   1.090  13.653 -1.1947 -3.0919 -0.0577
16201TIP3   OH270093   4.211   4.310  12.078 -0.0019  0.9007  0.3762
16201TIP3    H170094   4.219   4.302  11.983  2.2490  2.6959  0.3546
16201TIP3    H270095   4.271   4.245  12.113 -0.5995  0.4548  0.5899
16202TIP3   OH270096   6.171   0.540   4.826  0.4726 -0.2189  0.4211
16202TIP3    H170097   6.175   0.482   4.902 -1.2517 -0.2900  0.4777
16202TIP3    H270098   6.127   0.619   4.858 -0.6043 -0.3928 -0.5659
16203TIP3   OH270099   6.399   3.131   3.372 -0.9291 -0.2875  0.4605
16203TIP3    H170100   6.433   3.171   3.453  0.5308  0.0312 -0.2983
16203TIP3    H270101   6.468   3.146   3.307 -1.0521 -2.6459 -0.2546
16204TIP3   OH270102   1.142   1.527   2.682  0.3120  0.0622 -0.2387
16204TIP3    H170103   1.079   1.599   2.676  0.8269  0.5259 -0.0522
16204TIP3    H270104   1.113   1.464   2.616 -0.7952 -0.0687  0.3575
16205TIP3   OH270105   1.048   3.499   5.394 -0.0879 -0.3894  0.1474
16205TIP3    H170106   1.035   3.464   5.306 -0.5617  0.1828 -0.0167
16205TIP3    H270107   0.960   3.522   5.424 -0.0110 -1.2896  1.0757
16206TIP3   OH270108   4.610   3.293  16.219  0.0191  0.2132  0.3247
16206TIP3    H170109   4.660   3.212  16.211 -0.9700 -0.2470 -1.5134
16206TIP3    H270110   4.674   3.358  16.248  1.4432 -0.6315 -0.8510
16207TIP3   OH270111   4.354   4.627   4.988 -0.1173 -0.2214 -0.1194
16207TIP3    H170112   4.333   4.679   4.910 -1.0382 -0.7565 -0.2370
16207TIP3    H270113   4.302   4.548   4.978  0.2555 -0.5732  0.7279
16208TIP3   OH270114   5.470   5.763   4.750  0.3279 -0.1113 -0.3222
16208TIP3    H170115   5.428   5.729   4.829 -1.1668 -2.7154 -2.1811
16208TIP3    H270116   5.443   5.855   4.746 -2.3435 -0.8240  0.4192
16209TIP3   OH270117   5.109   0.161   4.425 -0.1002  0.4847  0.3859
16209TIP3    H170118   5.108   0.256   4.414 -0.9678  0.5335  0.8951
16209TIP3    H270119   5.039   0.142   4.487  0.4451 -0.4393  0.7406
16210TIP3   OH270120   2.408   5.753  13.885 -0.0377  0.4376 -0.4170
16210TIP3    H170121   2.393   5.768  13.978  0.1106  0.2368 -0.3589
16210TIP3    H270122   2.500   5.726  13.879 -0.2191 -0.1772 -0.5431
16211TIP3   OH270123   2.471   6.017  14.244 -0.2735 -0.0022 -0.1484
16211TIP3    H170124   2.498   6.035  14.334 -1.8041  0.1090  0.3147
16211TIP3    H270125   2.535   5.953  14.211  0.5468  0.2899  0.8703
16212TIP3   OH270126   0.049   3.426   1.014  0.3419 -0.4268  0.6624
16212TIP3    H170127   0.007   3.461   0.936 -1.2921 -2.9145  0.3638
16212TIP3    H270128   0.071   3.503   1.066  3.1881  1.4212 -3.0390
16213TIP3   OH270129   3.910   2.346   3.805  0.3730 -0.4358 -0.1819
16213TIP3    H170130   3.988   2.399   3.789  2.0538 -2.9724 -0.6330
16213TIP3    H270131   3.862   2.347   3.722  0.9087 -0.4793 -0.4898
16214TIP3   OH270132   4.632   0.634  15.447 -0.8844 -0.5551  0.6141
16214TIP3    H170133   4.574   0.679  15.509 -2.1437 -1.6417  0.2308
16214TIP3    H270134   4.596   0.655  15.361 -0.3451 -0.7460  0.3406
16215TIP3   OH270135   5.385   4.807   3.316 -0.1021  0.9762  0.0587
16215TIP3    H170136   5.447   4.778   3.383  0.2585  1.4469 -0.0684
16215TIP3    H270137   5.427   4.785   3.233 -0.4698  0.5545 -0.0178
16216TIP3   OH270138   3.663   2.671   4.660 -0.0831  0.2881  0.8629
16216TIP3    H170139   3.759   2.665   4.662  0.0142  1.2555 -0.2579
16216TIP3    H270140   3.633   2.580   4.662  0.8427 -0.0020  1.8480
16217TIP3   OH270141   6.212   0.124   0.294 -0.1852 -0.0007 -0.0941
16217TIP3    H170142   6.146   0.135   0.226  0.4194 -1.1328 -0.8719
16217TIP3    H270143   6.162   0.098   0.372 -0.8477  1.0334 -0.1774
16218TIP3   OH270144   4.626   3.475   3.314  0.1710 -0.4741 -0.0097
16218TIP3    H170145   4.634   3.524   3.396  0.0029 -2.6416  1.3470
16218TIP3    H270146   4.690   3.404   3.322  1.7204  0.5108 -2.7177
16219TIP3   OH270147   2.672   5.490  12.106 -0.2515 -0.6041  0.5999
16219TIP3    H170148   2.726   5.418  12.074 -0.9593 -0.5077 -0.8439
16219TIP3    H270149   2.734   5.562  12.119  0.5295 -1.5743  2.4727
16220TIP3   OH270150   4.860   6.246  15.410  0.3914  0.3305  0.0425
16220TIP3    H170151   4.919   6.219  15.339  1.6062 -0.5090  1.3354
16220TIP3    H270152   4.842   6.166  15.458 -1.4150  0.6831 -0.0141
16221TIP3   OH270153   2.741   0.609  11.627  0.1208 -0.5316 -0.0243
16221TIP3    H170154   2.756   0.686  11.572 -0.2289 -0.5681 -0.1743
16221TIP3    H270155   2.703   0.544  11.567  0.9208 -1.0120 -0.0250
16222TIP3   OH270156   4.702   5.596   2.642  0.5339 -0.4845 -0.4025
16222TIP3    H170157   4.607   5.598   2.629  0.3086 -0.5613  1.0713
16222TIP3    H270158   4.727   5.688   2.651  0.6666 -0.4391 -1.2304
16223TIP3   OH270159   5.345   4.519  13.354 -0.0985  0.0346  0.9904
16223TIP3    H170160   5.253   4.530  13.329 -0.3459 -0.7071  1.5747
16223TIP3    H270161   5.360   4.588  13.419  0.0957  0.9206  0.0253
16224TIP3   OH270162   3.517   0.549   1.642  0.3370  0.2323  0.5922
16224TIP3    H170163   3.525   0.541   1.547 -0.6000 -0.9789  0.5890
16224TIP3    H270164   3.588   0.607   1.668  0.7232  0.4118 -0.8307
16225TIP3   OH270165   4.249   3.992   1.547  0.2320  0.8863 -0.0518
16225TIP3    H170166   4.328   4.038   1.521  0.3434  1.4150  1.1996
16225TIP3    H270167   4.212   4.045   1.618 -1.5467  0.9470 -1.0002
16226TIP3   OH270168   1.826   2.054   0.183 -0.0754 -0.8044 -0.0194
16226TIP3    H170169   1.762   1.983   0.188  1.5759 -2.2830  0.5851
16226TIP3    H270170   1.835   2.086   0.273 -3.1832  2.4050 -0.7182
16227TIP3   OH270171   0.493   5.741   3.372  0.2252 -0.0941  0.2798
16227TIP3    H170172   0.467   5.652   3.349  2.6491 -0.9591  0.7369
16227TIP3    H270173   0.451   5.796   3.306 -1.2373 -1.5742 -0.0550
16228TIP3   OH270174   5.574   5.337   3.170 -0.2460  0.1216 -0.2983
16228TIP3    H170175   5.664   5.341   3.139 -0.2624 -1.0875 -0.5489
16228TIP3    H270176   5.534   5.418   3.138  0.7299  0.6378 -0.2302
16229TIP3   OH270177   4.746   4.918  15.400  0.3355  0.2786 -0.6170
16229TIP3    H170178   4.737   4.835  15.353 -1.6319 -0.2180  0.5617
16229TIP3    H270179   4.822   4.906  15.456 -1.6385 -1.8732  1.7073
16230TIP3   OH270180   1.502   2.449  16.177 -0.0856  0.2781 -0.0619
16230TIP3    H170181   1.460   2.533  16.156  0.2970  0.2053 -1.1840
16230TIP3    H270182   1.466   2.388  16.112 -0.4818 -0.4668  0.8451
16231TIP3   OH270183   6.488   4.493  16.560 -0.1059 -0.0726 -0.2582
16231TIP3    H170184   6.413   4.437  16.543  0.5322 -1.2692  0.7555
16231TIP3    H270185   6.459   4.550  16.631  0.1510 -0.9918  0.5999
16232TIP3   OH270186   1.715   0.061  16.774  0.0858  0.3865 -0.1438
16232TIP3    H170187   1.636   0.010  16.758  0.3080 -0.1174  0.3298
16232TIP3    H270188   1.684   0.141  16.816 -0.0214 -0.6020  1.7209
16233TIP3   OH270189   1.520   3.550  17.093 -0.0784 -0.2276 -0.1673
16233TIP3    H170190   1.466   3.623  17.061 -0.6565 -1.1486 -1.3311
16233TIP3    H270191   1.581   3.533  17.022  0.5199 -0.4183  0.3954
16234TIP3   OH270192   4.047   0.216   5.746  0.1081 -0.5743 -0.5603
16234TIP3    H170193   4.097   0.136   5.761  0.0489 -0.2439  1.4240
16234TIP3    H270194   4.113   0.284   5.734  0.1371 -0.3506  0.8847
16235TIP3   OH270195   4.043   6.402   2.433  0.6283 -0.0274  0.0645
16235TIP3    H170196   3.978   6.430   2.367 -0.9545 -1.0108  1.1712
16235TIP3    H270197   3.992   6.394   2.514  2.7312  2.0315  1.6455
16236TIP3   OH270198   0.950   2.249   1.837  0.0795  0.6789 -0.3088
16236TIP3    H170199   0.884   2.243   1.907  0.2916  1.7556 -0.0133
16236TIP3    H270200   1.034   2.244   1.883  0.2181  1.3039 -0.4897
16237TIP3   OH270201   2.129   4.368  14.857 -0.6266  0.2040 -0.1529
16237TIP3    H170202   2.083   4.309  14.917 -0.4837 -0.9546 -1.1796
16237TIP3    H270203   2.212   4.325  14.840  2.1080  3.5018  3.7815
16238TIP3   OH270204   5.559   4.411   1.730  0.4482  0.0505 -0.1956
16238TIP3    H170205   5.533   4.416   1.822  1.4237 -1.2473  0.1712
16238TIP3    H270206   5.591   4.499   1.709 -1.1876  0.7800  0.2476
16239TIP3   OH270207   3.530   1.841  12.928 -0.5143  0.6818  0.0051
16239TIP3    H170208   3.579   1.921  12.907  1.0667 -0.1775  0.3167
16239TIP3    H270209   3.460   1.839  12.863  0.5104  1.3798 -1.1647
16240TIP3   OH270210   5.270   3.217  15.249 -0.0657 -0.4226 -0.1479
16240TIP3    H170211   5.178   3.191  15.247 -0.7473  1.7062  1.2882
16240TIP3    H270212   5.318   3.135  15.258 -1.7750 -1.6140 -1.4806
16241TIP3   OH270213   3.071   5.812   0.924  0.4227 -0.2127 -0.1324
16241TIP3    H170214   3.085   5.890   0.978  2.4134  1.0434 -2.3894
16241TIP3    H270215   2.990   5.830   0.876  0.0117 -0.2409  0.5458
16242TIP3   OH270216   5.800   1.865  11.752  0.3288 -0.0459  0.0946
16242TIP3    H170217   5.849   1.885  11.673  0.7301  1.6714  0.7491
16242TIP3    H270218   5.713   1.841  11.721 -0.1904  2.7384 -0.8033
16243TIP3   OH270219   4.940   4.291   2.752  0.7359 -0.1163 -0.2389
16243TIP3    H170220   4.911   4.238   2.678 -1.8955  0.5331  0.2784
16243TIP3    H270221   4.921   4.237   2.829 -0.5471  0.9533  0.2009
16244TIP3   OH270222   6.395   1.421   2.959 -0.2642  0.6363 -0.7309
16244TIP3    H170223   6.467   1.374   2.917  0.7832  0.8716  0.7823
16244TIP3    H270224   6.316   1.374   2.931  0.6718 -1.2180 -0.3181
16245TIP3   OH270225   1.309   4.971  17.135  0.0800 -0.6137  0.1158
16245TIP3    H170226   1.301   4.963  17.040  1.6367 -0.2507 -0.0517
16245TIP3    H270227   1.218   4.971  17.166 -0.4761  0.2766 -1.4348
16246TIP3   OH270228   2.889   5.985   6.568 -0.2894  0.7160 -0.1837
16246TIP3    H170229   2.983   5.982   6.588 -0.1775  0.5785 -0.7182
16246TIP3    H270230   2.852   5.912   6.619 -0.1299  0.8496  0.1282
16247TIP3   OH270231   5.381   6.634   0.084  0.0494 -0.1362 -0.7615
16247TIP3    H170232   5.310   6.672   0.032 -1.9824 -2.1629  0.4402
16247TIP3    H270233   5.398   6.698   0.153 -0.0023  0.7336 -1.5438
16248TIP3   OH270234   5.099   4.669   1.863  0.5934 -0.1793 -0.1397
16248TIP3    H170235   5.020   4.616   1.857 -0.0798  0.8373 -0.4924
16248TIP3    H270236   5.167   4.609   1.895 -0.1640 -1.2120 -0.4555
16249TIP3   OH270237   3.441   5.760   5.602  0.2804  0.5405 -0.3317
16249TIP3    H170238   3.403   5.712   5.528  1.6265 -1.7493  0.4088
16249TIP3    H270239   3.482   5.836   5.562  0.8892 -0.5991 -1.9388
16250TIP3   OH270240   5.926   2.017  17.029  0.3321 -0.1962  0.5258
16250TIP3    H170241   5.940   2.018  17.124 -0.2599  0.6843  0.6070
16250TIP3    H270242   5.957   1.930  17.001 -1.1587 -1.1533  1.7794
16251TIP3   OH270243   2.271   6.595  17.187 -0.6620  0.0678  0.4010
16251TIP3    H170244   2.309   6.565  17.270 -0.2772  0.8120  0.5001
16251TIP3    H270245   2.203   6.530  17.167 -0.1877 -0.5770  0.8683
16252TIP3   OH270246   1.233   5.817   1.019  0.0463 -0.4899  0.1857
16252TIP3    H170247   1.327   5.821   0.999  0.1593 -0.8916  0.6326
16252TIP3    H270248   1.196   5.893   0.974  0.7518  0.2758  0.8665
16253TIP3   OH270249   1.616   3.035   5.047 -0.4920 -0.0242 -0.3945
16253TIP3    H170250   1.709   3.050   5.029 -0.8302  1.1290 -1.2769
16253TIP3    H270251   1.610   3.037   5.143  0.1031  1.8735 -0.3659
16254TIP3   OH270252   4.643   0.020  15.180  0.0768  0.0293  0.4358
16254TIP3    H170253   4.588  -0.039  15.232  0.6277 -0.7127  0.1896
16254TIP3    H270254   4.733  -0.002  15.206  0.2189  2.2963  1.9772
16255TIP3   OH270255   1.461   6.732   1.346  0.0601  0.2570  0.0714
16255TIP3    H170256   1.491   6.645   1.321 -0.4240  0.3582 -0.9178
16255TIP3    H270257   1.517   6.757   1.419 -0.0054 -1.0140  0.5787
16256TIP3   OH270258   3.715   4.872  13.603  0.2765  0.2852  0.2268
16256TIP3    H170259   3.676   4.953  13.636  0.6366  0.9990 -1.0684
16256TIP3    H270260   3.725   4.886  13.509  1.6334 -0.7206  0.1941
16257TIP3   OH270261   0.269   0.777   5.297  0.3316  0.0592 -0.6462
16257TIP3    H170262   0.327   0.836   5.344 -0.3350 -1.5239  2.3058
16257TIP3    H270263   0.325   0.704   5.271 -0.0601 -0.9057  1.1583
16258TIP3   OH270264   4.332   2.665   4.373  0.4203 -0.2583  0.8104
16258TIP3    H170265   4.326   2.720   4.295 -0.8551 -1.5101 -0.0059
16258TIP3    H270266   4.314   2.725   4.446 -2.5159  0.1308 -0.1702
16259TIP3   OH270267   3.769   0.821  11.833 -0.0721  0.0037 -0.2138
16259TIP3    H170268   3.689   0.853  11.875  1.0532  2.1397  0.3657
16259TIP3    H270269   3.813   0.900  11.801  2.1872 -1.0679  0.1376
16260TIP3   OH270270   3.645   3.845   4.331 -0.1995  0.2279 -0.1188
16260TIP3    H170271   3.662   3.919   4.273  1.7950  0.7910  1.1373
16260TIP3    H270272   3.731   3.819   4.363 -0.6762 -3.5704 -1.6196
16261TIP3   OH270273   0.411   1.830  13.555 -0.1043 -0.4292  0.2138
16261TIP3    H170274   0.335   1.867  13.600  1.0424  0.1906  1.6715
16261TIP3    H270275   0.427   1.888  13.481 -0.2640  0.1623  0.6466
16262TIP3   OH270276   4.716   4.608   1.595 -0.4039  0.4657  0.0288
16262TIP3    H170277   4.766   4.537   1.554 -1.1176  0.3667 -0.6658
16262TIP3    H270278   4.655   4.564   1.654  0.2065  0.5805  0.7577
16263TIP3   OH270279   4.463   4.491   0.930 -0.1460  0.1241  0.0632
16263TIP3    H170280   4.525   4.532   0.870  1.1228 -0.2585  1.0930
16263TIP3    H270281   4.463   4.398   0.904  0.1140  0.0286  0.4002
16264TIP3   OH270282   1.722   0.070  13.495  0.0615  0.2727  0.0710
16264TIP3    H170283   1.761   0.152  13.526  1.3318  0.1735 -1.2092
16264TIP3    H270284   1.733   0.010  13.569  1.2784  0.5950  0.1715
16265TIP3   OH270285   5.767   6.670  17.112  0.0157  0.3714 -0.2359
16265TIP3    H170286   5.767   6.765  17.122 -2.3920  0.5083 -1.0567
16265TIP3    H270287   5.706   6.639  17.179 -0.1872 -0.4795 -0.8071
16266TIP3   OH270288   0.455   0.149  10.742 -0.1771 -0.3421  0.2342
16266TIP3    H170289   0.417   0.233  10.768  0.8620 -0.1439  1.1731
16266TIP3    H270290   0.383   0.087  10.748 -0.9486  0.4824 -0.4479
16267TIP3   OH270291   6.251   5.235  15.870 -0.0429  0.3822 -0.6826
16267TIP3    H170292   6.177   5.263  15.925 -0.8672 -2.1183 -0.4738
16267TIP3    H270293   6.258   5.141  15.886  3.0553  0.5456 -0.9008
16268TIP3   OH270294   2.300   1.971  17.089 -0.2261  0.5933 -0.3661
16268TIP3    H170295   2.234   2.009  17.030 -0.4525 -0.2658 -0.6881
16268TIP3    H270296   2.361   1.927  17.030  0.6237  1.3676 -0.0604
16269TIP3   OH270297   2.139   1.612  14.416 -0.4231 -0.7019 -0.5896
16269TIP3    H170298   2.070   1.554  14.385  1.2056 -3.0550  0.0415
16269TIP3    H270299   2.101   1.656  14.493 -1.3821 -1.5721 -0.5592
16270TIP3   OH270300   3.645   1.961  15.144 -0.9114 -0.3296 -0.1405
16270TIP3    H170301   3.691   1.903  15.205 -0.7089 -1.2485 -1.1358
16270TIP3    H270302   3.708   2.030  15.125 -1.3456  0.5164  1.4631
16271TIP3   OH270303   1.482   5.838  13.123  0.2250  0.2152  0.2949
16271TIP3    H170304   1.391   5.823  13.149  0.4321  0.3431  1.0810
16271TIP3    H270305   1.476   5.871  13.033 -0.5958  1.9058  0.9664
16272TIP3   OH270306   4.869   1.199   5.357 -0.3405 -0.0752  0.2135
16272TIP3    H170307   4.891   1.108   5.375 -0.7652 -0.3004 -0.4023
16272TIP3    H270308   4.839   1.233   5.441 -2.1943 -1.0895 -0.0118
16273TIP3   OH270309   0.157   0.727   3.481  0.2069  0.5607 -0.3047
16273TIP3    H170310   0.079   0.685   3.444  0.0715 -0.2029  0.8311
16273TIP3    H270311   0.125   0.808   3.520 -0.0987 -0.0020  0.6112
16274TIP3   OH270312   1.253   6.748  12.347  0.5823 -0.0698  0.4794
16274TIP3    H170313   1.246   6.654  12.359 -3.2911  0.1376  0.5436
16274TIP3    H270314   1.236   6.785  12.433 -1.5673  0.7491 -0.2682
16275TIP3   OH270315   0.922   6.637   1.880 -0.0621 -0.3084  0.3679
16275TIP3    H170316   0.941   6.716   1.929  0.5469 -0.9561  1.1812
16275TIP3    H270317   0.827   6.637   1.869 -0.2624 -0.4696  2.0620
16276TIP3   OH270318   0.032   4.011   2.560  0.2819  0.2951 -0.0205
16276TIP3    H170319   0.085   3.935   2.535 -0.0624  0.9323 -2.7657
16276TIP3    H270320  -0.056   3.975   2.572  0.3740  0.0575 -0.0399
16277TIP3   OH270321   3.477   1.020  14.929 -0.4875 -0.0153 -0.0053
16277TIP3    H170322   3.492   1.058  14.842 -0.3695 -0.2199 -0.0726
16277TIP3    H270323   3.542   0.951  14.937  0.3805  0.8787  0.7815
16278TIP3   OH270324   6.699   3.000  11.388  0.1293  0.0314  0.0643
16278TIP3    H170325   6.639   3.014  11.314  0.7512 -0.8731 -0.6101
16278TIP3    H270326   6.733   2.912  11.375  1.7229  0.5959  0.3683
16279TIP3   OH270327   0.034   6.698   1.226  0.6502  0.4656  0.1026
16279TIP3    H170328  -0.060   6.694   1.210  0.8946 -0.8828 -1.1735
16279TIP3    H270329   0.060   6.606   1.236  1.6953  0.8810  1.2584
16280TIP3   OH270330   0.584   3.171   2.321 -0.3419  0.1988  0.2304
16280TIP3    H170331   0.545   3.206   2.241  0.3378 -1.2571 -0.7562
16280TIP3    H270332   0.573   3.241   2.386 -2.5198  0.6845 -0.6397
16281TIP3   OH270333   2.635   5.377  16.364  0.0502 -0.0801 -0.0606
16281TIP3    H170334   2.693   5.329  16.423  0.8276  0.9527  0.0166
16281TIP3    H270335   2.691   5.400  16.289  0.2408  2.5074  0.8289
16282TIP3   OH270336   4.165   3.311   0.642  0.0547 -0.4532  0.3729
16282TIP3    H170337   4.194   3.286   0.729  1.3405 -0.4383 -0.0379
16282TIP3    H270338   4.122   3.232   0.607 -1.1124 -0.2291  1.2813
16283TIP3   OH270339   0.611   2.374  12.962  0.2074  0.5642 -0.3206
16283TIP3    H170340   0.640   2.393  13.052  1.1076  3.4345 -1.1574
16283TIP3    H270341   0.678   2.413  12.907 -0.4333 -1.0341 -2.2847
16284TIP3   OH270342   5.146   6.089  12.926  0.0030  0.0912  0.0513
16284TIP3    H170343   5.127   6.181  12.910 -1.6951 -0.6674 -2.6322
16284TIP3    H270344   5.060   6.048  12.936  0.7531 -1.1696  1.4908
16285TIP3   OH270345   5.190   0.250   2.405  0.0987  0.2308  0.8899
16285TIP3    H170346   5.180   0.162   2.370 -0.8122  1.3145 -1.7007
16285TIP3    H270347   5.283   0.258   2.426  0.2312 -1.2350  0.9063
16286TIP3   OH270348   4.499   0.517  14.540  0.2220 -0.9377 -0.0913
16286TIP3    H170349   4.442   0.449  14.504 -0.5628 -1.0998  1.4088
16286TIP3    H270350   4.464   0.599  14.505  0.6668 -1.2357 -1.2467
16287TIP3   OH270351   6.790   2.059   3.438  0.2474 -0.4378 -0.6407
16287TIP3    H170352   6.791   2.117   3.515  2.2434 -0.6395 -0.5038
16287TIP3    H270353   6.778   1.972   3.474 -0.9815 -0.3117 -0.7236
16288TIP3   OH270354   5.475   0.561  16.224 -0.4427  0.0674  0.4105
16288TIP3    H170355   5.437   0.538  16.139 -0.0820  0.2496  0.1994
16288TIP3    H270356   5.550   0.616  16.202 -1.4357  1.6348  0.9153
16289TIP3   OH270357   3.668   5.817  13.529 -0.3400 -0.4624 -0.3493
16289TIP3    H170358   3.584   5.772  13.521 -1.2211  0.9181  1.0941
16289TIP3    H270359   3.709   5.805  13.443 -2.3473 -0.4380 -1.3435
16290TIP3   OH270360   0.342   5.310  11.767 -0.7256 -0.2456  0.2186
16290TIP3    H170361   0.389   5.282  11.846 -1.1522  0.7568  0.8359
16290TIP3    H270362   0.304   5.395  11.790  0.8774  1.0490 -1.7776
16291TIP3   OH270363   4.542   6.073  14.837 -0.1852 -0.2955 -0.0344
16291TIP3    H170364   4.497   6.095  14.919 -0.0463  2.3645 -0.6296
16291TIP3    H270365   4.481   6.102  14.769 -0.4917 -2.9024 -0.9015
16292TIP3   OH270366   5.957   5.587  12.258  0.0606 -0.3978  0.0317
16292TIP3    H170367   5.989   5.515  12.204  2.2605 -1.6056  2.8430
16292TIP3    H270368   5.992   5.666  12.216  1.3581 -1.2811 -0.5853
16293TIP3   OH270369   5.926   4.547  11.993 -0.3214 -0.1237  0.0304
16293TIP3    H170370   5.888   4.606  12.058  0.0022 -0.3854  0.4607
16293TIP3    H270371   6.021   4.563  12.000 -0.3695  0.8672 -1.3557
16294TIP3   OH270372   5.611   2.551  14.238  0.1601  0.7579 -0.1132
16294TIP3    H170373   5.535   2.552  14.296  1.4055 -0.2005  1.5534
16294TIP3    H270374   5.583   2.499  14.163 -0.6138 -0.1395  0.7910
16295TIP3   OH270375   0.750   4.584  13.758 -0.1482 -0.1294  0.0106
16295TIP3    H170376   0.716   4.652  13.699 -1.5357 -0.6720  0.1735
16295TIP3    H270377   0.762   4.629  13.842  1.1840  0.4775 -0.4860
16296TIP3   OH270378   5.292   0.222   5.048  0.5139 -0.0379 -0.7926
16296TIP3    H170379   5.315   0.305   5.089  0.2318  0.7673 -2.2639
16296TIP3    H270380   5.291   0.159   5.121  0.0230  1.3705  0.4394
16297TIP3   OH270381   4.239   2.769  11.710 -0.0835 -0.4592  0.6983
16297TIP3    H170382   4.292   2.722  11.774 -0.4507  0.1809  1.4794
16297TIP3    H270383   4.149   2.752  11.736 -0.2406 -0.4162  0.1881
16298TIP3   OH270384   4.630   3.214  12.095  0.3401  0.0984 -0.1383
16298TIP3    H170385   4.582   3.267  12.031  0.0200 -1.1627 -0.9412
16298TIP3    H270386   4.646   3.275  12.168 -0.2704  1.2288 -0.9251
16299TIP3   OH270387   1.055   1.108   0.591 -0.3466  0.8156  0.6532
16299TIP3    H170388   1.107   1.157   0.655  0.1598  1.2026 -0.0428
16299TIP3    H270389   1.097   1.127   0.507  1.0457 -2.3814  0.5759
16300TIP3   OH270390   1.975   1.319   1.882  0.5813 -0.1018  0.4205
16300TIP3    H170391   2.040   1.321   1.811  0.7600 -2.8423  0.4483
16300TIP3    H270392   1.946   1.410   1.891  1.2046  0.4563 -2.5811
16301TIP3   OH270393   5.016   6.496   1.674  0.4180 -0.3442 -0.2882
16301TIP3    H170394   5.024   6.498   1.579  1.6265 -1.1651 -0.2161
16301TIP3    H270395   5.102   6.470   1.705 -0.1170 -0.6258  1.0090
16302TIP3   OH270396   6.746   2.479  16.503 -0.1649 -0.3349 -0.4242
16302TIP3    H170397   6.782   2.409  16.557 -2.0444 -1.0495 -0.0613
16302TIP3    H270398   6.652   2.479  16.523 -0.4264  1.2751 -1.5642
16303TIP3   OH270399   4.731   4.333   1.657  0.0907  0.0193 -0.7226
16303TIP3    H170400   4.811   4.284   1.677 -0.4106 -0.6309 -0.2891
16303TIP3    H270401   4.701   4.298   1.574 -0.4034 -0.5920 -0.2918
16304TIP3   OH270402   2.231   0.931   3.693  0.0247 -0.2199  0.4360
16304TIP3    H170403   2.279   0.972   3.764  0.3788  1.1137 -0.5508
16304TIP3    H270404   2.281   0.851   3.673  1.6081  0.9212 -0.2836
16305TIP3   OH270405   4.555   4.376  13.873  0.2039 -0.6079  0.2295
16305TIP3    H170406   4.595   4.377  13.959 -0.4806 -1.8499  0.5776
16305TIP3    H270407   4.611   4.318  13.821 -0.0029 -0.7526  0.1638
16306TIP3   OH270408   1.365   0.894   5.147  0.2510  0.2640  0.0744
16306TIP3    H170409   1.297   0.899   5.080 -0.0622  2.1838  0.4875
16306TIP3    H270410   1.401   0.806   5.138 -0.0461  0.3444 -2.3435
16307TIP3   OH270411   6.403   0.085   1.460 -0.3655  0.1784  0.3734
16307TIP3    H170412   6.412   0.127   1.546 -0.4310 -1.4863  1.2269
16307TIP3    H270413   6.379  -0.005   1.481  0.0513 -0.3557 -1.3975
16308TIP3   OH270414   5.883   4.852  16.285 -0.4222  0.1180 -0.0487
16308TIP3    H170415   5.801   4.819  16.248  0.8251 -2.0490 -1.0070
16308TIP3    H270416   5.937   4.874  16.208 -0.0504  1.3930  0.5638
16309TIP3   OH270417   6.618   5.142   0.569 -0.0447  0.3387 -0.1744
16309TIP3    H170418   6.543   5.160   0.626 -0.2285  0.3795 -0.4233
16309TIP3    H270419   6.661   5.227   0.558  0.5198  0.1562  0.6367
16310TIP3   OH270420   3.817   2.247   0.110 -0.7479 -0.2742  0.1088
16310TIP3    H170421   3.812   2.283   0.199 -0.6451 -0.1462  0.0641
16310TIP3    H270422   3.771   2.164   0.115  1.1571 -1.3089  0.8113
16311TIP3   OH270423   1.890   2.219   2.084  0.3493 -0.3771  0.1306
16311TIP3    H170424   1.827   2.148   2.069  0.4201 -0.2951 -0.5945
16311TIP3    H270425   1.861   2.260   2.166  0.3296 -1.2621  0.5703
16312TIP3   OH270426   4.070   3.006   1.110 -0.1950  0.1134  0.3208
16312TIP3    H170427   4.103   3.094   1.129 -2.9759  0.9392  1.5470
16312TIP3    H270428   4.005   3.019   1.041 -1.2225 -0.8644  1.0901
16313TIP3   OH270429   5.300   6.014   4.700  1.0028  0.8720  0.0825
16313TIP3    H170430   5.307   6.109   4.709  1.2453  0.8412  0.2282
16313TIP3    H270431   5.244   6.001   4.623  0.2135  1.1323  0.6092
16314TIP3   OH270432   6.288   4.341   2.552 -0.2193  0.4532  0.0639
16314TIP3    H170433   6.338   4.270   2.592  1.8752  1.6743 -0.2933
16314TIP3    H270434   6.264   4.308   2.465 -1.2351 -0.6647  0.7650
16315TIP3   OH270435   3.686   3.652   6.412 -0.3786  0.2299  0.2795
16315TIP3    H170436   3.682   3.645   6.507  0.6020  0.2407  0.3263
16315TIP3    H270437   3.753   3.718   6.395 -0.5838  0.2698 -0.4226
16316TIP3   OH270438   2.375   2.707  13.481 -0.5228  0.0619  0.0875
16316TIP3    H170439   2.283   2.703  13.506 -0.1593  1.0627  1.7299
16316TIP3    H270440   2.406   2.788  13.522  0.8258  0.2766 -1.3400
16317TIP3   OH270441   2.252   5.937   5.005 -0.5092 -1.0152 -0.4188
16317TIP3    H170442   2.341   5.951   5.037 -0.5152  2.0169 -1.4970
16317TIP3    H270443   2.264   5.894   4.920 -0.0207 -0.1701 -0.7918
16318TIP3   OH270444   0.988   3.309  13.098  0.2053 -0.3462  0.2071
16318TIP3    H170445   0.939   3.251  13.038  0.4431  0.0467 -0.3708
16318TIP3    H270446   0.923   3.372  13.128  0.0414 -0.6574  0.5181
16319TIP3   OH270447   1.356   4.021   1.682 -0.0092  0.1373 -0.4214
16319TIP3    H170448   1.292   4.091   1.670 -1.1981 -0.8780  0.0299
16319TIP3    H270449   1.344   3.964   1.606  0.9886  0.4213 -0.8115
16320TIP3   OH270450   1.038   3.388  16.142  0.1457 -0.5998 -0.3363
16320TIP3    H170451   1.120   3.343  16.119 -0.2333 -1.7037  0.4554
16320TIP3    H270452   0.985   3.322  16.186  0.9943  1.4863  4.1088
16321TIP3   OH270453   1.232   6.274  15.616 -0.4081  0.1641 -0.3911
16321TIP3    H170454   1.148   6.318  15.633 -0.2310 -0.4541  2.2849
16321TIP3    H270455   1.296   6.327  15.664  0.3614 -0.8740 -0.2692
16322TIP3   OH270456   6.341   1.911   3.008 -0.6810  0.0408  0.2019
16322TIP3    H170457   6.308   1.875   3.091 -0.1327 -2.5947 -0.6546
16322TIP3    H270458   6.386   1.837   2.967  0.1193  1.6478 -1.8973
16323TIP3   OH270459   2.755   2.903  12.914 -0.0153 -0.7113 -0.4006
16323TIP3    H170460   2.673   2.916  12.962  0.5789 -0.1209  0.4775
16323TIP3    H270461   2.789   2.991  12.901  0.2938 -0.9348 -1.0859
16324TIP3   OH270462   6.591   2.029   3.666 -0.2334  0.1031 -0.7235
16324TIP3    H170463   6.507   2.017   3.623 -1.5273 -1.4405  2.0903
16324TIP3    H270464   6.647   1.960   3.631 -0.7179 -0.0582 -1.1831
16325TIP3   OH270465   4.073   2.831  13.324  0.5867 -0.3947 -0.1244
16325TIP3    H170466   4.079   2.756  13.383  0.1638  0.2509  0.7513
16325TIP3    H270467   3.980   2.835  13.300  0.8861 -1.0681 -1.3679
16326TIP3   OH270468   2.789   1.710  16.510 -0.2602 -0.3001  0.0404
16326TIP3    H170469   2.792   1.660  16.429  0.2650  1.6840 -1.2123
16326TIP3    H270470   2.768   1.646  16.578 -4.8366 -1.4136 -2.1915
16327TIP3   OH270471   0.607   1.630  12.929 -0.2901  0.0996 -0.1764
16327TIP3    H170472   0.602   1.679  12.847 -2.9211  0.3808  0.1178
16327TIP3    H270473   0.575   1.543  12.907  1.5394 -0.6336 -0.0185
16328TIP3   OH270474   5.023   4.356  10.429  0.0368  0.4636 -0.5873
16328TIP3    H170475   5.118   4.359  10.441 -0.1247 -0.3916  1.0418
16328TIP3    H270476   4.999   4.445  10.405  0.9588  1.2898  1.4059
16329TIP3   OH270477   1.945   1.171   5.604 -0.4820  0.5232  0.1292
16329TIP3    H170478   1.871   1.168   5.544  1.0791 -0.2617 -1.8081
16329TIP3    H270479   1.990   1.253   5.585  0.0274  0.2703  0.2053
16330TIP3   OH270480   4.974   6.510  14.632 -0.7330  0.3335  0.4721
16330TIP3    H170481   5.040   6.442  14.641 -0.7702  0.3434  0.8266
16330TIP3    H270482   4.977   6.557  14.716 -0.6165  0.8447  0.1793
16331TIP3   OH270483   1.987   5.039   4.742 -0.0764  0.2420 -0.1243
16331TIP3    H170484   1.934   4.978   4.691  1.2419 -1.4708  0.4897
16331TIP3    H270485   2.015   5.105   4.679  0.0083 -0.8160 -1.2166
16332TIP3   OH270486   4.602   0.445   0.805  0.2722 -0.0045 -0.1948
16332TIP3    H170487   4.568   0.357   0.819 -2.3272  1.1491  1.2246
16332TIP3    H270488   4.553   0.478   0.729 -0.8707  1.1863  1.0180
16333TIP3   OH270489   5.533   1.907  16.071 -0.1084  0.0165  0.1582
16333TIP3    H170490   5.530   1.879  15.980  0.7373  0.2722  0.0514
16333TIP3    H270491   5.477   1.985  16.074  1.3197  1.0818 -0.5219
16334TIP3   OH270492   3.449   0.606   0.080 -0.1991 -0.3308  0.0460
16334TIP3    H170493   3.424   0.660   0.155 -0.8706 -0.9448  0.2701
16334TIP3    H270494   3.391   0.633   0.009 -0.9354 -1.1571  0.3243
16335TIP3   OH270495   2.120   6.606   0.813  0.3071 -0.3637  0.8555
16335TIP3    H170496   2.192   6.557   0.853  1.7717  0.0206 -1.1947
16335TIP3    H270497   2.088   6.663   0.883  1.2935 -1.2977  2.0999
16336TIP3   OH270498   5.357   2.616   1.145 -0.1049 -0.0466  0.5427
16336TIP3    H170499   5.340   2.701   1.105 -1.0448 -0.8670 -0.8713
16336TIP3    H270500   5.450   2.601   1.130 -0.0626  0.4782  0.2572
16337TIP3   OH270501   3.551   0.850   3.957  0.2612 -0.0260  0.0869
16337TIP3    H170502   3.582   0.766   3.924  0.9439  0.6132 -0.9128
16337TIP3    H270503   3.464   0.860   3.917 -0.7224 -1.1966  1.8420
16338TIP3   OH270504   0.303   3.208   1.479 -0.0769  0.1808 -0.2956
16338TIP3    H170505   0.347   3.168   1.554  1.0473  1.9094  0.0060
16338TIP3    H270506   0.216   3.231   1.512  0.9149  2.2911  0.9863
16339TIP3   OH270507   6.344   1.420  13.162 -0.3059  0.0744  0.1017
16339TIP3    H170508   6.372   1.512  13.157 -2.0517  0.6563  0.5214
16339TIP3    H270509   6.346   1.400  13.256 -0.2135 -0.2217  0.0350
16340TIP3   OH270510   1.444   4.727   2.061  0.3580  0.3319 -0.1755
16340TIP3    H170511   1.383   4.747   1.990  1.7373 -1.1044 -1.8379
16340TIP3    H270512   1.513   4.676   2.018  1.7538  0.3386  2.0199
16341TIP3   OH270513   6.178   4.837  15.825 -0.2219  0.2433  0.0602
16341TIP3    H170514   6.197   4.870  15.737  0.1470  0.5716  0.2614
16341TIP3    H270515   6.087   4.807  15.821 -0.5284  1.1904 -0.1507
16342TIP3   OH270516   5.074   1.229   2.858 -0.2948 -0.1582 -0.3045
16342TIP3    H170517   5.043   1.183   2.936 -2.9595  0.7426 -0.7723
16342TIP3    H270518   5.086   1.320   2.886 -0.4702  0.0040 -0.7488
16343TIP3   OH270519   1.821   1.314   3.920  0.0302  0.8420  0.2040
16343TIP3    H170520   1.818   1.342   4.011  2.9244 -1.4711  1.0747
16343TIP3    H270521   1.889   1.368   3.880  0.3272  0.3085 -0.0164
16344TIP3   OH270522   3.245   2.105   6.783 -0.2693  0.1950  0.0966
16344TIP3    H170523   3.316   2.088   6.720  1.5254  1.4067  1.7416
16344TIP3    H270524   3.205   2.019   6.796  1.1300 -0.5966 -0.6057
16345TIP3   OH270525   6.089   3.477   4.234  0.5318  0.2537  1.2739
16345TIP3    H170526   6.164   3.424   4.208 -0.7248 -1.1444  0.4745
16345TIP3    H270527   6.102   3.561   4.189  1.1186 -0.3088  0.3851
16346TIP3   OH270528   3.292   2.978   3.492 -0.1938  0.7050  0.2601
16346TIP3    H170529   3.386   2.963   3.488 -0.4055 -0.8422  1.0955
16346TIP3    H270530   3.267   2.996   3.401  0.7172 -0.0110 -0.1335
16347TIP3   OH270531   0.709   2.256   3.640 -0.1299  0.2243  0.3474
16347TIP3    H170532   0.621   2.292   3.635 -0.4503 -0.3905  1.3232
16347TIP3    H270533   0.705   2.177   3.586  0.2079  0.9369 -0.7244
16348TIP3   OH270534   0.316   4.729   2.419 -0.5592 -0.3693 -0.1452
16348TIP3    H170535   0.356   4.814   2.397  0.6326 -1.2396 -1.4677
16348TIP3    H270536   0.386   4.682   2.465 -1.2215 -0.6457  0.5816
16349TIP3   OH270537   3.967   6.577  15.306  0.0133 -0.0731 -0.3819
16349TIP3    H170538   4.048   6.536  15.277 -0.6319 -0.4815 -1.6374
16349TIP3    H270539   3.904   6.506  15.311 -0.5643  0.4187 -0.5505
16350TIP3   OH270540   2.232   5.962   0.039  0.1374  0.2650  0.0323
16350TIP3    H170541   2.271   5.876   0.055 -1.9440 -0.5945  0.6934
16350TIP3    H270542   2.255   6.013   0.116  1.3742  0.3127 -0.3571
16351TIP3   OH270543   5.661   5.979   4.229  0.2756 -0.1136 -0.6562
16351TIP3    H170544   5.601   5.995   4.156  0.3156  0.0419 -0.6560
16351TIP3    H270545   5.605   5.960   4.304  0.2484 -0.8278 -0.8581
16352TIP3   OH270546   0.086   2.867   4.103  0.0888  0.0688  1.1483
16352TIP3    H170547   0.090   2.845   4.010  1.1113 -0.8251  1.3930
16352TIP3    H270548   0.014   2.929   4.110  0.1632  0.3288 -0.2824
16353TIP3   OH270549   6.818   5.834   2.011  0.2277 -0.2178  0.0402
16353TIP3    H170550   6.844   5.876   1.929  1.6298 -1.6575 -0.2801
16353TIP3    H270551   6.763   5.760   1.983 -0.2517 -0.0224  0.4611
16354TIP3   OH270552   2.877   3.510  16.626 -0.3078 -0.2624  0.0198
16354TIP3    H170553   2.953   3.544  16.673  1.6185 -0.6722 -2.6691
16354TIP3    H270554   2.852   3.431  16.675 -0.0487  0.7917  1.8795
16355TIP3   OH270555   3.372   5.795   0.391 -0.9749 -0.0608  0.2443
16355TIP3    H170556   3.307   5.794   0.462 -2.4743 -0.9023 -1.1092
16355TIP3    H270557   3.320   5.809   0.312  0.4153 -1.3930 -0.9320
16356TIP3   OH270558   3.433   4.348  11.400  0.5031 -0.5407 -0.3604
16356TIP3    H170559   3.519   4.366  11.440  1.3069 -0.7779 -1.9282
16356TIP3    H270560   3.449   4.355  11.306 -1.2047 -0.6310 -0.6643
16357TIP3   OH270561   0.109   3.929   4.018 -0.7188  0.4132 -0.2569
16357TIP3    H170562   0.019   3.902   4.000 -0.5930 -0.0954 -0.1263
16357TIP3    H270563   0.157   3.847   4.031  0.5383  0.4894 -3.9040
16358TIP3   OH270564   2.620   6.819  11.682 -0.2038  0.3396 -0.1800
16358TIP3    H170565   2.627   6.902  11.729  0.1515  1.1088 -1.5515
16358TIP3    H270566   2.691   6.822  11.618  0.2118 -1.3181  0.1890
16359TIP3   OH270567   1.196   3.163   2.504 -0.3302 -0.3530  0.2000
16359TIP3    H170568   1.106   3.130   2.497  0.1304 -1.8499  1.0933
16359TIP3    H270569   1.194   3.247   2.459 -1.4917 -1.7004 -2.4181
16360TIP3   OH270570   6.198   3.792  12.908  0.4265 -0.0614 -0.3244
16360TIP3    H170571   6.284   3.772  12.871  1.0606  1.3938  0.3211
16360TIP3    H270572   6.144   3.717  12.885  1.6362 -0.5915 -1.5040
16361TIP3   OH270573   0.755   3.883   3.528 -0.7526 -0.0631  0.5269
16361TIP3    H170574   0.670   3.841   3.544 -1.5794  1.6220  0.6451
16361TIP3    H270575   0.769   3.874   3.434 -1.4559  0.3901  0.3783
16362TIP3   OH270576   2.997   5.312   0.664  0.0805 -0.3728  0.0736
16362TIP3    H170577   3.073   5.274   0.620  0.3179  1.1496 -0.8769
16362TIP3    H270578   2.923   5.286   0.609  0.3999  1.6991 -1.3916
16363TIP3   OH270579   4.128   6.505   5.054 -0.4548 -0.2110 -0.6685
16363TIP3    H170580   4.037   6.533   5.068 -0.4679 -0.0178 -1.1511
16363TIP3    H270581   4.181   6.570   5.099 -0.4508  0.9747 -2.3480
16364TIP3   OH270582   2.106   1.741  15.166 -0.4346 -0.3111  0.0963
16364TIP3    H170583   2.161   1.731  15.243 -0.8927  1.5092  0.6925
16364TIP3    H270584   2.149   1.810  15.115 -0.4966 -1.0302 -0.9668
16365TIP3   OH270585   2.650   3.166   4.244  0.2344 -0.2245 -0.0725
16365TIP3    H170586   2.693   3.251   4.246  0.9204 -0.5623  3.1913
16365TIP3    H270587   2.693   3.118   4.174  1.8753  1.1213 -0.0056
16366TIP3   OH270588   6.003   3.566   3.124 -0.2936 -0.1192  0.4497
16366TIP3    H170589   6.057   3.583   3.202 -1.0775  0.8624  0.7943
16366TIP3    H270590   5.945   3.495   3.150  0.6842 -1.0403  0.1455
16367TIP3   OH270591   0.547   4.405   2.748 -0.5059  0.4199 -0.5316
16367TIP3    H170592   0.561   4.311   2.753 -2.2582  0.1125 -0.9561
16367TIP3    H270593   0.604   4.442   2.815  0.8540 -0.8624 -0.9562
16368TIP3   OH270594   2.207   3.838  11.008 -0.5434  0.0275  0.2538
16368TIP3    H170595   2.221   3.793  10.925  0.0595 -0.8835  0.8401
16368TIP3    H270596   2.220   3.770  11.075 -0.0847  0.9635  1.1278
16369TIP3   OH270597   0.832   5.343   5.574  0.0771 -0.6210 -0.4709
16369TIP3    H170598   0.746   5.317   5.539  0.4267  0.4193 -2.1373
16369TIP3    H270599   0.892   5.275   5.543  0.4506  0.4876 -2.2688
16370TIP3   OH270600   6.516   6.400   1.368  0.1524  0.3053  0.2439
16370TIP3    H170601   6.535   6.315   1.408 -0.0696 -0.2655 -0.8550
16370TIP3    H270602   6.549   6.393   1.279  2.5644  2.3344  0.9487
16371TIP3   OH270603   2.464   0.081   3.248 -0.1446 -0.8102  0.3875
16371TIP3    H170604   2.547   0.041   3.276  0.3758 -1.8124 -2.4579
16371TIP3    H270605   2.488   0.171   3.225  0.0833 -1.0080 -0.1436
16372TIP3   OH270606   2.357   3.414  12.584  0.0274  0.2218 -0.1664
16372TIP3    H170607   2.273   3.457  12.601  0.0348  0.9339 -1.8790
16372TIP3    H270608   2.401   3.470  12.520  1.1450 -0.9474 -0.4478
16373TIP3   OH270609   6.099   2.712   4.280  0.5168  0.3654  0.2662
16373TIP3    H170610   6.139   2.796   4.255  0.9368  0.0552 -0.1178
16373TIP3    H270611   6.031   2.736   4.343  0.5948  1.0014  0.1165
16374TIP3   OH270612   2.976   2.639   0.808  0.4438 -0.2238 -0.2299
16374TIP3    H170613   3.037   2.567   0.825 -1.0990 -1.4203  0.3697
16374TIP3    H270614   2.923   2.607   0.735 -1.7263 -0.6476  1.4901
16375TIP3   OH270615   3.640   6.384  16.110 -0.0723  0.0111 -0.2560
16375TIP3    H170616   3.561   6.439  16.107 -0.5831 -0.7728 -1.7882
16375TIP3    H270617   3.691   6.411  16.034  1.3763  0.8286  0.9838
16376TIP3   OH270618   1.053   4.407  13.767 -0.0357 -0.0628 -0.2476
16376TIP3    H170619   1.099   4.332  13.729 -2.0987 -2.3206  1.4918
16376TIP3    H270620   0.993   4.436  13.699  0.0767 -0.6331 -0.5891
16377TIP3   OH270621   2.727   1.598   3.418 -0.2352  0.1489 -0.6851
16377TIP3    H170622   2.684   1.514   3.433 -0.4296  0.1863 -1.0430
16377TIP3    H270623   2.674   1.661   3.467  0.7109 -0.1359  0.7563
16378TIP3   OH270624   4.177   5.099  10.960  0.2894 -0.4005  0.4174
16378TIP3    H170625   4.258   5.067  10.921 -0.2599  1.0714 -1.9989
16378TIP3    H270626   4.108   5.062  10.905 -0.5208  1.4407  0.1592
16379TIP3   OH270627   2.180   0.468  16.699  0.0758  0.5190 -0.4360
16379TIP3    H170628   2.109   0.497  16.642 -0.2238  1.5796  0.4599
16379TIP3    H270629   2.171   0.522  16.777  1.1203 -0.2005  0.1876
16380TIP3   OH270630   4.476   3.544   0.418  0.2127 -0.8383  0.3035
16380TIP3    H170631   4.416   3.472   0.402  0.3104 -0.7345 -0.5706
16380TIP3    H270632   4.420   3.619   0.436  0.0857 -0.8102 -0.2092
16381TIP3   OH270633   4.851   5.175   5.224  0.9622 -0.2415  0.0969
16381TIP3    H170634   4.868   5.201   5.315  0.0049 -0.0715  0.2271
16381TIP3    H270635   4.830   5.256   5.179  1.8499 -0.2649 -0.3835
16382TIP3   OH270636   1.870   2.047  14.940 -0.1901 -0.5683  0.4546
16382TIP3    H170637   1.832   1.960  14.941 -2.1732  0.2775  0.4136
16382TIP3    H270638   1.796   2.107  14.949  1.0262  1.1481 -0.4518
16383TIP3   OH270639   1.557   6.494  10.813 -0.2322  0.2408  0.4519
16383TIP3    H170640   1.479   6.530  10.771 -0.7455  0.2227  1.3804
16383TIP3    H270641   1.630   6.529  10.762 -0.6694  3.2475  1.7674
16384TIP3   OH270642   4.679   1.902   1.957 -0.0909 -0.0406  0.5195
16384TIP3    H170643   4.714   1.977   2.004  1.0929 -0.7475  0.7894
16384TIP3    H270644   4.747   1.835   1.964 -0.8186 -0.8926 -0.3390
16385TIP3   OH270645   1.625   6.489  13.831  0.4440  0.6297 -0.3924
16385TIP3    H170646   1.594   6.399  13.822 -1.0588  1.2313 -1.5413
16385TIP3    H270647   1.548   6.543  13.811  1.4549  2.1635 -0.2466
16386TIP3   OH270648   2.112   3.246   6.098 -0.2301 -0.2796 -0.6908
16386TIP3    H170649   2.025   3.279   6.078 -0.6591 -1.5652 -0.9789
16386TIP3    H270650   2.111   3.233   6.193 -1.0101 -2.1138 -0.9328
16387TIP3   OH270651   0.114   4.520   2.316 -0.6062  0.4321 -0.1357
16387TIP3    H170652   0.189   4.533   2.374  0.0823  0.8044 -1.0935
16387TIP3    H270653   0.147   4.462   2.247 -1.5403 -0.3556  0.0750
16388TIP3   OH270654   6.227   2.238  15.375  0.0623  0.6697  0.4544
16388TIP3    H170655   6.240   2.243  15.281  0.8817 -0.6542  0.4876
16388TIP3    H270656   6.287   2.302  15.412  0.9045  0.0541  0.1624
16389TIP3   OH270657   0.660   2.886   2.949 -0.2145 -0.3442 -0.4644
16389TIP3    H170658   0.739   2.839   2.922 -0.5150 -0.2464 -1.5485
16389TIP3    H270659   0.637   2.940   2.874 -0.9627  0.0992  0.0721
16390TIP3   OH270660   5.338   1.471  13.219 -0.6501  0.1386  0.2586
16390TIP3    H170661   5.307   1.505  13.135 -0.3306 -1.7380 -0.6436
16390TIP3    H270662   5.431   1.495  13.221 -0.0315 -2.0264 -1.1078
16391TIP3   OH270663   3.340   0.528   5.538 -0.0251 -0.2888 -0.1941
16391TIP3    H170664   3.266   0.537   5.599 -1.1286 -0.6853 -1.4560
16391TIP3    H270665   3.301   0.537   5.451  1.5673  0.4467 -0.8466
16392TIP3   OH270666   3.475   1.621  11.816 -0.1064  0.1226 -0.5338
16392TIP3    H170667   3.423   1.611  11.895  1.6487 -0.7599  0.5358
16392TIP3    H270668   3.411   1.625  11.745 -1.6860  0.8420  0.9148
16393TIP3   OH270669   5.754   2.041  16.268 -0.2057  0.2604  0.2921
16393TIP3    H170670   5.724   2.034  16.358 -0.2959 -1.6571  0.1252
16393TIP3    H270671   5.824   1.976  16.260 -0.9872 -0.4080 -1.3203
16394TIP3   OH270672   3.072   1.961  13.517 -0.0752 -0.6560  0.8069
16394TIP3    H170673   3.147   1.938  13.573  0.7254 -0.1599 -0.0435
16394TIP3    H270674   3.069   2.056  13.519 -1.9545 -0.7229  2.4585
16395TIP3   OH270675   6.145   1.300  16.939 -0.1990 -0.1644 -0.5851
16395TIP3    H170676   6.051   1.320  16.945 -0.0206  0.0899  1.9308
16395TIP3    H270677   6.148   1.205  16.935 -0.5959 -0.1449 -1.4221
16396TIP3   OH270678   6.741   0.814   3.983 -0.1174 -0.3255  0.1149
16396TIP3    H170679   6.666   0.817   4.041 -0.5447 -1.7780 -0.3330
16396TIP3    H270680   6.718   0.748   3.917  0.5697  0.8829 -1.3906
16397TIP3   OH270681   6.757   6.711  11.763 -0.5655  0.0229 -0.6838
16397TIP3    H170682   6.737   6.713  11.856 -1.3876  2.1938 -0.8685
16397TIP3    H270683   6.805   6.629  11.750 -0.6970 -0.4406  1.5781
16398TIP3   OH270684   5.323   0.532  12.076 -0.8335  0.2855  0.4522
16398TIP3    H170685   5.250   0.592  12.068 -0.3858  1.0046  1.6458
16398TIP3    H270686   5.361   0.527  11.988  0.4947  3.5021  0.7937
16399TIP3   OH270687   2.445   4.512  13.623  0.2312  0.5507 -0.1232
16399TIP3    H170688   2.455   4.521  13.718 -1.6623  2.1613 -0.0503
16399TIP3    H270689   2.491   4.431  13.602 -1.3290 -1.0906  2.5242
16400TIP3   OH270690   3.833   5.306   3.133  0.4365  0.5636  0.3239
16400TIP3    H170691   3.916   5.260   3.145  0.5754  0.2785 -1.4867
16400TIP3    H270692   3.857   5.399   3.129  0.6345  0.5090  0.2275
16401TIP3   OH270693   0.743   0.716   5.611  0.0725  0.8172 -0.8594
16401TIP3    H170694   0.804   0.788   5.594 -0.5843  1.6770  0.3506
16401TIP3    H270695   0.790   0.637   5.582  0.6285  1.7584 -2.5930
16402TIP3   OH270696   4.790   2.731   1.762 -0.3129  0.3219 -0.0475
16402TIP3    H170697   4.707   2.686   1.746 -0.3168  0.7433 -1.3132
16402TIP3    H270698   4.842   2.669   1.813 -0.1365 -1.3481 -2.1712
16403TIP3   OH270699   4.732   4.893   4.728  0.0617  0.0017 -0.3374
16403TIP3    H170700   4.670   4.908   4.799  0.6755  2.1991 -0.2320
16403TIP3    H270701   4.818   4.913   4.766  0.6742 -1.2930 -0.9886
16404TIP3   OH270702   0.444   6.640   0.437 -0.2625  0.1906  0.8972
16404TIP3    H170703   0.412   6.596   0.515  0.7838 -1.3760  0.4876
16404TIP3    H270704   0.467   6.728   0.466 -0.4758 -0.1738  2.2067
16405TIP3   OH270705   4.458   1.118  16.319  0.2932  0.7438 -0.2619
16405TIP3    H170706   4.408   1.160  16.249  0.1123 -1.5134 -1.5202
16405TIP3    H270707   4.491   1.038  16.280  0.2145 -0.5407  2.2442
16406TIP3   OH270708   6.588   0.524  12.015  0.0399 -0.2157  0.6653
16406TIP3    H170709   6.538   0.488  12.088  0.4254  0.7194  1.4000
16406TIP3    H270710   6.668   0.471  12.012 -0.9661 -1.7156 -0.5153
16407TIP3   OH270711   4.616   5.587   5.228 -0.6631  0.1285  1.0327
16407TIP3    H170712   4.571   5.508   5.258  1.5555 -0.8937  1.7671
16407TIP3    H270713   4.663   5.618   5.305  1.2485  0.2028 -0.1311
16408TIP3   OH270714   1.527   4.708  11.718 -0.2688 -0.8424 -0.6243
16408TIP3    H170715   1.606   4.761  11.728 -0.0923 -1.4503  1.4236
16408TIP3    H270716   1.506   4.714  11.625  0.5380  1.6531 -0.6820
16409TIP3   OH270717   4.429   6.258  12.540 -1.0890  0.0771  0.0928
16409TIP3    H170718   4.381   6.285  12.462  0.2551  1.1049 -0.3972
16409TIP3    H270719   4.516   6.233  12.508 -1.1118 -1.2477  1.0310
16410TIP3   OH270720   1.336   4.486   1.891  0.1677  0.0001  0.3193
16410TIP3    H170721   1.424   4.474   1.927  1.3461 -2.0893 -3.0017
16410TIP3    H270722   1.282   4.423   1.938  1.4425 -1.9136 -0.7268
16411TIP3   OH270723   1.297   3.453  16.022  0.1483 -0.1950  0.1165
16411TIP3    H170724   1.287   3.435  15.929  1.1198 -0.0569 -0.0139
16411TIP3    H270725   1.249   3.535  16.036 -1.6353 -1.2094  0.1158
16412TIP3   OH270726   2.232   6.146  11.625 -0.2954  0.1215  0.4076
16412TIP3    H170727   2.298   6.186  11.570 -0.2171  2.6195  2.2403
16412TIP3    H270728   2.271   6.063  11.653  0.0555 -0.7074 -2.4138
16413TIP3   OH270729   6.342   4.268  11.465 -0.5175  0.5925 -0.2205
16413TIP3    H170730   6.328   4.291  11.373  0.4224  1.1130 -0.2426
16413TIP3    H270731   6.427   4.224  11.466 -1.0916 -0.5286  0.2221
16414TIP3   OH270732   4.206   4.504  12.627 -0.9030 -0.3162 -0.2466
16414TIP3    H170733   4.235   4.425  12.582 -1.0251 -0.9050  0.7147
16414TIP3    H270734   4.128   4.531  12.579 -0.0720  0.0184 -1.4443
16415TIP3   OH270735   5.048   6.078   1.755 -0.4411  0.1269  0.0113
16415TIP3    H170736   4.975   6.068   1.693  0.9139  0.5928 -1.7132
16415TIP3    H270737   5.123   6.100   1.699  0.9702 -0.1436  1.7771
16416TIP3   OH270738   6.619   0.974  15.131 -0.4880  0.2623  0.9685
16416TIP3    H170739   6.638   0.889  15.089  0.2665  1.4940 -1.2757
16416TIP3    H270740   6.598   0.952  15.221  1.5481 -2.1574  0.9118
16417TIP3   OH270741   5.423   5.965  12.687  0.5541  0.3952  0.3913
16417TIP3    H170742   5.408   5.920  12.770  1.0150 -1.5349 -0.5543
16417TIP3    H270743   5.510   5.936  12.660 -0.0562  0.1320 -1.3085
16418TIP3   OH270744   4.357   6.127  11.241  0.1117  0.1511 -0.1251
16418TIP3    H170745   4.385   6.217  11.256  0.2113  0.4973 -2.2019
16418TIP3    H270746   4.436   6.074  11.256  0.8078  0.7049 -1.6756
16419TIP3   OH270747   6.364   0.452   2.631  0.2782 -0.4148 -0.5194
16419TIP3    H170748   6.457   0.473   2.619  0.2393  0.6989  1.0406
16419TIP3    H270749   6.357   0.425   2.723 -0.9009 -0.7292 -0.6890
16420TIP3   OH270750   5.252   4.485   4.781 -0.4384 -0.1911 -0.2234
16420TIP3    H170751   5.193   4.416   4.750 -0.8269  0.3387 -0.6705
16420TIP3    H270752   5.195   4.544   4.832  0.0077 -0.5348  0.6886
16421TIP3   OH270753   4.815   4.450   2.542 -0.2019 -0.9002  0.8143
16421TIP3    H170754   4.775   4.537   2.539 -1.0003 -1.2924 -0.5732
16421TIP3    H270755   4.740   4.389   2.544  0.3428 -1.5803  0.7885
16422TIP3   OH270756   1.708   2.004  11.287  0.2474  0.3541  0.2538
16422TIP3    H170757   1.737   1.936  11.348  1.8051  1.1928  0.4684
16422TIP3    H270758   1.759   1.988  11.207 -1.1690 -0.2169 -0.5817
16423TIP3   OH270759   5.984   2.970  11.645 -0.0886 -0.0615 -0.2556
16423TIP3    H170760   6.018   2.990  11.732  0.5468  1.0728 -0.7502
16423TIP3    H270761   6.021   3.038  11.588 -0.3414 -0.8934 -1.4464
16424TIP3   OH270762   4.073   0.616  16.637 -0.7975  0.5244  0.0520
16424TIP3    H170763   4.081   0.663  16.720 -0.4854  0.4180  0.0830
16424TIP3    H270764   4.072   0.685  16.571  1.4571  0.5274 -0.0284
16425TIP3   OH270765   2.777   2.871  11.282  0.3356 -0.2077  0.1895
16425TIP3    H170766   2.763   2.931  11.355  0.0303  0.6014 -0.5322
16425TIP3    H270767   2.871   2.870  11.268  0.3106  0.3947 -0.0345
16426TIP3   OH270768   1.698   6.047  13.292  0.1957  0.4365  0.1143
16426TIP3    H170769   1.722   6.123  13.343 -2.2157 -0.8070  3.2553
16426TIP3    H270770   1.761   5.979  13.317 -0.4671  0.0717  0.8046
16427TIP3   OH270771   5.726   5.705  15.919 -0.2478 -1.0860  0.6978
16427TIP3    H170772   5.780   5.766  15.868  1.1710 -1.6974  1.4246
16427TIP3    H270773   5.678   5.762  15.980 -1.3403 -0.4314 -0.7463
16428TIP3   OH270774   1.749   1.204   6.037 -0.1823  1.1080  0.1599
16428TIP3    H170775   1.695   1.137   6.079  0.1685  1.3600  1.0237
16428TIP3    H270776   1.718   1.287   6.075  1.3222  1.1936  1.2592
16429TIP3   OH270777   6.550   6.377  15.593 -0.4769 -0.5947 -0.0072
16429TIP3    H170778   6.562   6.424  15.511  2.1135 -0.4749  0.4112
16429TIP3    H270779   6.518   6.443  15.655  0.2371 -0.0680 -0.2032
16430TIP3   OH270780   4.667   6.050  13.551 -0.0536  0.3214  0.5037
16430TIP3    H170781   4.643   5.964  13.585 -2.0288  0.3085 -0.8044
16430TIP3    H270782   4.598   6.109  13.584 -0.5430  0.7808 -1.2677
16431TIP3   OH270783   2.146   2.936   6.012  0.0426 -0.4200  0.3454
16431TIP3    H170784   2.231   2.976   6.030 -1.5065  2.7959  0.7726
16431TIP3    H270785   2.097   2.944   6.095 -0.9728 -1.4913 -0.1326
16432TIP3   OH270786   0.998   3.617   6.710 -0.1092 -0.3983  0.0945
16432TIP3    H170787   0.983   3.531   6.670 -0.7472  0.8734 -2.4700
16432TIP3    H270788   0.915   3.638   6.754  0.4802 -1.6482  1.8471
16433TIP3   OH270789   0.860   0.970   0.743  0.3588  0.4231  0.4440
16433TIP3    H170790   0.927   1.020   0.697  0.1112 -0.3846 -0.8506
16433TIP3    H270791   0.777   1.000   0.704  0.2585 -1.6048 -1.0393
16434TIP3   OH270792   4.203   6.301  13.968 -0.6995  0.0241 -0.1630
16434TIP3    H170793   4.220   6.370  14.032 -0.2774 -0.8496  0.6945
16434TIP3    H270794   4.125   6.330  13.921 -1.2304  0.5085  1.0050
16435TIP3   OH270795   2.590   6.622   0.777 -0.0387  0.0796  0.4334
16435TIP3    H170796   2.625   6.685   0.840  2.5082 -0.9595  0.1198
16435TIP3    H270797   2.538   6.562   0.831 -1.3730  1.6406  0.9226
16436TIP3   OH270798   3.435   6.161   4.207  0.2865  0.1146  0.5250
16436TIP3    H170799   3.447   6.194   4.296  1.0114  1.0884  0.0717
16436TIP3    H270800   3.408   6.070   4.219  2.0861 -0.2909  1.7069
16437TIP3   OH270801   0.821   5.985  11.573 -0.5108  0.3637 -0.0687
16437TIP3    H170802   0.870   5.939  11.505  0.5168  2.1158 -0.5410
16437TIP3    H270803   0.761   6.042  11.524 -1.4561 -0.1321  0.5055
16438TIP3   OH270804   3.981   3.728  11.560  0.7108 -0.2480 -0.8847
16438TIP3    H170805   4.017   3.812  11.533  1.0087 -0.2276 -0.4161
16438TIP3    H270806   3.963   3.682  11.477 -0.5000  0.7061 -1.1630
16439TIP3   OH270807   4.519   6.701   4.866  0.1899  0.2607  0.3239
16439TIP3    H170808   4.448   6.765   4.866 -0.5441 -0.5487 -0.6810
16439TIP3    H270809   4.476   6.616   4.869  1.1492 -0.2091  1.1321
16440TIP3   OH270810   4.424   2.940   4.087 -0.2105 -0.0310  0.2196
16440TIP3    H170811   4.450   3.013   4.031  1.1473 -1.6273 -1.3133
16440TIP3    H270812   4.423   2.975   4.175  0.0250  1.9289 -0.5451
16441TIP3   OH270813   1.677   4.770  12.527  0.3354  0.4428  0.3291
16441TIP3    H170814   1.595   4.814  12.552 -0.6125 -1.2199  0.1975
16441TIP3    H270815   1.735   4.785  12.601 -2.0649 -3.4338  3.2066
16442TIP3   OH270816   2.021   6.113  16.866 -0.6074  0.3266 -0.7620
16442TIP3    H170817   1.943   6.162  16.892  0.6588  2.6245 -1.1824
16442TIP3    H270818   1.994   6.021  16.870 -2.4667  0.9185  1.9916
16443TIP3   OH270819   1.848   2.369  13.629  0.0330 -0.0062  0.2100
16443TIP3    H170820   1.801   2.443  13.592 -1.6290 -1.5756 -0.9268
16443TIP3    H270821   1.877   2.319  13.552  0.3370 -0.9944  0.9604
16444TIP3   OH270822   5.078   2.333  13.532 -0.0264 -0.2727  0.4436
16444TIP3    H170823   5.158   2.322  13.481 -1.6236 -0.1726 -2.1400
16444TIP3    H270824   5.030   2.251  13.520 -1.6179  0.7571 -0.3590
16445TIP3   OH270825   1.470   3.481   0.353  0.1653  0.0895 -0.4670
16445TIP3    H170826   1.550   3.485   0.301 -0.8169  1.9028 -1.9157
16445TIP3    H270827   1.401   3.507   0.292 -1.2698  0.5136  1.2893
16446TIP3   OH270828   5.551   2.772   5.058 -0.4285  0.1791  0.5233
16446TIP3    H170829   5.562   2.829   4.981 -2.4643  0.5983  0.5315
16446TIP3    H270830   5.528   2.831   5.129 -0.6145 -0.4522  0.9898
16447TIP3   OH270831   4.848   0.428  15.454  0.1441  0.3671  0.0672
16447TIP3    H170832   4.776   0.490  15.439  0.2500  0.0602 -1.7779
16447TIP3    H270833   4.921   0.483  15.482  0.4618  1.2102 -2.2809
16448TIP3   OH270834   0.477   1.592  11.143  0.2785  0.3256 -0.5448
16448TIP3    H170835   0.555   1.647  11.152 -0.6430  1.8648 -1.4388
16448TIP3    H270836   0.406   1.655  11.127 -1.2474 -1.0012  0.8782
16449TIP3   OH270837   0.706   4.540   0.603 -0.1252  0.6246  0.4286
16449TIP3    H170838   0.724   4.445   0.599  1.3168  0.8859  0.2714
16449TIP3    H270839   0.624   4.547   0.650  0.6983 -0.6276  2.1121
16450TIP3   OH270840   1.477   5.263   5.253 -0.2331 -0.2437 -0.0345
16450TIP3    H170841   1.499   5.228   5.166 -0.1689 -1.3263  0.4054
16450TIP3    H270842   1.545   5.328   5.270  0.1823 -0.5501 -0.4936
16451TIP3   OH270843   1.992   3.290  12.996 -0.1348 -0.2926  0.4488
16451TIP3    H170844   1.954   3.283  13.083  0.9409 -0.9107  0.8784
16451TIP3    H270845   1.933   3.240  12.939 -0.4503 -0.4770  0.9386
16452TIP3   OH270846   4.098   5.102  15.844 -0.0254  0.7008  0.0541
16452TIP3    H170847   4.155   5.029  15.823  1.9319  2.6434 -1.7244
16452TIP3    H270848   4.012   5.075  15.813  1.1084 -0.0275 -2.5861
16453TIP3   OH270849   1.136   4.415   3.067  0.1394 -0.0458 -1.0004
16453TIP3    H170850   1.197   4.458   3.007  0.5170 -0.2668 -0.7793
16453TIP3    H270851   1.192   4.377   3.134 -0.4022  2.7159  1.1334
16454TIP3   OH270852   3.480   2.859   4.833 -0.2929  0.3201  0.3924
16454TIP3    H170853   3.427   2.907   4.770 -0.1077 -0.1052 -0.0931
16454TIP3    H270854   3.529   2.795   4.780  0.8518  0.8344  0.8026
16455TIP3   OH270855   3.920   5.073  11.397 -0.3121 -0.0474  0.2487
16455TIP3    H170856   3.910   5.014  11.472  1.7633  1.3156  1.6782
16455TIP3    H270857   3.916   5.161  11.435  1.2086  0.6645 -1.1500
16456TIP3   OH270858   2.340   1.852   1.765 -0.1601  0.5916  0.2667
16456TIP3    H170859   2.390   1.798   1.825  0.6555  2.5635  1.3969
16456TIP3    H270860   2.260   1.873   1.812 -0.8370 -0.2407 -0.4762
16457TIP3   OH270861   0.544   4.235   1.008  0.0790 -0.8019 -0.0629
16457TIP3    H170862   0.448   4.239   1.004  0.0385 -0.9074  0.7348
16457TIP3    H270863   0.571   4.326   1.019  0.1346 -0.6382 -1.4985
16458TIP3   OH270864   3.590   2.301  16.475  0.1453  0.4309 -0.1443
16458TIP3    H170865   3.526   2.344  16.418 -0.7787 -1.5426 -0.6560
16458TIP3    H270866   3.671   2.350  16.462 -1.0652  2.5483 -0.0253
16459TIP3   OH270867   0.759   2.024  13.643 -0.2695 -0.1829  0.2441
16459TIP3    H170868   0.735   1.932  13.651  1.1552 -0.6517 -0.6742
16459TIP3    H270869   0.851   2.027  13.670 -0.2871  0.9616  0.1934
16460TIP3   OH270870   1.690   3.736   2.665  0.2994 -0.0127 -0.2501
16460TIP3    H170871   1.704   3.823   2.701  0.1793 -0.2816  0.4468
16460TIP3    H270872   1.735   3.677   2.725  0.8819 -0.3846 -1.0379
16461TIP3   OH270873   0.246   5.311   4.453  0.4165  0.9189  0.6708
16461TIP3    H170874   0.337   5.335   4.433  0.4315 -0.4709 -1.0938
16461TIP3    H270875   0.194   5.356   4.386 -0.1669  1.2673  1.3439
16462TIP3   OH270876   0.170   3.487  13.697 -0.1208  0.0338  0.5147
16462TIP3    H170877   0.166   3.443  13.782 -0.2409 -0.4671  0.2515
16462TIP3    H270878   0.078   3.493  13.669 -0.3541  2.7349  1.7089
16463TIP3   OH270879   4.690   0.154   1.464  0.1899 -0.2461  0.2925
16463TIP3    H170880   4.629   0.172   1.393  0.6835 -0.5193 -0.1961
16463TIP3    H270881   4.634   0.130   1.538 -0.4812  2.4350  0.7403
16464TIP3   OH270882   4.948   6.297   4.343  0.2327 -0.5211 -0.3808
16464TIP3    H170883   4.956   6.292   4.438 -0.0323 -0.5040 -0.3575
16464TIP3    H270884   4.939   6.390   4.324 -1.9271 -0.6774 -0.2387
16465TIP3   OH270885   1.071   3.358   3.302 -0.2547  0.1067  0.2536
16465TIP3    H170886   1.156   3.358   3.347  0.1195  3.8310 -0.2601
16465TIP3    H270887   1.091   3.390   3.214 -1.7401 -2.2547 -0.9775
16466TIP3   OH270888   1.578   4.601  14.600 -0.4528 -0.2870  0.2028
16466TIP3    H170889   1.531   4.657  14.537  0.4022 -1.2888 -1.3611
16466TIP3    H270890   1.512   4.576  14.664 -1.3037  0.8958 -0.1957
16467TIP3   OH270891   4.061   5.688   5.330 -0.5972 -0.1845 -0.2849
16467TIP3    H170892   4.061   5.637   5.411 -1.3103  1.2092  0.6234
16467TIP3    H270893   4.008   5.637   5.269 -0.8423 -0.7799  0.4239
16468TIP3   OH270894   1.988   2.700  16.161  0.1618 -0.5722 -0.1069
16468TIP3    H170895   1.984   2.664  16.250  0.4114  0.3044  0.2603
16468TIP3    H270896   2.079   2.688  16.135  0.5239  0.8076  0.4548
16469TIP3   OH270897   4.384   0.936  11.629 -0.1296  0.3982  0.1139
16469TIP3    H170898   4.449   0.927  11.559 -0.9320 -1.1687 -0.4587
16469TIP3    H270899   4.412   1.013  11.678  0.3949  1.5751 -1.9883
16470TIP3   OH270900   1.730   6.548   1.852  0.2897 -0.0378 -0.3603
16470TIP3    H170901   1.750   6.471   1.907  1.2679 -0.3579 -1.1543
16470TIP3    H270902   1.733   6.514   1.763  1.3201  1.0637 -0.7426
16471TIP3   OH270903   6.491   0.430   6.660 -0.3926 -0.5668  0.0229
16471TIP3    H170904   6.567   0.374   6.678 -1.6041 -2.3744 -0.3745
16471TIP3    H270905   6.415   0.376   6.683 -1.5473  1.4466  1.0120
16472TIP3   OH270906   4.034   4.460  15.514  0.4276  0.2770 -0.2880
16472TIP3    H170907   4.113   4.432  15.468 -0.7382 -1.3679 -1.3532
16472TIP3    H270908   4.040   4.417  15.599  0.6724  0.1419 -0.3722
16473TIP3   OH270909   2.068   2.069  16.945 -0.2007  0.7086  0.3334
16473TIP3    H170910   2.020   2.019  17.011 -0.8649  0.2627 -0.4810
16473TIP3    H270911   2.000   2.108  16.890  0.3529  0.2135 -0.7215
16474TIP3   OH270912   3.595   3.704  16.041 -0.0182  0.3427  0.1072
16474TIP3    H170913   3.600   3.785  16.091 -2.0044  0.5980 -0.0766
16474TIP3    H270914   3.502   3.694  16.019  0.3221 -1.5095 -0.6423
16475TIP3   OH270915   4.756   2.413   6.236  0.3992  0.5129 -0.0984
16475TIP3    H170916   4.812   2.470   6.289 -2.4938  1.5640  1.9533
16475TIP3    H270917   4.707   2.474   6.180 -1.2323 -0.1013  0.6435
16476TIP3   OH270918   4.995   4.973   0.835 -0.4454 -0.0092 -0.6414
16476TIP3    H170919   4.953   5.017   0.761  1.3246  2.7546 -0.0835
16476TIP3    H270920   5.050   4.906   0.794 -0.1745  0.8851 -1.7900
16477TIP3   OH270921   6.660   0.424   1.136  0.3563  0.4897  0.1280
16477TIP3    H170922   6.580   0.418   1.082 -0.7034  0.4884  1.6730
16477TIP3    H270923   6.731   0.400   1.076 -1.1211 -2.7095 -0.4194
16478TIP3   OH270924   0.779   2.710  13.696  0.3870  0.2300  0.2433
16478TIP3    H170925   0.791   2.795  13.654  0.8765 -0.1587 -0.4030
16478TIP3    H270926   0.865   2.669  13.692 -0.5056 -1.5486 -2.1575
16479TIP3   OH270927   5.385   6.148  14.216  0.1972  0.4717 -0.5961
16479TIP3    H170928   5.342   6.150  14.130  0.0698 -1.5301 -0.6117
16479TIP3    H270929   5.469   6.192  14.202  0.4242 -0.3508 -1.9019
16480TIP3   OH270930   0.527   3.337  13.507 -0.3379 -0.5549  0.6385
16480TIP3    H170931   0.466   3.398  13.467  1.1676  1.8662  1.9418
16480TIP3    H270932   0.522   3.355  13.601 -0.4382 -2.9926  1.1378
16481TIP3   OH270933   1.629   1.188  16.363  0.1986 -0.9689 -0.1612
16481TIP3    H170934   1.683   1.261  16.332  0.3344 -0.5944  0.9457
16481TIP3    H270935   1.548   1.194  16.312  1.3398 -1.7746 -2.1221
16482TIP3   OH270936   1.680   3.014   4.410 -0.6712  0.6625 -0.2264
16482TIP3    H170937   1.735   3.043   4.337  2.4999 -0.8309  1.4132
16482TIP3    H270938   1.629   2.941   4.375  0.2266  0.4712 -1.1606
16483TIP3   OH270939   0.294   1.713   6.010 -0.1212  0.3836  0.1566
16483TIP3    H170940   0.240   1.785   6.041 -0.3639  1.0413 -1.7345
16483TIP3    H270941   0.384   1.746   6.013  0.0753 -0.2495  2.0203
16484TIP3   OH270942   2.657   2.395  14.140 -0.3890  0.2032 -0.1338
16484TIP3    H170943   2.682   2.427  14.054  2.0367  1.4311  0.9927
16484TIP3    H270944   2.717   2.323  14.158  1.3712  2.1304  1.9168
16485TIP3   OH270945   4.428   4.356   5.188 -0.2112 -0.6438 -0.0510
16485TIP3    H170946   4.372   4.347   5.266 -1.3399  1.0572 -0.6392
16485TIP3    H270947   4.366   4.360   5.115  0.8321 -1.8899 -1.0362
16486TIP3   OH270948   4.299   4.327  14.533  0.6962 -0.2954  1.1581
16486TIP3    H170949   4.208   4.340  14.561  0.3885  0.9635 -0.3572
16486TIP3    H270950   4.335   4.416  14.526  2.4575 -0.8069  2.9925
16487TIP3   OH270951   0.216   2.928  17.258 -0.1406  0.3987 -0.7334
16487TIP3    H170952   0.201   2.994  17.326  0.8040 -1.4130  1.2843
16487TIP3    H270953   0.311   2.931  17.242 -0.1506 -0.2191 -0.9083
16488TIP3   OH270954   6.617   6.236   0.119  0.7928  0.3574 -0.1356
16488TIP3    H170955   6.575   6.322   0.125 -0.3551 -0.0524 -2.0585
16488TIP3    H270956   6.561   6.178   0.170  0.2985  0.2823 -0.7655
16489TIP3   OH270957   4.917   3.927  13.445  0.2503 -0.1001  0.4669
16489TIP3    H170958   4.924   3.985  13.369  2.7340  0.2198  0.9179
16489TIP3    H270959   4.948   3.842  13.414  0.3859 -0.2025  0.8789
16490TIP3   OH270960   1.121   2.596   2.666 -0.4146  0.2184  0.2504
16490TIP3    H170961   1.183   2.647   2.717 -1.8601  1.3084  0.9598
16490TIP3    H270962   1.093   2.526   2.725  0.7245 -0.7563 -0.3434
16491TIP3   OH270963   3.763   4.303  11.981 -0.1835 -0.3510 -0.8687
16491TIP3    H170964   3.737   4.255  12.060 -1.6425  3.2768  0.9714
16491TIP3    H270965   3.681   4.321  11.935  0.2508  0.9276 -1.1680
16492TIP3   OH270966   5.157   5.752   3.724  0.9303  0.3409  0.0294
16492TIP3    H170967   5.073   5.797   3.724  1.1809  0.8430  1.3726
16492TIP3    H270968   5.136   5.662   3.699  0.0333  0.5470  0.0273
16493TIP3   OH270969   2.839   1.607   4.390 -0.3750  0.9155 -0.0150
16493TIP3    H170970   2.814   1.544   4.323 -0.8772  0.6909  0.3813
16493TIP3    H270971   2.761   1.617   4.445  0.1660  0.7699  0.7977
16494TIP3   OH270972   1.189   0.562   2.152 -0.6490  0.0468 -0.3269
16494TIP3    H170973   1.227   0.619   2.085 -1.5273  0.0483 -0.8296
16494TIP3    H270974   1.242   0.579   2.230  1.7677 -1.5450 -1.5606
16495TIP3   OH270975   3.053   3.843  12.987  0.1615  0.3153 -0.1450
16495TIP3    H170976   2.978   3.866  13.041 -0.6225 -0.7447 -0.7631
16495TIP3    H270977   3.082   3.925  12.948 -1.3274  0.5564 -0.7411
16496TIP3   OH270978   4.937   3.613  12.865  0.2166  0.4317 -0.1050
16496TIP3    H170979   5.029   3.586  12.872  0.1767  0.6104  1.2755
16496TIP3    H270980   4.895   3.544  12.814  0.7478 -0.6000  0.8236
16497TIP3   OH270981   1.973   5.506  10.701  0.0496 -0.2326  0.0189
16497TIP3    H170982   1.919   5.583  10.681 -1.4548 -0.9458  1.2578
16497TIP3    H270983   2.038   5.539  10.763 -0.6222  0.0620  0.5867
16498TIP3   OH270984   2.224   5.547   2.598 -0.1882 -0.4151 -0.1137
16498TIP3    H170985   2.241   5.529   2.505  1.6347 -0.4807  0.2213
16498TIP3    H270986   2.258   5.471   2.644  0.5341  0.4197  0.7368
16499TIP3   OH270987   1.789   1.045  13.087  0.0566 -0.4657  0.2646
16499TIP3    H170988   1.801   1.079  13.175 -0.3988 -0.4915  0.3361
16499TIP3    H270989   1.788   1.123  13.031  0.2316 -0.4427  0.2938
16500TIP3   OH270990   4.278   0.716   5.240 -0.3900  0.6011  0.1725
16500TIP3    H170991   4.238   0.697   5.155 -0.1812 -0.3462  0.2909
16500TIP3    H270992   4.300   0.809   5.234 -1.6968  0.8969 -0.2651
16501TIP3   OH270993   3.500   2.378  15.124  0.1980  0.7218  0.0982
16501TIP3    H170994   3.518   2.396  15.032 -1.8927  2.1695 -0.0502
16501TIP3    H270995   3.433   2.309  15.123 -0.4952  1.3827  0.5179
16502TIP3   OH270996   3.199   6.725   0.625  0.0692  0.3818 -0.4155
16502TIP3    H170997   3.160   6.812   0.620  1.1641  0.8111 -1.7765
16502TIP3    H270998   3.205   6.706   0.718 -1.4627  1.1751 -0.1503
16503TIP3   OH270999   2.662   1.962  17.188  0.1071  0.0772  0.1664
16503TIP3    H171000   2.634   1.959  17.096  0.4105  0.3351  0.0654
16503TIP3    H271001   2.743   1.910  17.190 -1.0882 -1.8256  0.7154
16504TIP3   OH271002   3.182   3.565   6.543  0.1871 -0.1574 -0.7955
16504TIP3    H171003   3.133   3.501   6.594 -0.8274  0.7326 -0.6288
16504TIP3    H271004   3.114   3.615   6.497  0.9610  0.7979 -0.9061
16505TIP3   OH271005   2.743   4.612   0.864  0.4838  0.3723 -0.2692
16505TIP3    H171006   2.738   4.706   0.879 -1.4946 -0.0697  2.1386
16505TIP3    H271007   2.722   4.601   0.772 -1.6623  2.1138 -0.0040
16506TIP3   OH271008   6.257   5.616   5.111 -0.3151  0.6648 -0.0084
16506TIP3    H171009   6.347   5.612   5.144 -1.1237  1.5792  2.4507
16506TIP3    H271010   6.251   5.701   5.068 -0.5515  1.5103  1.6418
16507TIP3   OH271011   5.611   0.280   4.809  0.0586 -0.5013  0.5265
16507TIP3    H171012   5.660   0.352   4.770  0.9644  0.0616  2.6408
16507TIP3    H271013   5.530   0.277   4.759  0.8314  0.7288 -0.8479
16508TIP3   OH271014   5.179   6.313  14.644 -0.2414  0.6460 -0.1720
16508TIP3    H171015   5.274   6.320  14.643 -0.1799 -0.2603 -1.2121
16508TIP3    H271016   5.156   6.272  14.561 -1.2086 -2.8915  1.7001
16509TIP3   OH271017   3.433   2.184   3.345 -0.7229 -0.0182  0.4885
16509TIP3    H171018   3.525   2.165   3.329 -0.8414 -0.4347  0.2951
16509TIP3    H271019   3.425   2.278   3.327 -0.2886  0.0693  0.7413
16510TIP3   OH271020   6.354   2.263   3.958 -0.6474 -0.0315 -0.0635
16510TIP3    H171021   6.339   2.171   3.980  0.2712  0.0336  0.8700
16510TIP3    H271022   6.440   2.265   3.918 -0.1934  0.5672  0.9193
16511TIP3   OH271023   3.050   1.891  14.196 -0.4600  0.0001 -0.2410
16511TIP3    H171024   3.001   1.845  14.265 -1.5189  0.8943 -0.3916
16511TIP3    H271025   2.994   1.886  14.119 -0.3792  1.1508 -0.3784
16512TIP3   OH271026   0.742   2.028  16.035  0.1065 -0.0780 -0.4119
16512TIP3    H171027   0.760   1.937  16.014 -1.3861 -0.9574  1.8618
16512TIP3    H271028   0.646   2.034  16.034  0.1996  1.8878 -2.1212
16513TIP3   OH271029   5.010   1.061   5.658  0.0707  0.5122 -0.1999
16513TIP3    H171030   4.969   1.119   5.721 -0.1585 -1.8312  1.8693
16513TIP3    H271031   4.942   0.997   5.635  1.2701 -0.8769  0.0457
16514TIP3   OH271032   2.379   3.624  11.651 -0.2522 -0.9752 -0.6928
16514TIP3    H171033   2.340   3.629  11.738  0.1394  2.4429 -0.6254
16514TIP3    H271034   2.473   3.627  11.667 -0.1087 -2.6001 -1.1608
16515TIP3   OH271035   3.898   4.926  11.650  0.6635 -0.1123  0.1697
16515TIP3    H171036   3.968   4.964  11.704  1.6385 -0.9314 -0.5067
16515TIP3    H271037   3.906   4.832  11.663  0.7683 -0.3049 -1.2290
16516TIP3   OH271038   5.431   1.188  14.395 -0.5662  0.1239  0.4758
16516TIP3    H171039   5.356   1.138  14.427  1.3264 -1.4996  2.5080
16516TIP3    H271040   5.405   1.218  14.308 -3.1763 -1.2187  0.7581
16517TIP3   OH271041   6.754   3.681  12.337  0.2062 -0.1030 -0.2854
16517TIP3    H171042   6.692   3.611  12.317 -0.4376  0.0890  0.9718
16517TIP3    H271043   6.772   3.722  12.253 -2.6352  0.8598 -0.4736
16518TIP3   OH271044   0.908   5.094   1.020 -0.9603  0.5011 -0.1715
16518TIP3    H171045   0.866   5.009   1.007 -1.1718  0.7357 -1.0841
16518TIP3    H271046   1.001   5.079   1.001 -0.8870  0.3337  0.3070
16519TIP3   OH271047   1.874   2.091   2.644 -0.6317  0.2762  0.6147
16519TIP3    H171048   1.846   2.035   2.716 -1.3406  0.2060  0.2925
16519TIP3    H271049   1.793   2.123   2.605 -0.3363 -1.4295 -1.5011
16520TIP3   OH271050   5.089   3.780  13.757 -0.3145 -0.2147 -0.1397
16520TIP3    H171051   4.998   3.777  13.728 -0.4986  0.0068  0.4123
16520TIP3    H271052   5.104   3.695  13.798 -1.0724  0.7015  2.1313
16521TIP3   OH271053   5.736   0.469   5.930 -0.2218 -0.3298  0.0953
16521TIP3    H171054   5.646   0.483   5.899 -0.5008 -1.3284  0.4431
16521TIP3    H271055   5.742   0.522   6.010 -0.2418  0.3734 -0.3635
16522TIP3   OH271056   3.607   5.979  12.174 -0.1723 -0.0448 -0.1326
16522TIP3    H171057   3.608   6.062  12.221 -1.2994  0.6005 -1.2118
16522TIP3    H271058   3.611   5.912  12.242 -0.6347  0.8796  0.8125
16523TIP3   OH271059   3.626   5.479   0.223  0.5738  0.4889  0.2943
16523TIP3    H171060   3.688   5.412   0.252  0.1934  0.6892  1.5744
16523TIP3    H271061   3.670   5.562   0.242 -0.2383  0.6395  1.5852
16524TIP3   OH271062   2.555   4.011  11.538 -0.7186  0.2224 -0.4475
16524TIP3    H171063   2.610   4.075  11.493  0.9595 -1.4674 -0.9171
16524TIP3    H271064   2.473   4.010  11.488 -0.2800  1.0888 -1.1965
16525TIP3   OH271065   1.034   1.245  17.093 -0.5052  0.2570 -0.1128
16525TIP3    H171066   0.995   1.306  17.156 -0.3540  1.1892 -0.9037
16525TIP3    H271067   1.060   1.300  17.019  1.1163 -0.5329 -0.1673
16526TIP3   OH271068   5.524   6.557   6.606 -0.4440  0.1278  0.8353
16526TIP3    H171069   5.469   6.632   6.629 -2.6504 -0.5830 -1.8860
16526TIP3    H271070   5.547   6.571   6.514 -0.7205 -2.3881  0.3519
16527TIP3   OH271071   1.304   3.158   0.481 -0.1870 -0.7189  0.6604
16527TIP3    H171072   1.325   3.193   0.568 -1.4888  3.1837 -0.5001
16527TIP3    H271073   1.213   3.186   0.465 -0.2424 -2.0889 -1.6248
16528TIP3   OH271074   3.817   3.525   0.392  0.5680  0.7481 -0.3818
16528TIP3    H171075   3.870   3.591   0.347  1.7588 -0.6977 -1.1790
16528TIP3    H271076   3.776   3.475   0.321 -0.4246  0.7184  0.2086
16529TIP3   OH271077   6.619   3.868   2.598  0.6034 -0.2035 -0.1780
16529TIP3    H171078   6.659   3.781   2.588  1.3232  0.4471 -3.4621
16529TIP3    H271079   6.561   3.858   2.674  3.0563 -2.6294  1.4887
16530TIP3   OH271080   6.346   2.020   5.469  0.3670 -0.1844  0.2776
16530TIP3    H171081   6.367   2.113   5.483 -0.9760  0.2327 -0.3947
16530TIP3    H271082   6.251   2.018   5.460  0.4347 -1.5744 -0.1980
16531TIP3   OH271083   2.707   2.979   5.709 -0.2772  0.2439  0.2942
16531TIP3    H171084   2.731   3.065   5.743  0.5683  0.1523 -0.0461
16531TIP3    H271085   2.786   2.948   5.664 -0.3209 -1.0291  1.0534
16532TIP3   OH271086   0.252   0.682   2.430 -0.0560 -0.3770  0.3491
16532TIP3    H171087   0.188   0.751   2.444 -0.8505 -1.1961  0.7939
16532TIP3    H271088   0.324   0.704   2.489 -0.1538  0.2624  0.2271
16533TIP3   OH271089   2.770   3.619   1.588 -0.5510  0.0755 -0.0720
16533TIP3    H171090   2.752   3.711   1.569  1.0771  0.4406  0.0683
16533TIP3    H271091   2.684   3.580   1.605 -1.3019  1.4391 -0.6955
16534TIP3   OH271092   3.911   6.555   1.326 -0.4092  0.2940  0.0040
16534TIP3    H171093   3.966   6.548   1.248 -0.7204 -0.4761 -0.1437
16534TIP3    H271094   3.959   6.616   1.383  1.1800 -1.2443  0.3582
16535TIP3   OH271095   6.452   3.641   5.974 -0.1381 -0.7588 -0.1207
16535TIP3    H171096   6.513   3.657   6.045  0.9478 -1.0369 -0.9650
16535TIP3    H271097   6.451   3.722   5.924 -1.6320 -0.2367  0.7440
16536TIP3   OH271098   5.812   0.922   5.288  0.0728  0.1695 -0.6308
16536TIP3    H171099   5.846   0.916   5.198  0.1373  0.8069 -0.6476
16536TIP3    H271100   5.871   0.982   5.332 -0.0003 -0.0930 -0.1750
16537TIP3   OH271101   4.434   4.195   0.801  0.0267  0.3994  0.4599
16537TIP3    H171102   4.377   4.121   0.777  0.9186 -0.4631  0.9925
16537TIP3    H271103   4.447   4.242   0.718 -2.0578  1.0361  0.4655
16538TIP3   OH271104   0.395   6.059  12.687  0.2604  0.2356  0.6815
16538TIP3    H171105   0.404   6.154  12.695  0.6271  0.4505 -1.8069
16538TIP3    H271106   0.329   6.047  12.618 -0.0786 -1.3146  1.2622
16539TIP3   OH271107   5.389   0.275  14.931 -0.2526  0.4646 -0.2699
16539TIP3    H171108   5.463   0.239  14.978  0.2675  2.0754  0.1623
16539TIP3    H271109   5.313   0.227  14.965  0.5639 -1.1253 -0.6574
16540TIP3   OH271110   1.460   0.001  12.541 -0.1943  0.0174  0.2445
16540TIP3    H171111   1.429   0.065  12.605 -1.1043 -0.0494 -0.1247
16540TIP3    H271112   1.450   0.045  12.456 -0.6607 -0.5458  0.0042
16541TIP3   OH271113   3.287   5.456  13.834 -0.1935 -0.4638  0.0490
16541TIP3    H171114   3.207   5.422  13.793 -0.4557 -0.8925  0.9153
16541TIP3    H271115   3.256   5.524  13.894  0.0479 -0.9629  0.7402
16542TIP3   OH271116   4.034   4.420  12.861  0.1265 -0.1305 -0.4087
16542TIP3    H171117   4.128   4.435  12.853  0.6321 -2.5221  0.5242
16542TIP3    H271118   4.012   4.366  12.786 -0.7710  1.4902 -1.3235
16543TIP3   OH271119   0.028   6.206  11.492 -0.4193 -0.2873 -0.4364
16543TIP3    H171120   0.109   6.157  11.506 -0.4851  0.2100  1.9033
16543TIP3    H271121  -0.030   6.144  11.449  0.2204 -1.5831  0.5324
16544TIP3   OH271122   5.115   4.718  14.023 -0.3187 -0.2021 -0.4138
16544TIP3    H171123   5.109   4.757  14.110  1.5886  1.6944 -1.0999
16544TIP3    H271124   5.140   4.627  14.039  1.0286  0.3926  1.0070
16545TIP3   OH271125   0.472   5.310  14.216 -0.1421  0.1786 -0.2460
16545TIP3    H171126   0.558   5.285  14.251  1.2599  0.8682 -3.0258
16545TIP3    H271127   0.436   5.370  14.281  2.0550  0.8515  0.4072
16546TIP3   OH271128   4.440   4.277  16.523 -0.0866  0.1768 -0.5413
16546TIP3    H171129   4.474   4.208  16.467 -0.1976 -1.2943  1.1592
16546TIP3    H271130   4.517   4.324  16.553  0.3013 -1.5547  1.2645
16547TIP3   OH271131   4.451   6.144  15.679 -0.2639  0.2424  0.2287
16547TIP3    H171132   4.467   6.121  15.587  1.5618  1.1460  0.2976
16547TIP3    H271133   4.399   6.071  15.713 -0.7348 -0.2344 -1.4442
16548TIP3   OH271134   1.443   1.319   4.254 -0.2841 -0.6257  0.0565
16548TIP3    H171135   1.520   1.263   4.261 -0.0231 -0.3795 -0.7418
16548TIP3    H271136   1.458   1.369   4.174  0.3566  1.9287  1.7255
16549TIP3   OH271137   4.962   2.430  15.023  0.0467 -0.8168  0.5274
16549TIP3    H171138   4.973   2.337  15.044  1.4764 -0.1839  2.6567
16549TIP3    H271139   5.049   2.468  15.036 -0.0043  0.4416 -2.4455
16550TIP3   OH271140   0.642   2.219   6.102  0.2072 -0.2146  0.0508
16550TIP3    H171141   0.626   2.295   6.159 -1.2234  1.1533 -2.0809
16550TIP3    H271142   0.597   2.147   6.144 -1.1109  0.8604  0.5160
16551TIP3   OH271143   3.281   5.644  15.057 -0.2569 -0.5288 -0.1373
16551TIP3    H171144   3.315   5.619  15.143 -0.5634 -0.5990 -0.0373
16551TIP3    H271145   3.356   5.635  14.998  0.3240  0.8857  0.3652
16552TIP3   OH271146   2.320   3.902   4.914  0.0489 -0.1102 -0.4697
16552TIP3    H171147   2.274   3.952   4.982 -0.3535  0.3070 -1.0475
16552TIP3    H271148   2.379   3.845   4.963 -0.4909 -0.0637  0.2444
16553TIP3   OH271149   1.068   1.029  14.516  0.4714 -0.2480  0.3780
16553TIP3    H171150   1.127   1.043  14.442  0.4175  1.6061  0.6716
16553TIP3    H271151   1.037   1.116  14.540 -0.9579 -1.0135  1.4161
16554TIP3   OH271152   4.222   1.547  13.037 -0.5621 -0.0706  0.4851
16554TIP3    H171153   4.163   1.472  13.045 -1.3097  0.4264 -0.2269
16554TIP3    H271154   4.235   1.576  13.128  0.1093 -1.3336  0.8016
16555TIP3   OH271155   3.220   0.422  14.848  0.1338 -0.1070  0.2848
16555TIP3    H171156   3.170   0.380  14.918  2.0971 -3.0292  0.0284
16555TIP3    H271157   3.166   0.496  14.821 -2.3047 -1.0142  2.4815
16556TIP3   OH271158   6.152   1.815   6.544 -0.0296  0.0062  0.2825
16556TIP3    H171159   6.189   1.903   6.547  0.0294 -0.0484  1.3027
16556TIP3    H271160   6.077   1.823   6.485  1.1093  0.2995 -1.1584
16557TIP3   OH271161   3.930   1.765  12.270  0.2124 -0.0826 -0.4906
16557TIP3    H171162   3.966   1.811  12.194 -0.4057 -1.3518 -1.5597
16557TIP3    H271163   3.993   1.695  12.287 -0.7376 -1.1177 -1.1700
16558TIP3   OH271164   0.505   1.598   3.215 -0.0339  0.1744  0.7882
16558TIP3    H171165   0.556   1.561   3.287  1.3648 -3.1228 -1.7763
16558TIP3    H271166   0.566   1.606   3.143 -2.2541 -0.2372 -1.2080
16559TIP3   OH271167   1.673   3.785   0.865 -0.2451  0.3755  0.1695
16559TIP3    H171168   1.612   3.827   0.926 -0.6923 -0.0675  0.0394
16559TIP3    H271169   1.623   3.778   0.783  0.2552  0.7189 -0.1698
16560TIP3   OH271170   4.364   4.021   6.222 -0.1644 -0.2921  0.4940
16560TIP3    H171171   4.382   3.946   6.165  1.2639  0.4205 -0.0200
16560TIP3    H271172   4.372   3.987   6.311  2.2601 -0.3605  0.2780
16561TIP3   OH271173   4.883   3.415  11.056 -0.3300 -0.1786  0.5852
16561TIP3    H171174   4.826   3.488  11.081 -0.9565 -0.8998  1.3024
16561TIP3    H271175   4.971   3.443  11.082 -0.7614 -0.2730  2.1745
16562TIP3   OH271176   4.009   5.902  13.800  0.8659  0.0616  0.3320
16562TIP3    H171177   3.939   5.923  13.862 -0.3657  0.9266 -1.3201
16562TIP3    H271178   3.991   5.813  13.771  1.7150 -0.5239  1.5328
16563TIP3   OH271179   4.764   0.331   1.641 -0.1393 -0.2819 -0.2671
16563TIP3    H171180   4.784   0.315   1.549  1.2847 -0.9908  0.1497
16563TIP3    H271181   4.832   0.284   1.689 -1.3427 -0.6113  1.1632
16564TIP3   OH271182   4.383   5.006  13.395  0.0240 -0.3238  0.0604
16564TIP3    H171183   4.466   4.984  13.353  1.1739 -0.7536  2.4819
16564TIP3    H271184   4.323   4.938  13.365  0.4624  0.1015 -1.8612
16565TIP3   OH271185   5.819   3.894  16.407 -0.4341 -0.0211  0.2151
16565TIP3    H171186   5.727   3.893  16.381 -0.4957  1.3885  0.3538
16565TIP3    H271187   5.865   3.934  16.333  0.4216 -2.8040 -0.8638
16566TIP3   OH271188   3.330   2.772   2.814  0.4495 -0.0989 -0.7006
16566TIP3    H171189   3.290   2.858   2.804 -0.7751 -0.9340 -3.1622
16566TIP3    H271190   3.385   2.781   2.893 -1.1552  2.3259  0.2056
16567TIP3   OH271191   4.285   0.875   5.606 -0.2184 -0.0221 -0.2151
16567TIP3    H171192   4.242   0.931   5.541 -0.7832 -0.6463 -0.3860
16567TIP3    H271193   4.319   0.936   5.672 -0.7004  0.5300 -0.4758
16568TIP3   OH271194   1.635   2.471  15.555  0.0188 -0.1666  0.2215
16568TIP3    H171195   1.651   2.564  15.568  0.4101 -0.2665  0.4766
16568TIP3    H271196   1.705   2.442  15.496 -1.6711  0.2595 -2.0698
16569TIP3   OH271197   3.437   3.469   1.844 -0.2614  0.0769  0.3277
16569TIP3    H171198   3.442   3.409   1.918 -0.0309 -0.9528 -0.5128
16569TIP3    H271199   3.388   3.422   1.777 -0.8802  1.1787 -0.0235
16570TIP3   OH271200   3.311   1.343  14.898  0.5946  0.4602 -0.2780
16570TIP3    H171201   3.322   1.318  14.807 -1.8894 -0.9766 -0.2354
16570TIP3    H271202   3.331   1.264  14.948 -0.9145  0.3604  0.2243
16571TIP3   OH271203   0.172   4.355  14.317  0.4466 -0.2585  0.9057
16571TIP3    H171204   0.106   4.293  14.347 -0.4556  0.3434  0.1908
16571TIP3    H271205   0.175   4.342  14.222  0.5873  0.4819  0.8097
16572TIP3   OH271206   3.520   0.602   1.231  0.4287 -0.0108 -0.1907
16572TIP3    H171207   3.436   0.625   1.270  0.6782  0.7208 -0.0862
16572TIP3    H271208   3.585   0.647   1.285  0.8992 -0.7115 -0.1673
16573TIP3   OH271209   3.482   3.286   5.314  0.4008  0.0105 -0.6569
16573TIP3    H171210   3.405   3.339   5.297  0.5011  0.3097 -0.1713
16573TIP3    H271211   3.545   3.346   5.355  0.2481 -0.6532  0.5683
16574TIP3   OH271212   1.664   0.770  14.747  0.3768 -0.1716  0.2114
16574TIP3    H171213   1.642   0.750  14.656  0.3896  0.0307  0.1645
16574TIP3    H271214   1.756   0.799  14.743  0.1149  0.6731  0.1708
16575TIP3   OH271215   3.549   5.180   0.481  0.8857 -0.2402  0.4569
16575TIP3    H171216   3.574   5.199   0.571  0.3626 -0.3368  0.6269
16575TIP3    H271217   3.536   5.085   0.479 -3.4788  0.2175  1.4491
16576TIP3   OH271218   6.779   2.127  13.125  0.5877  0.2389  0.5438
16576TIP3    H171219   6.738   2.211  13.141 -0.4491 -0.1476 -0.0431
16576TIP3    H271220   6.823   2.138  13.040  0.0373  0.0273  0.2338
16577TIP3   OH271221   4.231   5.008  11.614 -0.3884 -0.0944  0.2101
16577TIP3    H171222   4.169   5.078  11.636  1.0663  1.3216 -0.0582
16577TIP3    H271223   4.275   4.988  11.697  0.9790  1.1319 -0.1880
16578TIP3   OH271224   3.357   5.794   3.980 -0.4870  0.4276  0.3732
16578TIP3    H171225   3.334   5.801   4.073  0.2701 -1.7609  0.7518
16578TIP3    H271226   3.384   5.703   3.969  1.6165  1.2453 -1.5161
16579TIP3   OH271227   0.407   1.167  11.097  0.1592  0.4560  0.2487
16579TIP3    H171228   0.493   1.140  11.129  0.8323  3.1370  0.8298
16579TIP3    H271229   0.384   1.242  11.152 -3.0025 -0.8099  0.7401
16580TIP3   OH271230   3.733   3.790  14.310  0.5963  0.1171 -0.2399
16580TIP3    H171231   3.774   3.724  14.254  3.4361  0.0625  1.7954
16580TIP3    H271232   3.727   3.748  14.396 -1.9011  0.9035  0.0266
16581TIP3   OH271233   3.435   0.985  17.253  0.1134  0.5794  0.4390
16581TIP3    H171234   3.401   1.069  17.222  0.1196  0.2903 -0.3676
16581TIP3    H271235   3.490   1.007  17.328  0.5861  1.3595 -0.1331
16582TIP3   OH271236   5.275   4.752   4.232  0.0782  0.0784  0.9625
16582TIP3    H171237   5.277   4.846   4.212  1.8269  0.0334  0.8305
16582TIP3    H271238   5.297   4.747   4.325 -0.5839 -0.1692  1.1068
16583TIP3   OH271239   0.939   4.485  15.587 -0.0734 -0.3357 -0.0370
16583TIP3    H171240   1.008   4.499  15.653 -1.0864  0.6370  0.8313
16583TIP3    H271241   0.920   4.391  15.593  0.9871 -0.5687 -0.1050
16584TIP3   OH271242   2.899   2.004   4.076  0.3231 -0.1544 -0.7216
16584TIP3    H171243   2.811   1.979   4.048 -0.3844  1.2365  0.2451
16584TIP3    H271244   2.894   2.098   4.092  0.6681 -0.7809  3.9586
16585TIP3   OH271245   0.336   2.599   6.745  0.3356  0.6244 -0.2382
16585TIP3    H171246   0.365   2.551   6.823  0.5613 -0.4694 -0.9864
16585TIP3    H271247   0.259   2.551   6.715  0.2582  1.0349 -0.7057
16586TIP3   OH271248   4.887   3.085  13.655 -0.0348  0.1656  0.7542
16586TIP3    H171249   4.823   3.016  13.672  0.0915  0.4285  2.4112
16586TIP3    H271250   4.895   3.130  13.739 -1.5773  3.4380 -0.7615
16587TIP3   OH271251   0.973   4.774   1.063  0.1250  0.0967  0.2053
16587TIP3    H171252   0.983   4.694   1.114 -2.4907  0.2949  1.0980
16587TIP3    H271253   1.036   4.765   0.992  1.0581 -1.9780  1.2571
16588TIP3   OH271254   5.887   5.744  13.802  0.5532 -0.0612 -0.3173
16588TIP3    H171255   5.841   5.803  13.742  0.2540 -0.1037 -0.1304
16588TIP3    H271256   5.958   5.796  13.838 -0.1471  0.4006  0.3969
16589TIP3   OH271257   6.403   5.271   3.084 -0.4397  0.5102  0.1348
16589TIP3    H171258   6.336   5.335   3.106 -0.1189  0.9569 -0.1668
16589TIP3    H271259   6.356   5.203   3.035 -0.8492  0.3237  0.7818
16590TIP3   OH271260   6.690   0.133   5.641  0.5289  0.1780 -0.0105
16590TIP3    H171261   6.675   0.163   5.552  3.0034 -0.7663 -0.7843
16590TIP3    H271262   6.632   0.187   5.695 -1.1557  0.5934 -2.2007
16591TIP3   OH271263   3.046   6.206  15.892 -0.0393  0.4699  0.2357
16591TIP3    H171264   2.958   6.242  15.882 -0.0604 -0.0600 -1.6616
16591TIP3    H271265   3.032   6.119  15.931 -0.3244  0.5106  0.2269
16592TIP3   OH271266   3.655   2.870   2.821  0.5860 -0.1994  0.4296
16592TIP3    H171267   3.675   2.777   2.833  1.4143 -0.2068 -0.8251
16592TIP3    H271268   3.663   2.908   2.908  0.1801 -1.3153  0.9660
16593TIP3   OH271269   5.084   4.347  11.759  0.8753 -0.0104 -0.3899
16593TIP3    H171270   5.157   4.296  11.795 -0.4463 -1.1857  0.7154
16593TIP3    H271271   5.124   4.400  11.690  2.9943  0.3157  1.0208
16594TIP3   OH271272   5.416   3.460  13.605  0.1649 -0.2902 -0.1537
16594TIP3    H171273   5.489   3.422  13.556 -1.6357 -1.1261 -2.2763
16594TIP3    H271274   5.431   3.555  13.599  0.2526 -0.3995 -1.9082
16595TIP3   OH271275   5.872   5.304   3.180  0.5710  0.4429  0.4345
16595TIP3    H171276   5.962   5.290   3.151  0.0486  0.4046 -1.1952
16595TIP3    H271277   5.878   5.377   3.243  1.6108  1.0831 -0.3946
16596TIP3   OH271278   4.764   4.258  14.118  0.3217 -0.7211 -0.0980
16596TIP3    H171279   4.815   4.335  14.144  1.3304 -1.3135 -0.2962
16596TIP3    H271280   4.786   4.246  14.025  0.2014 -1.2685 -0.0564
16597TIP3   OH271281   1.048   5.874  14.437 -0.0731 -0.3059 -0.3630
16597TIP3    H171282   1.021   5.786  14.464 -1.9189 -0.0777 -1.3390
16597TIP3    H271283   1.141   5.866  14.418  0.2350 -1.5497  1.5532
16598TIP3   OH271284   4.149   1.757   5.707  0.7592 -0.3907  0.2355
16598TIP3    H171285   4.237   1.768   5.743  0.4477 -3.4834  2.1224
16598TIP3    H271286   4.114   1.680   5.753 -1.9422 -0.8133 -2.4010
16599TIP3   OH271287   3.221   6.224   0.058  0.5107 -0.3863 -0.3447
16599TIP3    H171288   3.247   6.151   0.002 -1.5450 -0.2871 -1.4514
16599TIP3    H271289   3.158   6.273   0.006 -0.0399  0.7628  1.3698
16600TIP3   OH271290   4.494   0.504  17.134  0.1393  0.1334  0.1128
16600TIP3    H171291   4.464   0.570  17.071 -0.2872 -1.1727 -1.0801
16600TIP3    H271292   4.588   0.521  17.144  0.2624  0.1935 -1.0874
16601TIP3   OH271293   6.807   3.665  16.003  0.0629  0.3229  0.3884
16601TIP3    H171294   6.794   3.754  15.970 -1.4373 -0.2774 -0.6593
16601TIP3    H271295   6.880   3.631  15.950 -1.2613 -0.0664 -1.2048
16602TIP3   OH271296   0.931   6.055  12.961 -0.2890  0.1277 -0.5438
16602TIP3    H171297   0.961   6.128  12.906  0.2691  0.4081  0.1126
16602TIP3    H271298   0.941   5.977  12.906 -0.4900  0.4993 -1.1080
16603TIP3   OH271299   2.748   2.530  13.167 -0.5216  0.2304 -0.5135
16603TIP3    H171300   2.785   2.592  13.104  1.5666 -0.2567  0.1882
16603TIP3    H271301   2.698   2.469  13.113 -1.1616  1.5037 -1.3900
16604TIP3   OH271302   1.956   6.113   1.238  0.1285 -0.2091 -0.2204
16604TIP3    H171303   2.031   6.094   1.182  0.2391  1.0314 -0.5073
16604TIP3    H271304   1.937   6.030   1.283  1.8055 -0.4615  0.0318
16605TIP3   OH271305   6.728   1.739  14.662  0.1876 -0.3471 -1.0230
16605TIP3    H171306   6.680   1.656  14.667 -0.2694 -0.0079  0.2631
16605TIP3    H271307   6.781   1.731  14.582  2.6531 -3.2276  0.7705
16606TIP3   OH271308   0.855   2.568   6.702  0.1445  0.3256  0.4254
16606TIP3    H171309   0.913   2.498   6.733 -0.1297  0.1606  0.5665
16606TIP3    H271310   0.803   2.527   6.633 -1.2864 -0.1315  1.7357
16607TIP3   OH271311   6.562   3.364   5.866  0.2441  0.0968 -0.2153
16607TIP3    H171312   6.532   3.413   5.790 -1.4602  1.1487  1.1086
16607TIP3    H271313   6.617   3.426   5.915 -2.1317  0.8328  1.5988
16608TIP3   OH271314   1.418   4.804   4.814  0.1495  0.2706  0.7595
16608TIP3    H171315   1.328   4.775   4.823  0.7538 -1.1469  2.5583
16608TIP3    H271316   1.430   4.867   4.885 -0.0356  2.0914 -0.7914
16609TIP3   OH271317   2.998   6.287   2.613  0.1059  0.5538  0.1736
16609TIP3    H171318   2.926   6.249   2.562  0.6011  0.7975 -0.7229
16609TIP3    H271319   3.077   6.262   2.564  0.6940 -0.3966  1.5724
16610TIP3   OH271320   3.462   5.223  14.584  0.4447 -0.0088  0.4010
16610TIP3    H171321   3.389   5.282  14.600  0.7866 -0.0396  2.2328
16610TIP3    H271322   3.436   5.141  14.624  0.3747 -0.8309 -1.3003
16611TIP3   OH271323   5.934   2.039  16.626  0.6309 -0.8956 -0.4818
16611TIP3    H171324   5.947   2.121  16.676 -1.5983 -0.6544 -0.2287
16611TIP3    H271325   5.982   2.053  16.545  1.3304  0.1576  0.0888
16612TIP3   OH271326   5.904   6.525   1.099  0.5807 -0.4709  0.3218
16612TIP3    H171327   5.830   6.503   1.156  0.9070  0.8571  1.2871
16612TIP3    H271328   5.919   6.446   1.047 -1.1002 -0.9714  0.5698
16613TIP3   OH271329   1.963   4.769   0.439  0.1814 -0.0662  0.1214
16613TIP3    H171330   2.007   4.698   0.487 -0.3717 -0.8967 -0.5955
16613TIP3    H271331   2.029   4.838   0.434  0.6842 -0.4702  0.9383
16614TIP3   OH271332   1.708   5.676   4.694  0.3764 -0.2482  0.7734
16614TIP3    H171333   1.640   5.637   4.640  1.6604  1.0264 -1.8759
16614TIP3    H271334   1.671   5.760   4.723  0.0076 -0.5386  1.1436
16615TIP3   OH271335   1.906   2.916   4.571  0.4322  0.2926  0.4708
16615TIP3    H171336   1.844   2.983   4.543 -0.0178 -0.4215 -0.2394
16615TIP3    H271337   1.917   2.859   4.495  1.5195  0.0834  0.7759
16616TIP3   OH271338   1.023   2.789   6.829  0.4422  0.7553  0.1187
16616TIP3    H171339   1.009   2.880   6.802 -1.1156  0.8287  1.1286
16616TIP3    H271340   1.118   2.779   6.831  0.6472  2.6069  0.8252
16617TIP3   OH271341   0.848   4.631  16.363 -0.6567 -0.5947 -0.1382
16617TIP3    H171342   0.819   4.702  16.420 -0.4739  0.7419 -1.6562
16617TIP3    H271343   0.908   4.673  16.302  1.2135 -2.5143  0.3379
16618TIP3   OH271344   6.054   3.096  15.177  0.3636  0.0005  0.3699
16618TIP3    H171345   6.116   3.148  15.229  0.5875 -0.6347  0.7405
16618TIP3    H271346   5.999   3.053  15.241  0.5486 -0.6770  0.0830
16619TIP3   OH271347   0.930   2.933   0.326 -0.0018  0.7589  0.3362
16619TIP3    H171348   0.914   2.839   0.319  0.7644  0.5657  1.1574
16619TIP3    H271349   1.024   2.940   0.346 -0.1370  1.6786  0.6725
16620TIP3   OH271350   1.849   5.264   1.968  0.0522  0.2526  0.1196
16620TIP3    H171351   1.826   5.192   2.027  1.2635 -1.0175 -0.9308
16620TIP3    H271352   1.825   5.232   1.881  2.1776  0.4336 -0.5546
16621TIP3   OH271353   6.221   2.849  14.821 -0.0787 -0.3389  0.0891
16621TIP3    H171354   6.133   2.820  14.795  0.9262 -2.4305 -1.0969
16621TIP3    H271355   6.280   2.793  14.771  1.9486  1.3094  0.5849
16622TIP3   OH271356   5.829   4.629  12.730 -0.5003 -0.0728 -0.4684
16622TIP3    H171357   5.875   4.712  12.741 -0.3481 -0.2312  0.0774
16622TIP3    H271358   5.896   4.569  12.696 -0.2256 -0.3826  0.6095
16623TIP3   OH271359   1.799   4.378   2.565  0.0433  0.3044 -0.5232
16623TIP3    H171360   1.838   4.291   2.567  1.1951  0.8241  1.1661
16623TIP3    H271361   1.776   4.392   2.473 -1.6112 -2.3735 -0.5653
16624TIP3   OH271362   2.143   5.688   5.471 -0.1287 -0.2265 -0.3908
16624TIP3    H171363   2.145   5.604   5.426  0.1854  0.7090 -2.1543
16624TIP3    H271364   2.104   5.668   5.557 -1.4508 -1.8951 -1.3501
16625TIP3   OH271365   4.715   2.095  16.060  0.5665  0.2856 -0.2388
16625TIP3    H171366   4.704   2.009  16.019  1.8020  0.9383 -1.9900
16625TIP3    H271367   4.703   2.078  16.153  0.1405 -1.6732 -0.6153
16626TIP3   OH271368   0.290   3.508  12.262  0.7278 -0.3934  0.0242
16626TIP3    H171369   0.202   3.533  12.292  1.2150  3.6762 -1.5629
16626TIP3    H271370   0.274   3.443  12.193 -0.9729 -0.5150  0.4980
16627TIP3   OH271371   0.642   0.441  11.353  0.1342  0.8622 -0.1604
16627TIP3    H171372   0.615   0.500  11.423 -0.2605  1.0092 -0.4396
16627TIP3    H271373   0.664   0.359  11.398 -0.4958  0.8309  0.0931
16628TIP3   OH271374   0.856   5.785   5.430 -0.1493 -0.1337 -0.0429
16628TIP3    H171375   0.773   5.770   5.383  0.2199  1.1276 -1.1132
16628TIP3    H271376   0.847   5.733   5.510 -1.4164 -1.1159 -0.7911
16629TIP3   OH271377   4.253   5.825   0.800 -0.1033 -0.0286 -0.2479
16629TIP3    H171378   4.259   5.741   0.845 -0.9511  0.0349 -0.0118
16629TIP3    H271379   4.277   5.805   0.709  1.7224 -0.1287  0.2543
16630TIP3   OH271380   1.503   6.662   6.344  0.3846 -0.1812 -0.0736
16630TIP3    H171381   1.417   6.661   6.303  0.5290  1.3753 -0.4477
16630TIP3    H271382   1.489   6.628   6.432 -0.7580  0.7613  0.1167
16631TIP3   OH271383   3.796   0.253   4.796 -0.1203 -0.0989  0.3728
16631TIP3    H171384   3.880   0.276   4.758 -1.2803  0.3571 -2.0080
16631TIP3    H271385   3.758   0.337   4.824 -0.6255 -0.0650 -0.3898
16632TIP3   OH271386   4.384   0.854   3.358 -0.1605  0.1473  0.2989
16632TIP3    H171387   4.444   0.891   3.294 -0.2117 -0.1672  0.0677
16632TIP3    H271388   4.395   0.759   3.349  1.6269  0.1204  2.4630
16633TIP3   OH271389   3.241   2.358  17.183 -0.2321 -0.4969  0.4989
16633TIP3    H171390   3.306   2.381  17.250  0.6699 -0.2396 -0.4401
16633TIP3    H271391   3.217   2.268  17.203 -0.2114 -0.3110  1.3691
16634TIP3   OH271392   2.953   2.495   0.326  0.1399  0.6192 -0.5505
16634TIP3    H171393   2.877   2.484   0.269 -0.2237  0.1386  0.0301
16634TIP3    H271394   3.013   2.425   0.298  0.1160  0.6145 -0.5919
16635TIP3   OH271395   1.728   3.698  11.953 -0.0048  0.1429  0.0839
16635TIP3    H171396   1.779   3.674  12.031 -0.0510 -1.6538 -0.4226
16635TIP3    H271397   1.793   3.714  11.885 -0.0144  0.4561  0.1481
16636TIP3   OH271398   5.248   0.649  12.715  0.0333  0.3131  0.2535
16636TIP3    H171399   5.329   0.694  12.738 -1.3039  3.3685 -0.6975
16636TIP3    H271400   5.178   0.705  12.750 -1.7391  0.1004 -2.6939
16637TIP3   OH271401   5.803   0.321   3.892  0.0324  0.2758 -0.3828
16637TIP3    H171402   5.860   0.396   3.908  1.0142 -0.7613  1.0655
16637TIP3    H271403   5.862   0.247   3.879 -0.9431 -0.7988  1.0574
16638TIP3   OH271404   2.181   6.760  14.783  0.0540  0.2783 -0.0108
16638TIP3    H171405   2.229   6.773  14.701  0.4296 -0.1648  0.1339
16638TIP3    H271406   2.240   6.708  14.837 -0.1624  0.6462  0.5756
16639TIP3   OH271407   1.464   1.540   0.824 -0.3430 -0.0223  0.7347
16639TIP3    H171408   1.404   1.484   0.776  0.7806 -1.0379  0.4948
16639TIP3    H271409   1.487   1.610   0.762  0.4493 -0.8588  0.0891
16640TIP3   OH271410   6.490   2.269  12.055  0.0335 -0.9081  0.2922
16640TIP3    H171411   6.551   2.342  12.068 -0.5044  0.0179 -2.1066
16640TIP3    H271412   6.406   2.302  12.086  0.0360 -0.9538  0.3488
16641TIP3   OH271413   2.695   6.427   1.029 -0.1928 -0.2499  0.1591
16641TIP3    H171414   2.706   6.432   0.935 -0.0502  0.1127  0.1926
16641TIP3    H271415   2.755   6.358   1.057  1.3747  1.1063  0.2372
16642TIP3   OH271416   1.017   2.537  15.363  0.2633  0.3887  0.2099
16642TIP3    H171417   0.957   2.592  15.412 -1.0855 -1.2033  0.3823
16642TIP3    H271418   1.010   2.451  15.403  2.0571 -0.0278 -0.2912
16643TIP3   OH271419   4.266   0.952   1.304 -0.4757  0.0073  0.4545
16643TIP3    H171420   4.336   0.898   1.340 -0.6541 -0.4549  0.1139
16643TIP3    H271421   4.265   1.030   1.359  1.8499  1.0946 -0.9279
16644TIP3   OH271422   2.419   0.335  10.921 -0.2205 -0.0222  0.3383
16644TIP3    H171423   2.419   0.301  10.831  1.1085 -1.1209  0.7301
16644TIP3    H271424   2.365   0.414  10.917  0.2687  0.2554 -1.5505
16645TIP3   OH271425   1.765   1.060  12.354  0.5142  0.3397  0.1077
16645TIP3    H171426   1.838   1.059  12.416 -1.2064 -0.3816  2.1737
16645TIP3    H271427   1.764   1.149  12.320  3.2340 -0.0179 -1.0332
16646TIP3   OH271428   3.972   1.724   4.837 -0.2909 -0.3258 -0.3347
16646TIP3    H171429   3.941   1.637   4.861  0.0308 -0.0515  1.1067
16646TIP3    H271430   3.945   1.781   4.909  0.2427  0.6107 -0.8597
16647TIP3   OH271431   5.656   3.937   5.356  0.4712 -0.5067  0.0792
16647TIP3    H171432   5.707   3.902   5.284 -0.5016 -0.8282 -0.4608
16647TIP3    H271433   5.588   3.989   5.314 -0.5230 -1.2655  0.7283
16648TIP3   OH271434   2.186   6.529   0.434  0.2206  0.4115  0.1686
16648TIP3    H171435   2.247   6.602   0.432  1.3926 -0.5378  0.4809
16648TIP3    H271436   2.103   6.567   0.461  0.2027  2.0363 -2.0093
16649TIP3   OH271437   3.020   0.809   4.932 -0.7384  0.2610 -0.1652
16649TIP3    H171438   3.003   0.835   4.842 -1.6846  2.9134  0.7372
16649TIP3    H271439   3.006   0.715   4.933  1.8319 -0.2464 -3.3546
16650TIP3   OH271440   6.336   0.507  14.594 -0.0404  0.6140 -0.2569
16650TIP3    H171441   6.413   0.481  14.544  1.1415 -1.3979  2.4854
16650TIP3    H271442   6.270   0.440  14.573  0.0979  0.3843  0.0409
16651TIP3   OH271443   4.017   5.155   3.348  0.4758 -0.3700  0.6275
16651TIP3    H171444   4.039   5.204   3.427 -0.8073  0.8015  0.2569
16651TIP3    H271445   3.992   5.068   3.381 -0.7630  0.3252  1.5881
16652TIP3   OH271446   5.957   3.102  14.903 -0.0619 -0.6675 -0.3924
16652TIP3    H171447   5.966   3.139  14.991  0.7461 -0.0034 -0.7494
16652TIP3    H271448   5.987   3.011  14.912  1.3785 -0.1895 -0.2828
16653TIP3   OH271449   5.075   2.420  13.817  0.4274 -0.1484 -0.0769
16653TIP3    H171450   5.063   2.432  13.722 -0.7735  1.8498  0.2962
16653TIP3    H271451   5.125   2.339  13.825  1.8333  0.4501 -2.4805
16654TIP3   OH271452   1.074   0.379  12.550 -0.2354  0.5541 -0.4508
16654TIP3    H171453   1.079   0.370  12.455 -0.8213  0.9877 -0.5265
16654TIP3    H271454   1.038   0.466  12.564  1.9865  1.3903  0.2254
16655TIP3   OH271455   0.007   6.509   5.833  0.7059 -0.0335 -0.2700
16655TIP3    H171456  -0.037   6.491   5.916  2.6654 -2.3612  0.3334
16655TIP3    H271457  -0.047   6.576   5.791 -2.0163 -1.0466  1.4820
16656TIP3   OH271458   3.298   3.863  14.816 -0.2072 -0.0559  0.0134
16656TIP3    H171459   3.382   3.819  14.830  0.4613  0.4258 -2.2804
16656TIP3    H271460   3.258   3.816  14.743 -1.1097  0.9029 -0.1201
16657TIP3   OH271461   6.268   1.651   3.449  0.2974  0.0811  0.0912
16657TIP3    H171462   6.182   1.627   3.413  0.8539 -0.8691 -0.6248
16657TIP3    H271463   6.282   1.590   3.521 -0.1401  0.9987  0.9641
16658TIP3   OH271464   2.756   1.192   0.554  0.2480  0.4493  0.3368
16658TIP3    H171465   2.666   1.222   0.566  0.3043  0.3544  1.0043
16658TIP3    H271466   2.784   1.163   0.640  1.1450  1.0976  0.2823
16659TIP3   OH271467   2.170   2.163   4.863 -0.1140  0.4356 -0.5493
16659TIP3    H171468   2.113   2.238   4.848 -0.9407 -0.0788  0.0281
16659TIP3    H271469   2.144   2.129   4.949  0.3945 -0.3888 -0.7116
16660TIP3   OH271470   3.733   3.246  16.041 -0.1071 -0.6844 -0.2379
16660TIP3    H171471   3.778   3.169  16.076  0.1605 -1.4260 -2.1575
16660TIP3    H271472   3.777   3.264  15.958  0.8357  2.4841  0.8705
16661TIP3   OH271473   0.018   5.469  17.097 -0.0735 -0.5145 -0.5144
16661TIP3    H171474   0.077   5.527  17.049  0.5600 -0.3594  0.4522
16661TIP3    H271475  -0.027   5.419  17.028 -1.1124  1.5669 -1.3702
16662TIP3   OH271476   3.815   5.952   4.022 -0.2176 -0.0245 -0.3205
16662TIP3    H171477   3.779   6.019   4.081 -0.3657 -0.6407  0.2914
16662TIP3    H271478   3.870   5.898   4.078  0.6066  0.1078 -0.9906
16663TIP3   OH271479   5.724   0.641  14.361  0.1606 -0.2977 -0.1069
16663TIP3    H171480   5.723   0.676  14.450 -1.9745  1.1765 -0.6792
16663TIP3    H271481   5.702   0.548  14.372  2.7796 -0.8431  1.1220
16664TIP3   OH271482   2.068   6.434  13.438 -0.5006  0.6330  0.5924
16664TIP3    H171483   2.057   6.438  13.533 -2.9379 -0.9740  0.4383
16664TIP3    H271484   2.063   6.341  13.417  0.0848  0.9607 -1.1106
16665TIP3   OH271485   6.629   4.432   2.599  0.3272 -0.2402  0.3819
16665TIP3    H171486   6.610   4.344   2.566  4.7662 -1.5278  0.8732
16665TIP3    H271487   6.651   4.483   2.521  0.4738 -0.3217  0.3710
16666TIP3   OH271488   0.358   0.759   0.322 -0.3062 -0.1467 -0.2678
16666TIP3    H171489   0.309   0.693   0.372 -0.0061 -0.0401  0.1648
16666TIP3    H271490   0.290   0.817   0.287 -0.5837 -0.7520 -0.7551
16667TIP3   OH271491   0.631   4.369   1.748 -0.4151 -0.4458  0.5221
16667TIP3    H171492   0.726   4.373   1.758 -0.3821 -1.3905  0.6308
16667TIP3    H271493   0.599   4.338   1.833 -0.7803 -0.5992  0.3316
16668TIP3   OH271494   3.992   2.767  16.879 -0.2360 -0.0472  0.8594
16668TIP3    H171495   3.931   2.722  16.937  0.1997 -1.2149  0.4202
16668TIP3    H271496   4.034   2.697  16.829  1.7364  0.7259  1.4038
16669TIP3   OH271497   5.265   5.663  16.745 -0.2399  0.2273  0.6957
16669TIP3    H171498   5.327   5.590  16.747 -0.9083 -0.3049  2.3475
16669TIP3    H271499   5.179   5.622  16.741 -0.6451  0.9070  2.1969
16670TIP3   OH271500   0.619   5.066   0.241  0.0843  0.0812  0.3250
16670TIP3    H171501   0.708   5.064   0.204  0.5244 -1.1920  1.3974
16670TIP3    H271502   0.620   4.998   0.308 -1.5558  0.4290  0.7175
16671TIP3   OH271503   4.424   3.704  13.607  0.1535  0.4789  0.3105
16671TIP3    H171504   4.450   3.664  13.690 -0.8400  1.6259  1.1931
16671TIP3    H271505   4.346   3.755  13.628  0.0131  0.9538 -1.2856
16672TIP3   OH271506   5.387   1.633  16.915  0.6804 -0.1384 -0.3451
16672TIP3    H171507   5.367   1.686  16.837 -1.0261  1.4117  1.0920
16672TIP3    H271508   5.305   1.588  16.935  1.5228 -1.6827 -0.2670
16673TIP3   OH271509   5.691   4.904  13.621 -0.0686 -0.1296  0.3967
16673TIP3    H171510   5.672   4.813  13.643 -1.3875  0.3827  1.4549
16673TIP3    H271511   5.740   4.900  13.539 -2.0206 -1.6736 -0.7184
16674TIP3   OH271512   0.511   1.300   4.973  0.5089 -0.0208  0.1147
16674TIP3    H171513   0.603   1.306   4.996  0.2595  0.0981  1.0896
16674TIP3    H271514   0.487   1.389   4.947  0.0968  0.4588  2.0710
16675TIP3   OH271515   3.316   1.416   5.191  0.0896 -0.7641 -0.6818
16675TIP3    H171516   3.273   1.450   5.112  1.5655 -0.2148 -1.2680
16675TIP3    H271517   3.357   1.335   5.163  0.1245 -0.8675 -0.3311
16676TIP3   OH271518   5.142   0.090   3.015  0.0758  0.2042 -0.6164
16676TIP3    H171519   5.126   0.184   3.028 -1.8425 -0.1439 -0.3140
16676TIP3    H271520   5.074   0.047   3.067 -1.0453 -1.3157 -3.2458
16677TIP3   OH271521   3.520   3.922   2.928 -0.0189  0.1627 -0.1900
16677TIP3    H171522   3.459   3.993   2.951  1.9357  1.7072  0.4144
16677TIP3    H271523   3.556   3.894   3.012  0.4776 -0.3900 -0.5888
16678TIP3   OH271524   2.126   4.368   4.096 -0.5003 -0.4005 -0.0138
16678TIP3    H171525   2.086   4.282   4.088 -0.1568 -0.7123  1.4481
16678TIP3    H271526   2.173   4.365   4.179  2.6300 -0.0895 -1.6614
16679TIP3   OH271527   0.336   1.114   0.511  0.0530  0.1262  0.3251
16679TIP3    H171528   0.262   1.174   0.518 -0.9767 -0.9889 -0.8231
16679TIP3    H271529   0.302   1.029   0.541  1.6324  0.1838  2.4331
16680TIP3   OH271530   3.797   1.784   5.067  0.1982  0.0180 -0.2550
16680TIP3    H171531   3.860   1.841   5.111  0.9896  1.1718 -2.7902
16680TIP3    H271532   3.716   1.835   5.063  0.1801 -0.0116 -0.2698
16681TIP3   OH271533   4.807   1.530  13.382  0.3418 -0.3185 -0.0264
16681TIP3    H171534   4.812   1.593  13.454 -0.2877 -0.3069  0.0164
16681TIP3    H271535   4.890   1.540  13.335  0.4312  0.2256  0.2380
16682TIP3   OH271536   2.652   0.036  12.174 -0.6230 -0.3535 -0.5521
16682TIP3    H171537   2.557   0.022  12.179 -0.5444 -2.0610 -3.1913
16682TIP3    H271538   2.690  -0.049  12.199  0.2137  0.1595 -0.0474
16683TIP3   OH271539   2.568   6.029  14.497 -0.4369 -0.3598  0.4374
16683TIP3    H171540   2.644   6.033  14.440 -2.2317 -0.6427 -2.0379
16683TIP3    H271541   2.604   6.032  14.586  2.4755 -1.1783 -0.6803
16684TIP3   OH271542   0.050   5.242  16.726  0.1133 -0.4977 -0.0773
16684TIP3    H171543  -0.005   5.170  16.695 -0.3117 -0.5193  0.7249
16684TIP3    H271544   0.132   5.199  16.752  0.6560 -0.4278 -1.5707
16685TIP3   OH271545   5.293   4.255   2.288  0.1224 -0.6761  0.5683
16685TIP3    H171546   5.302   4.178   2.232  1.0788 -0.6042  0.6151
16685TIP3    H271547   5.199   4.262   2.305 -0.0418 -1.4045 -0.0327
16686TIP3   OH271548   6.304   0.506   3.515  0.0450 -0.1132  0.0863
16686TIP3    H171549   6.230   0.485   3.573  1.0892  0.7025  1.7588
16686TIP3    H271550   6.295   0.446   3.441 -2.6369  0.3832 -0.0333
16687TIP3   OH271551   4.621   2.175   2.922 -0.2315  0.0964 -0.0597
16687TIP3    H171552   4.595   2.096   2.969  1.3625 -0.3824  0.0310
16687TIP3    H271553   4.541   2.227   2.917 -1.1949 -1.3266  0.2533
16688TIP3   OH271554   5.617   3.909   5.837  0.2071  0.1223 -0.0556
16688TIP3    H171555   5.621   3.911   5.933 -2.0976 -1.1433  0.1101
16688TIP3    H271556   5.707   3.890   5.810  0.4908 -1.6099  1.9494
16689TIP3   OH271557   5.013   0.875   2.659 -0.6013  0.9598  0.5505
16689TIP3    H171558   5.057   0.815   2.599 -0.4227  1.6980 -0.0769
16689TIP3    H271559   5.085   0.923   2.700 -0.7603  1.1463  0.6098
16690TIP3   OH271560   1.537   5.221  11.912  0.1420 -0.4685  0.6091
16690TIP3    H171561   1.562   5.258  11.997  2.0285 -1.3264  0.4628
16690TIP3    H271562   1.572   5.283  11.848 -0.1364 -0.4973  0.4268
16691TIP3   OH271563   5.928   2.108   0.331 -0.6842 -0.5319 -0.1362
16691TIP3    H171564   5.961   2.049   0.399  1.1054  1.0101  0.3800
16691TIP3    H271565   5.847   2.145   0.369  1.2722  1.7466  2.0214
16692TIP3   OH271566   3.770   3.682  12.179  0.0000 -0.3046 -0.5202
16692TIP3    H171567   3.853   3.726  12.163 -0.8511  1.6211  0.2509
16692TIP3    H271568   3.791   3.615  12.244  0.7750  0.8137  0.4025
16693TIP3   OH271569   1.836   1.622   6.605  0.5681  0.0325 -0.9274
16693TIP3    H171570   1.902   1.554   6.613 -0.4794 -0.9625 -0.6411
16693TIP3    H271571   1.784   1.615   6.685  1.4503  2.2467 -0.1174
16694TIP3   OH271572   6.578   0.548  14.775  0.0572  0.0152 -0.1777
16694TIP3    H171573   6.589   0.629  14.726 -4.2712  0.2666 -0.9198
16694TIP3    H271574   6.547   0.485  14.710 -2.4098 -0.5667  1.4601
16695TIP3   OH271575   4.609   0.169   0.413 -0.1845 -0.4346 -0.1528
16695TIP3    H171576   4.550   0.228   0.367 -1.3647  0.1353  2.0466
16695TIP3    H271577   4.568   0.082   0.405 -0.7011 -0.2370  0.3402
16696TIP3   OH271578   4.719   4.949  16.864  0.5873  0.2668 -0.1490
16696TIP3    H171579   4.670   5.025  16.894  0.5439  0.1118  0.1713
16696TIP3    H271580   4.761   4.914  16.943  2.4942  1.3308 -0.6509
16697TIP3   OH271581   0.577   3.659   4.286 -0.2687 -0.1790  0.0372
16697TIP3    H171582   0.579   3.570   4.323  0.9970  0.7070  2.1803
16697TIP3    H271583   0.645   3.706   4.334  1.3167  1.0907 -3.3602
16698TIP3   OH271584   2.310   4.525   5.773  0.3741  0.4164  0.1520
16698TIP3    H171585   2.251   4.455   5.800 -1.2217  1.9789  0.7703
16698TIP3    H271586   2.357   4.549   5.853 -0.0360  0.9596  0.2279
16699TIP3   OH271587   0.040   0.108   3.535  0.5911  0.3929 -0.6172
16699TIP3    H171588  -0.050   0.141   3.526  0.4065 -0.5809 -2.5514
16699TIP3    H271589   0.075   0.155   3.611 -1.8487  0.1095  0.7621
16700TIP3   OH271590   5.474   4.521   2.219 -0.5566  0.1153 -0.1837
16700TIP3    H171591   5.395   4.466   2.221  0.9143 -2.0378  2.6283
16700TIP3    H271592   5.453   4.594   2.278 -0.5600 -0.2857  0.3143
16701TIP3   OH271593   2.264   4.918  12.829 -0.5286  0.6043 -0.1376
16701TIP3    H171594   2.340   4.972  12.807  0.0698  0.6271  1.9184
16701TIP3    H271595   2.201   4.937  12.759  0.2143  2.8564 -0.2378
16702TIP3   OH271596   5.630   2.902  13.586  0.0220 -0.4688 -0.4997
16702TIP3    H171597   5.597   2.954  13.513 -1.0490 -1.5034 -0.7689
16702TIP3    H271598   5.684   2.963  13.636 -1.8022  1.1254 -0.4056
16703TIP3   OH271599   2.823   0.877   3.143 -0.0843  0.7849  0.4401
16703TIP3    H171600   2.819   0.789   3.179  0.3979 -0.4221 -2.2948
16703TIP3    H271601   2.749   0.882   3.082  0.8929  1.6358 -0.7119
16704TIP3   OH271602   0.977   5.761  13.452  0.0942 -0.2159 -0.4520
16704TIP3    H171603   1.059   5.716  13.430 -0.5581 -0.8950 -1.5179
16704TIP3    H271604   0.960   5.817  13.377 -1.1299 -1.0918 -0.8443
16705TIP3   OH271605   2.979   0.114  15.710  0.6885 -0.5744  0.2665
16705TIP3    H171606   2.884   0.113  15.704  0.6069  0.8226  1.1941
16705TIP3    H271607   2.998   0.082  15.798  1.0452 -0.1232  0.3579
16706TIP3   OH271608   6.165   1.044  16.860 -0.6360  0.2956  0.4000
16706TIP3    H171609   6.227   1.005  16.922  2.0458 -0.5856 -2.7340
16706TIP3    H271610   6.092   0.982  16.857  0.6940 -1.2966  0.2307
16707TIP3   OH271611   4.773   4.866  16.038 -0.1071  0.2767 -0.0834
16707TIP3    H171612   4.688   4.894  16.006 -0.2907  0.3533  0.4605
16707TIP3    H271613   4.836   4.905  15.978 -0.3512  2.0491  0.7835
16708TIP3   OH271614   2.975   2.756   0.352  0.4607  0.0359 -0.1549
16708TIP3    H171615   2.970   2.660   0.347  1.6621 -0.1432  1.6502
16708TIP3    H271616   3.044   2.779   0.290  0.6712 -0.3280 -0.0603
16709TIP3   OH271617   5.605   0.658   0.184 -0.4014 -0.0826  0.5104
16709TIP3    H171618   5.585   0.630   0.094  0.2466 -0.4313  0.4686
16709TIP3    H271619   5.672   0.596   0.213  1.1016  1.4427  0.3954
16710TIP3   OH271620   1.293   3.510  11.658  0.1860  0.1764  0.0254
16710TIP3    H171621   1.358   3.559  11.709  1.6388 -0.3392 -1.2897
16710TIP3    H271622   1.232   3.576  11.626  1.3085  0.9453 -0.5439
16711TIP3   OH271623   1.313   0.429  16.563  0.2136  0.2331 -0.4586
16711TIP3    H171624   1.385   0.367  16.572 -0.0902 -0.0925 -0.2659
16711TIP3    H271625   1.344   0.493  16.499  1.7174  1.5718  1.5501
16712TIP3   OH271626   3.297   1.723   1.456 -0.2655  0.1181  0.1436
16712TIP3    H171627   3.355   1.688   1.523 -0.0121  1.5908  0.7287
16712TIP3    H271628   3.354   1.777   1.401 -1.0134  1.4505  0.6335
16713TIP3   OH271629   3.036   0.389   3.366 -0.4920 -0.2754 -0.5181
16713TIP3    H171630   3.009   0.436   3.445  0.1129  0.7161 -0.8908
16713TIP3    H271631   3.105   0.330   3.397  1.5432  1.9149 -0.7118
16714TIP3   OH271632   3.206   3.596  16.109 -0.2882 -0.1654 -0.2833
16714TIP3    H171633   3.148   3.647  16.051 -2.3201 -0.7441  1.1976
16714TIP3    H271634   3.147   3.541  16.160  1.6812 -1.7644  0.3379
16715TIP3   OH271635   5.288   0.889   0.027  0.8949  0.8693 -0.2250
16715TIP3    H171636   5.266   0.835   0.103  2.4056 -0.7040 -0.8696
16715TIP3    H271637   5.380   0.912   0.039  0.7695  1.7522 -0.8892
16716TIP3   OH271638   6.437   3.094  12.285 -0.2525  0.3108 -0.0286
16716TIP3    H171639   6.400   3.172  12.244 -0.2280  0.6341  0.5643
16716TIP3    H271640   6.473   3.125  12.368  0.1313 -0.2522  0.0185
16717TIP3   OH271641   6.220   5.889   0.151  0.1198  0.4648  0.6348
16717TIP3    H171642   6.314   5.903   0.156  0.5185 -1.4324 -0.7875
16717TIP3    H271643   6.185   5.971   0.117  1.4312  0.6599 -0.2736
16718TIP3   OH271644   3.422   1.382   0.619  0.2350 -0.0786 -0.8069
16718TIP3    H171645   3.331   1.399   0.642 -0.6699 -1.2449 -3.4084
16718TIP3    H271646   3.418   1.332   0.538  3.2440  2.6907 -2.8112
16719TIP3   OH271647   5.094   1.320   4.506 -0.1563  0.3771  0.0488
16719TIP3    H171648   5.032   1.379   4.550  0.9841  1.7129 -0.1044
16719TIP3    H271649   5.155   1.293   4.575 -1.5377 -1.8587  0.4642
16720TIP3   OH271650   1.095   2.028   2.894 -0.6281 -0.2928 -0.2688
16720TIP3    H171651   1.029   2.089   2.860 -0.4680 -0.5342 -1.0334
16720TIP3    H271652   1.120   1.976   2.818  2.8584  1.9956 -0.7946
16721TIP3   OH271653   0.529   0.249  12.527 -0.0878 -0.3298  0.4472
16721TIP3    H171654   0.504   0.251  12.619 -0.1999  0.7358  0.4019
16721TIP3    H271655   0.482   0.324  12.488  0.6031 -0.2788 -0.3020
16722TIP3   OH271656   1.121   2.838   3.368  0.3845  0.7435 -0.5105
16722TIP3    H171657   1.207   2.859   3.331  0.0730  0.4537 -1.4164
16722TIP3    H271658   1.062   2.901   3.328  0.0978  0.6339 -0.2582
16723TIP3   OH271659   3.364   2.260  14.687 -0.4524  0.2201  0.6666
16723TIP3    H171660   3.277   2.299  14.673 -1.3684 -1.6840  0.8853
16723TIP3    H271661   3.350   2.166  14.675  1.1427 -0.3416  2.8826
16724TIP3   OH271662   1.014   3.891  11.413 -0.0791 -0.6240  0.5481
16724TIP3    H171663   1.001   3.838  11.492 -2.1855 -1.0469 -0.0543
16724TIP3    H271664   1.094   3.941  11.431 -0.6168 -0.5891  3.0177
16725TIP3   OH271665   5.878   5.692   5.467 -0.1607 -0.2730  0.4357
16725TIP3    H171666   5.904   5.706   5.376  0.7803 -1.1628  0.5538
16725TIP3    H271667   5.799   5.744   5.478  0.7016  1.2411 -0.3890
16726TIP3   OH271668   1.190   1.670   5.468  0.2034  0.3079  0.1750
16726TIP3    H171669   1.276   1.633   5.487  1.1543  1.6181 -1.4356
16726TIP3    H271670   1.193   1.691   5.375 -2.4876 -1.2112 -0.3254
16727TIP3   OH271671   5.846   1.741  11.984 -0.4975 -0.0430 -0.1332
16727TIP3    H171672   5.891   1.805  12.040  0.6502 -0.6409 -0.3505
16727TIP3    H271673   5.859   1.774  11.895  0.2939 -0.6776 -0.2636
16728TIP3   OH271674   3.316   5.378   5.227 -0.0917 -0.2376 -0.4196
16728TIP3    H171675   3.335   5.356   5.136  1.6020  0.4992 -0.2595
16728TIP3    H271676   3.220   5.372   5.234 -0.0621 -2.5017 -1.6508
16729TIP3   OH271677   2.861   6.440  14.117  0.2729  0.1185 -0.0729
16729TIP3    H171678   2.844   6.392  14.198  0.1177  1.9723  1.0346
16729TIP3    H271679   2.823   6.385  14.048  0.3075 -1.4271  1.1133
16730TIP3   OH271680   4.150   1.101   3.350 -0.1763 -0.7806 -0.1969
16730TIP3    H171681   4.135   1.010   3.376 -0.0697 -1.1836 -1.5320
16730TIP3    H271682   4.215   1.096   3.280 -0.7667  0.2722 -0.8338
16731TIP3   OH271683   3.421   1.256  11.237  0.3548  0.4579  0.0667
16731TIP3    H171684   3.509   1.220  11.224 -0.2246 -0.1271 -2.3318
16731TIP3    H271685   3.429   1.309  11.317  2.7668  0.0403  0.1392
16732TIP3   OH271686   5.852   3.467   2.336 -0.0154 -0.0111  0.1365
16732TIP3    H171687   5.906   3.419   2.399  1.3562 -0.4794 -1.3630
16732TIP3    H271688   5.795   3.400   2.298  0.3539 -0.0615 -0.3415
16733TIP3   OH271689   1.814   3.096   4.176 -0.1440  0.0835  0.0330
16733TIP3    H171690   1.900   3.057   4.191 -0.7889 -1.4078 -0.0201
16733TIP3    H271691   1.827   3.155   4.101  0.2674 -2.1683 -1.7386
16734TIP3   OH271692   0.171   0.513   6.220 -0.4341 -0.4489  0.2480
16734TIP3    H171693   0.210   0.593   6.184 -0.2622 -0.0189  1.3694
16734TIP3    H271694   0.144   0.463   6.143 -0.5543  0.6973 -0.4642
16735TIP3   OH271695   5.071   1.874  14.018 -0.2042 -0.4803 -0.4846
16735TIP3    H171696   4.981   1.866  13.984 -0.3970  2.0518 -0.6521
16735TIP3    H271697   5.062   1.928  14.097  1.0671 -0.9653 -0.0026
16736TIP3   OH271698   6.661   3.889  17.232  0.6925 -0.1648  0.2642
16736TIP3    H171699   6.606   3.841  17.169  0.9542 -0.8039  0.5224
16736TIP3    H271700   6.599   3.928  17.293  0.5400 -1.1765  0.7580
16737TIP3   OH271701   1.537   0.147  15.276  0.6551  0.6509 -1.0890
16737TIP3    H171702   1.480   0.118  15.205  0.7699  1.7759 -1.6428
16737TIP3    H271703   1.531   0.242  15.275  1.4145  0.7176 -0.2144
16738TIP3   OH271704   3.667   2.982   5.633 -0.7929  0.1444 -0.3904
16738TIP3    H171705   3.731   2.983   5.705 -0.2193  0.4923 -0.9073
16738TIP3    H271706   3.582   2.981   5.677 -0.4336 -0.7000  0.3055
16739TIP3   OH271707   3.608   6.231   0.831 -0.0076  0.5787  0.1518
16739TIP3    H171708   3.641   6.165   0.892 -0.3130 -0.5727 -0.9334
16739TIP3    H271709   3.556   6.290   0.886  0.4732  0.0734  1.1612
16740TIP3   OH271710   5.330   1.992  14.360  0.3626 -0.2443  0.2374
16740TIP3    H171711   5.255   1.933  14.364  0.6131 -0.5750  0.0649
16740TIP3    H271712   5.406   1.934  14.357  0.5413  0.0636 -1.6405
16741TIP3   OH271713   4.878   6.616   5.507 -0.0610  0.1123 -0.0103
16741TIP3    H171714   4.807   6.590   5.566 -1.0632 -0.7230 -1.5715
16741TIP3    H271715   4.844   6.694   5.462 -1.0472 -1.7609 -2.6253
16742TIP3   OH271716   0.199   2.457   1.515 -0.3422  0.1273  0.2523
16742TIP3    H171717   0.108   2.430   1.506 -0.4508  0.0228  1.5681
16742TIP3    H271718   0.194   2.552   1.528 -0.1965  0.2602 -0.6310
16743TIP3   OH271719   2.251   6.052   3.049 -0.3156 -0.1386 -0.1584
16743TIP3    H171720   2.213   6.127   3.094 -0.8698 -1.4165  1.5615
16743TIP3    H271721   2.343   6.075   3.037 -0.1163  0.1894  1.8057
16744TIP3   OH271722   2.470   3.134   2.524 -0.1799 -0.3013  0.1833
16744TIP3    H171723   2.514   3.135   2.439  0.5719  0.0732  0.5695
16744TIP3    H271724   2.382   3.101   2.505 -0.3774  0.8036 -0.9131
16745TIP3   OH271725   5.318   1.175  16.371  0.0925 -0.4563 -0.1084
16745TIP3    H171726   5.333   1.209  16.283  2.2725 -1.1168 -0.0232
16745TIP3    H271727   5.286   1.250  16.421  1.2145  0.5362 -0.8489
16746TIP3   OH271728   5.990   0.851   2.002  0.2614  0.1016 -0.0025
16746TIP3    H171729   6.045   0.826   2.077 -1.3344 -1.9005  0.5344
16746TIP3    H271730   5.901   0.845   2.035 -0.4979 -1.6634 -2.3099
16747TIP3   OH271731   5.198   6.671   0.700  0.0687  0.0005  0.4653
16747TIP3    H171732   5.260   6.633   0.637 -0.8124 -1.4069  0.4328
16747TIP3    H271733   5.123   6.612   0.698 -0.2065  0.2739  2.4175
16748TIP3   OH271734   0.121   6.035   4.180  0.5481  0.1089  0.0979
16748TIP3    H171735   0.172   6.034   4.099  0.1161  0.5991 -0.1863
16748TIP3    H271736   0.030   6.040   4.150  0.3844  0.1637  0.6120
16749TIP3   OH271737   4.298   1.469  14.438 -0.1347 -0.0577  0.2949
16749TIP3    H171738   4.384   1.433  14.418 -0.0945 -0.4624  1.1675
16749TIP3    H271739   4.308   1.507  14.525 -0.8599 -0.2090  0.4491
16750TIP3   OH271740   0.270   2.065   3.318  0.5334 -0.1210 -0.3519
16750TIP3    H171741   0.299   2.153   3.343  0.2441  0.2882 -1.4570
16750TIP3    H271742   0.185   2.054   3.360  0.5101  0.1749 -0.3238
16751TIP3   OH271743   1.451   4.296  14.650 -0.1300 -0.2033  0.1565
16751TIP3    H171744   1.392   4.282  14.576  0.0022 -1.5651  0.2962
16751TIP3    H271745   1.417   4.375  14.694 -0.9421 -0.1134 -0.6308
16752TIP3   OH271746   2.042   3.588  11.152 -0.1346  0.2924 -0.0288
16752TIP3    H171747   2.137   3.575  11.159  0.1261  1.0930 -1.7566
16752TIP3    H271748   2.005   3.501  11.164  0.6663  0.3150  2.9186
16753TIP3   OH271749   6.140   0.107  13.228  0.4654 -0.0151  0.1067
16753TIP3    H171750   6.215   0.116  13.287  0.3028 -0.4189  0.3779
16753TIP3    H271751   6.171   0.142  13.145  1.2755 -1.0791 -0.0463
16754TIP3   OH271752   1.439   1.325   5.158 -0.7169 -0.3473  0.5580
16754TIP3    H171753   1.459   1.336   5.251 -0.3327  1.2640  0.3081
16754TIP3    H271754   1.454   1.412   5.120  2.9159 -1.8716 -1.7182
16755TIP3   OH271755   0.388   5.920  17.200 -0.1747 -0.4712  0.0728
16755TIP3    H171756   0.374   6.002  17.247 -0.5992 -0.1627 -0.5986
16755TIP3    H271757   0.303   5.877  17.200 -0.0841 -0.6510 -0.0771
16756TIP3   OH271758   5.009   0.178   5.008 -0.6766  0.9649  0.3100
16756TIP3    H171759   5.098   0.205   5.032 -0.0658 -0.8191  0.1147
16756TIP3    H271760   5.009   0.182   4.912  0.0381 -1.5658  0.1808
16757TIP3   OH271761   0.682   0.346  11.105  0.0171  0.1765  0.5063
16757TIP3    H171762   0.773   0.319  11.122  0.2019  0.6663  0.3084
16757TIP3    H271763   0.642   0.352  11.191  0.1853 -0.0090  0.5989
16758TIP3   OH271764   2.379   5.948  12.717 -0.1403  0.7240  0.6108
16758TIP3    H171765   2.300   5.948  12.663  0.5267 -1.1289 -0.4361
16758TIP3    H271766   2.364   5.879  12.781  0.8024  0.0559  0.1220
16759TIP3   OH271767   2.791   4.067   1.102 -0.1842  0.2369 -0.3543
16759TIP3    H171768   2.884   4.047   1.116  0.0433  1.0546 -0.6403
16759TIP3    H271769   2.745   4.012   1.165  0.5235  0.1095  0.0652
16760TIP3   OH271770   5.809   2.693   5.590  0.1033 -0.0995 -0.2934
16760TIP3    H171771   5.770   2.606   5.603  0.9499 -0.4088  0.2153
16760TIP3    H271772   5.903   2.676   5.583  0.4569  0.9484  1.5582
16761TIP3   OH271773   0.245   5.089  13.714 -0.0734  0.4659  0.0887
16761TIP3    H171774   0.321   5.033  13.729  0.1029  0.9594  1.0471
16761TIP3    H271775   0.273   5.176  13.740 -1.3025  0.4608  1.4679
16762TIP3   OH271776   5.315   2.800  15.934 -0.9231  0.0847 -0.0578
16762TIP3    H171777   5.331   2.879  15.985  0.3902  0.0479 -0.4023
16762TIP3    H271778   5.386   2.797  15.870 -1.5322 -0.8290 -0.7159
16763TIP3   OH271779   5.793   0.326   2.218  0.0362 -0.4375 -0.0423
16763TIP3    H171780   5.796   0.246   2.270  0.5153 -0.9687 -0.8934
16763TIP3    H271781   5.837   0.304   2.136  0.3386  0.7477 -0.2077
16764TIP3   OH271782   2.205   2.643   5.256 -0.6834 -0.3304 -0.2089
16764TIP3    H171783   2.122   2.602   5.277 -0.4590 -1.3280 -1.2279
16764TIP3    H271784   2.263   2.619   5.328 -0.6944 -1.3759 -0.5472
16765TIP3   OH271785   2.646   0.477   3.984  0.4878  0.1902  0.6213
16765TIP3    H171786   2.651   0.444   4.073 -0.2368 -1.4461  0.0644
16765TIP3    H271787   2.598   0.410   3.935 -1.0558  2.0589 -0.5241
16766TIP3   OH271788   2.912   1.244  14.199  0.0456  0.0550 -0.2786
16766TIP3    H171789   2.887   1.332  14.227  1.3726  0.0369  1.0299
16766TIP3    H271790   2.995   1.256  14.154  0.7834 -0.6423  0.8680
16767TIP3   OH271791   0.833   3.152  12.947 -0.2654 -0.4472  0.1983
16767TIP3    H171792   0.876   3.118  12.869  1.7759  0.2798  0.9912
16767TIP3    H271793   0.742   3.124  12.938  0.1266 -1.0703 -2.0261
16768TIP3   OH271794   5.942   4.437   0.634 -0.0903 -0.3777  0.1169
16768TIP3    H171795   5.945   4.365   0.697  3.1288  0.2623  0.7978
16768TIP3    H271796   5.971   4.513   0.684  0.2593  0.6048 -1.5506
16769TIP3   OH271797   2.094   3.198   4.628  0.0245  0.4159  0.2925
16769TIP3    H171798   2.158   3.136   4.594  0.0689  1.1590 -1.0152
16769TIP3    H271799   2.045   3.226   4.551 -1.0537  0.8009  1.1034
16770TIP3   OH271800   3.221   5.596  12.229  0.3111  0.7372 -0.2716
16770TIP3    H171801   3.316   5.592  12.217  0.1890  1.0052 -1.3760
16770TIP3    H271802   3.199   5.512  12.269  0.7423 -0.2555 -2.0602
16771TIP3   OH271803   0.817   5.818  11.970 -0.0582 -0.3784  0.3869
16771TIP3    H171804   0.790   5.789  11.883 -0.7644  1.0650  0.1184
16771TIP3    H271805   0.910   5.835  11.961 -0.1938  0.0834 -0.1723
16772TIP3   OH271806   2.230   2.381   2.146  0.7099  0.0539 -0.1167
16772TIP3    H171807   2.190   2.299   2.118  1.8666 -0.9877  1.1895
16772TIP3    H271808   2.157   2.443   2.148 -0.9299 -1.8128  2.2924
16773TIP3   OH271809   5.383   2.804  14.931 -0.5060  0.5012  1.0570
16773TIP3    H171810   5.435   2.758  14.866 -0.4633  0.1452  1.3362
16773TIP3    H271811   5.293   2.801  14.897 -0.5135  0.1487  1.1039
16774TIP3   OH271812   4.984   1.254  14.473  0.0967 -0.7260  0.3433
16774TIP3    H171813   5.010   1.231  14.562 -0.1913 -0.1587  0.5818
16774TIP3    H271814   4.930   1.181  14.443 -3.0368  0.7642  2.0565
16775TIP3   OH271815   3.706   0.263   0.475 -0.5499 -0.4386  0.2682
16775TIP3    H171816   3.612   0.250   0.467 -0.6184 -0.7906  1.5731
16775TIP3    H271817   3.715   0.352   0.507 -0.3422  0.3484 -1.8931
16776TIP3   OH271818   0.432   5.470   6.400 -0.2142 -0.2471 -0.5576
16776TIP3    H171819   0.365   5.489   6.334 -0.2930 -2.1005 -1.0151
16776TIP3    H271820   0.504   5.430   6.351  0.4517 -0.0159  0.2253
16777TIP3   OH271821   4.558   0.049  16.066  0.5930  0.1890  0.6224
16777TIP3    H171822   4.508   0.027  15.988 -2.7709 -0.0162  2.7510
16777TIP3    H271823   4.594   0.136  16.047 -0.3440  0.2270 -1.0614
16778TIP3   OH271824   3.256   2.967   3.147  0.1715  0.3693 -0.1487
16778TIP3    H171825   3.169   2.930   3.132  0.1869  0.4846 -0.5355
16778TIP3    H271826   3.304   2.897   3.192 -0.1479  0.3408  0.1525
16779TIP3   OH271827   2.221   4.494  14.181  0.0768  0.6974 -0.0301
16779TIP3    H171828   2.223   4.470  14.088 -0.4879  1.7477 -0.3258
16779TIP3    H271829   2.308   4.531  14.198 -0.0379  1.1099 -0.3169
16780TIP3   OH271830   4.750   3.371   3.660 -0.4411  0.1966  0.2350
16780TIP3    H171831   4.787   3.361   3.748  1.8214 -0.2193 -0.7431
16780TIP3    H271832   4.684   3.440   3.670  0.4756  0.8365  2.0504
16781TIP3   OH271833   3.660   2.531   1.958 -0.4646 -0.2524 -0.7238
16781TIP3    H171834   3.586   2.493   2.005 -0.3350 -1.4540 -1.4734
16781TIP3    H271835   3.620   2.595   1.898 -0.8970 -0.8896 -1.1209
16782TIP3   OH271836   5.638   4.633  13.743 -0.0676  0.3055  0.5456
16782TIP3    H171837   5.604   4.564  13.801 -0.6239  0.5669  0.5339
16782TIP3    H271838   5.569   4.699  13.743  0.4674  0.8609  0.5495
16783TIP3   OH271839   2.398   2.245   1.894  0.1479  0.4702 -0.0931
16783TIP3    H171840   2.311   2.211   1.871  0.6804 -0.1450 -1.2385
16783TIP3    H271841   2.451   2.167   1.909  1.0035  0.8028 -1.3246
16784TIP3   OH271842   0.906   6.348   2.284  0.2170  0.6407 -0.2187
16784TIP3    H171843   0.812   6.367   2.281 -0.1670 -1.2580 -3.0478
16784TIP3    H271844   0.948   6.431   2.264 -0.9258  1.2825  0.0162
16785TIP3   OH271845   0.237   4.754  15.593 -0.5134 -0.2091  0.1160
16785TIP3    H171846   0.251   4.784  15.683 -1.6379 -0.5901  0.4289
16785TIP3    H271847   0.227   4.659  15.601 -0.6820 -0.2385 -0.4074
16786TIP3   OH271848   5.314   5.557  12.501 -0.0987  0.7019  0.0413
16786TIP3    H171849   5.366   5.560  12.581 -1.0697  0.9245  0.6785
16786TIP3    H271850   5.223   5.558  12.532 -0.4802  0.5872 -1.0579
16787TIP3   OH271851   3.499   5.698  17.278 -0.2782  1.1487  0.3094
16787TIP3    H171852   3.521   5.784  17.314 -0.0506  0.8159  0.9696
16787TIP3    H271853   3.557   5.637  17.324 -0.2159  0.6794 -0.3811
16788TIP3   OH271854   0.093   0.665  14.885 -0.7163 -0.5374  0.6085
16788TIP3    H171855   0.163   0.730  14.881  0.2277 -1.5528  0.6438
16788TIP3    H271856   0.130   0.587  14.845 -2.0619 -0.8760 -0.0093
16789TIP3   OH271857   6.130   1.634  14.927  0.5231 -0.1352  0.0397
16789TIP3    H171858   6.129   1.605  15.018 -0.3055 -2.2609 -0.6037
16789TIP3    H271859   6.223   1.636  14.903  0.7301  0.2318  0.8520
16790TIP3   OH271860   4.879   4.004   5.733  0.4267  0.3994  0.2024
16790TIP3    H171861   4.881   4.081   5.676  0.3150 -0.2820 -0.7271
16790TIP3    H271862   4.938   3.941   5.691 -0.0567 -0.2995  0.5657
16791TIP3   OH271863   0.872   0.726   6.117 -0.7848  0.1558 -0.5289
16791TIP3    H171864   0.923   0.805   6.132 -1.2233  0.3441  0.0254
16791TIP3    H271865   0.913   0.683   6.042 -0.9188  1.2194 -1.2124
16792TIP3   OH271866   0.703   4.162   4.415  0.3188 -0.1641 -0.0587
16792TIP3    H171867   0.647   4.230   4.451  3.7076  2.2386  0.9608
16792TIP3    H271868   0.668   4.145   4.327 -2.1556  0.9576  0.6783
16793TIP3   OH271869   5.491   3.237  12.481 -0.8345  0.3290 -0.0453
16793TIP3    H171870   5.440   3.178  12.537  1.9578 -1.4746  0.7211
16793TIP3    H271871   5.459   3.220  12.392 -2.6360  0.4094  0.5646
16794TIP3   OH271872   5.796   5.330   1.628 -0.8444 -0.1933  0.3185
16794TIP3    H171873   5.799   5.252   1.683 -0.3077 -0.8364 -0.6169
16794TIP3    H271874   5.886   5.341   1.597 -1.5273 -1.0287 -2.0668
16795TIP3   OH271875   5.263   4.474   6.166  0.2450  0.4285 -0.2376
16795TIP3    H171876   5.199   4.545   6.159  1.5844  1.4590 -2.3792
16795TIP3    H271877   5.268   4.437   6.078 -0.1040 -2.0700  0.7502
16796TIP3   OH271878   6.333   5.453  16.762  0.8371 -0.1457  0.1630
16796TIP3    H171879   6.327   5.392  16.836 -0.2621  1.8582  1.7563
16796TIP3    H271880   6.417   5.498  16.776  0.3155  0.7079  0.5890
16797TIP3   OH271881   4.417   5.713  14.238 -0.1936  0.1633 -0.2056
16797TIP3    H171882   4.404   5.805  14.213  2.9736  0.5961 -0.4588
16797TIP3    H271883   4.447   5.718  14.329  0.5845 -0.5969 -0.4238
16798TIP3   OH271884   5.995   5.059   4.391  0.4146 -0.6312  0.3252
16798TIP3    H171885   6.043   5.009   4.458  0.8622  0.3840  0.7818
16798TIP3    H271886   6.017   5.151   4.410  1.7144 -0.4156 -2.1297
16799TIP3   OH271887   3.888   6.624   5.050  0.1719 -0.6947 -0.6344
16799TIP3    H171888   3.887   6.715   5.021  1.0127 -0.6752 -0.6113
16799TIP3    H271889   3.803   6.611   5.091 -0.6610 -0.4452 -2.2398
16800TIP3   OH271890   2.904   4.347  15.635  0.7318  0.3144 -0.3381
16800TIP3    H171891   2.969   4.412  15.661  1.5388 -0.8760  0.6857
16800TIP3    H271892   2.835   4.354  15.700  1.0340 -0.1541  0.0381
16801TIP3   OH271893   1.882   1.938   4.866  0.0030 -0.0623 -0.2111
16801TIP3    H171894   1.843   1.996   4.801  0.2769  0.4929  0.1125
16801TIP3    H271895   1.851   1.972   4.950 -1.1235 -1.3482 -0.0830
16802TIP3   OH271896   0.897   4.404   3.490  0.6706 -0.5794  0.3648
16802TIP3    H171897   0.850   4.320   3.490  2.4455 -1.5845  0.1652
16802TIP3    H271898   0.853   4.456   3.557  0.4359 -2.1688  1.4680
16803TIP3   OH271899   0.602   5.491   4.971  0.0212  0.0728 -0.6164
16803TIP3    H171900   0.684   5.494   4.921  0.2085 -0.9266 -0.3903
16803TIP3    H271901   0.560   5.575   4.954  1.9251  1.3206  0.7051
16804TIP3   OH271902   3.457   2.691   1.506  0.7879  0.2135  0.0646
16804TIP3    H171903   3.520   2.762   1.516  1.4197 -0.3420  0.0545
16804TIP3    H271904   3.433   2.693   1.413 -1.9928  2.7600  0.7918
16805TIP3   OH271905   6.773   1.864  11.147 -0.0747 -0.0982 -0.1045
16805TIP3    H171906   6.856   1.910  11.143 -0.0252  0.1214  2.5742
16805TIP3    H271907   6.708   1.931  11.167 -0.6782 -0.5070 -0.6396
16806TIP3   OH271908   5.693   6.615   2.242 -0.0913 -0.0127 -0.4406
16806TIP3    H171909   5.715   6.624   2.335  0.3148  0.4756 -0.5821
16806TIP3    H271910   5.711   6.523   2.222 -0.3912 -0.1747  0.0157
16807TIP3   OH271911   3.713   3.947   3.375 -0.1842 -0.0264  0.1436
16807TIP3    H171912   3.635   3.997   3.401  0.4566 -0.1263  2.3820
16807TIP3    H271913   3.785   4.009   3.384  0.1681 -0.3213 -0.6428
16808TIP3   OH271914   2.465   6.235  11.539  0.5047  0.2146  0.1500
16808TIP3    H171915   2.514   6.310  11.506  0.8166 -0.1292 -0.1704
16808TIP3    H271916   2.529   6.184  11.589  0.3089  0.1295  0.3173
16809TIP3   OH271917   2.407   4.114  13.598 -0.4050  0.1272  0.2587
16809TIP3    H171918   2.411   4.040  13.538 -1.8891 -0.6888  1.1245
16809TIP3    H271919   2.335   4.168  13.564  0.1423  0.7537  0.0925
16810TIP3   OH271920   3.811   6.723   2.925 -0.2792 -0.0016  0.0934
16810TIP3    H171921   3.876   6.735   2.994 -0.0410 -0.8924  0.0342
16810TIP3    H271922   3.850   6.765   2.848  0.6331 -1.2793 -0.1688
16811TIP3   OH271923   3.418   5.604  10.310  0.2038 -0.1215 -0.9190
16811TIP3    H171924   3.332   5.620  10.270 -0.2280 -1.9304 -0.8024
16811TIP3    H271925   3.403   5.529  10.368  1.7930 -0.2615 -0.6658
16812TIP3   OH271926   5.422   6.167  13.030  0.7087  0.0665  0.2608
16812TIP3    H171927   5.390   6.248  12.990  2.8271  0.7244 -0.1200
16812TIP3    H271928   5.351   6.104  13.014 -0.2353  1.3856 -0.9205
16813TIP3   OH271929   0.890   0.500   0.994 -0.1268  0.3333 -0.1339
16813TIP3    H171930   0.856   0.551   0.920  1.5295  2.0115  0.2132
16813TIP3    H271931   0.816   0.495   1.055 -1.0099  0.3467 -1.1806
16814TIP3   OH271932   6.034   4.540  14.661 -0.5504  0.8919  0.3456
16814TIP3    H171933   6.018   4.550  14.567  0.7393  0.6848  0.0939
16814TIP3    H271934   6.035   4.445  14.675 -1.4996  0.9328  0.7086
16815TIP3   OH271935   1.065   1.838  15.942  0.0300 -0.1629 -0.0475
16815TIP3    H171936   1.074   1.881  16.027  0.9080 -0.4353 -0.0027
16815TIP3    H271937   1.042   1.908  15.882 -0.0040  0.1250  0.2980
16816TIP3   OH271938   4.535   2.168  12.939 -0.0874 -0.6467 -0.8385
16816TIP3    H171939   4.530   2.073  12.947  1.1299 -0.8233 -1.9867
16816TIP3    H271940   4.559   2.183  12.847 -1.4304  0.8169 -0.9850
16817TIP3   OH271941   2.621   0.278  16.219  0.0142  0.2626 -0.1898
16817TIP3    H171942   2.648   0.370  16.226 -0.5004  0.4583 -0.7162
16817TIP3    H271943   2.631   0.244  16.308  0.0254  0.8808  0.0562
16818TIP3   OH271944   5.402   1.761   2.846  0.1096  0.4373  0.1339
16818TIP3    H171945   5.497   1.757   2.831 -0.1926 -0.0185 -1.6828
16818TIP3    H271946   5.369   1.820   2.778 -0.7759  1.6026  1.5246
16819TIP3   OH271947   5.770   4.795  15.331  0.1688 -0.0222 -0.1297
16819TIP3    H171948   5.688   4.843  15.341  0.8068  1.1302 -0.4357
16819TIP3    H271949   5.835   4.862  15.312  1.1274 -0.9700 -0.2059
16820TIP3   OH271950   3.867   1.570   2.321  0.1673  0.1122 -0.6939
16820TIP3    H171951   3.820   1.568   2.404  0.8749  0.1080 -0.2894
16820TIP3    H271952   3.838   1.651   2.279 -1.6184 -0.8156 -1.2991
16821TIP3   OH271953   0.134   4.565  13.514 -0.3979  0.5256  0.6238
16821TIP3    H171954   0.170   4.490  13.467 -0.5461  1.5321 -1.1712
16821TIP3    H271955   0.181   4.567  13.597 -0.4165 -1.5578  0.6958
16822TIP3   OH271956   0.885   5.049  13.956 -0.3785  0.2099  0.0492
16822TIP3    H171957   0.922   5.018  13.874 -1.6869  0.9741 -0.8589
16822TIP3    H271958   0.881   5.145  13.947 -0.0229  0.3444  1.2177
16823TIP3   OH271959   4.202   0.913   2.659  0.1802 -0.1520  0.3532
16823TIP3    H171960   4.139   0.842   2.673 -0.3233  0.3062  0.4800
16823TIP3    H271961   4.182   0.976   2.729 -0.3308  0.7637 -0.6038
16824TIP3   OH271962   4.919   5.783   5.860  0.2107  0.0541  0.5466
16824TIP3    H171963   4.916   5.688   5.871 -2.7604  0.1384  0.6837
16824TIP3    H271964   4.923   5.797   5.766  0.3136 -0.1962  0.5161
16825TIP3   OH271965   1.200   0.781   4.009  0.3232  0.6273  0.0136
16825TIP3    H171966   1.120   0.791   4.061 -0.8500  1.7212 -1.9705
16825TIP3    H271967   1.228   0.691   4.026 -0.1916  0.8680  2.3024
16826TIP3   OH271968   0.175   5.047   4.521 -0.6921  0.3315 -0.0410
16826TIP3    H171969   0.219   5.123   4.482 -1.3779  0.0609 -1.3682
16826TIP3    H271970   0.084   5.074   4.529 -0.7482  0.0056  0.4374
16827TIP3   OH271971   6.673   6.609   1.450 -0.0939 -0.0869  0.1327
16827TIP3    H171972   6.585   6.572   1.443  0.9745 -2.3965 -2.0082
16827TIP3    H271973   6.731   6.535   1.434  2.2842  1.2599  2.1501
16828TIP3   OH271974   2.126   1.768  11.855  0.3747  0.1279  0.3752
16828TIP3    H171975   2.065   1.694  11.859 -0.0434  0.5686  3.7660
16828TIP3    H271976   2.070   1.845  11.844  0.4581  0.3580  1.5356
16829TIP3   OH271977   3.357   1.522   1.022 -0.3676  0.2738 -0.3265
16829TIP3    H171978   3.401   1.605   1.003  1.0326  0.2667  2.4900
16829TIP3    H271979   3.429   1.460   1.038 -1.3900 -0.6823  0.6391
16830TIP3   OH271980   3.411   4.809   4.910  0.4552 -0.1986 -0.3648
16830TIP3    H171981   3.418   4.741   4.978  0.2619 -0.3767 -0.5210
16830TIP3    H271982   3.448   4.768   4.832 -1.9388 -1.0101 -1.0998
16831TIP3   OH271983   3.928   2.593  14.881  0.5908  0.6081 -0.2893
16831TIP3    H171984   3.960   2.511  14.844  0.0630  0.5813 -0.6819
16831TIP3    H271985   3.857   2.621  14.823 -1.1109 -0.1073  1.3964
16832TIP3   OH271986   5.330   5.008   5.682  0.2016  0.6697 -1.0948
16832TIP3    H171987   5.420   5.039   5.688  0.4178  0.2380 -1.9968
16832TIP3    H271988   5.283   5.081   5.641  0.5085  0.2041 -2.2892
16833TIP3   OH271989   3.705   3.938   1.083  0.1464 -0.5328 -0.6794
16833TIP3    H171990   3.639   3.987   1.131  1.2453  0.6352 -0.3203
16833TIP3    H271991   3.747   3.883   1.149  0.9448  0.2910 -0.4913
16834TIP3   OH271992   0.047   1.722  12.643  0.3595 -0.2961 -0.0447
16834TIP3    H171993   0.079   1.770  12.719 -1.9175 -0.0979  0.8138
16834TIP3    H271994  -0.041   1.756  12.628  0.6218 -0.5873 -2.5640
16835TIP3   OH271995   0.948   0.610   3.528  0.2090  0.0538  0.0034
16835TIP3    H171996   0.980   0.558   3.601  0.2135  2.5545  1.8343
16835TIP3    H271997   1.013   0.597   3.459  0.3262 -2.1247  0.4910
16836TIP3   OH271998   2.186   3.306  15.022  0.0169  0.0134 -0.3128
16836TIP3    H171999   2.096   3.293  15.052  0.9053 -0.0227  2.5135
16836TIP3    H272000   2.177   3.354  14.940 -2.5332  2.0357  1.0531
16837TIP3   OH272001   3.342   6.490   0.527  0.1272  0.1806  0.1268
16837TIP3    H172002   3.315   6.581   0.541 -0.2000  0.0798  0.1457
16837TIP3    H272003   3.359   6.486   0.433  1.0756  0.5144  0.2775
16838TIP3   OH272004   6.468   6.201  16.018  0.5756  0.3218 -0.3795
16838TIP3    H172005   6.382   6.171  16.047  1.1502 -1.1778 -0.2003
16838TIP3    H272006   6.472   6.176  15.925  0.5597  0.9782 -0.5582
16839TIP3   OH272007   0.538   2.942   3.723 -0.1460 -0.8135 -0.1596
16839TIP3    H172008   0.607   2.877   3.713  2.1779  1.4629  0.3723
16839TIP3    H272009   0.564   3.013   3.663 -1.1202  0.7722  1.2370
16840TIP3   OH272010   5.346   3.902   2.084  0.2220  0.1818  0.1381
16840TIP3    H172011   5.333   3.809   2.069 -0.0478  0.7033 -3.4019
16840TIP3    H272012   5.330   3.915   2.177 -0.4627 -3.1685  0.5220
16841TIP3   OH272013   5.096   6.350  15.107 -0.0473 -0.2113 -0.0430
16841TIP3    H172014   5.065   6.339  15.017  2.1091  0.1558 -0.8646
16841TIP3    H272015   5.064   6.436  15.134 -1.4019 -0.6764 -0.1531
16842TIP3   OH272016   4.096   1.550  15.402  0.1181 -0.0735 -0.0473
16842TIP3    H172017   4.170   1.591  15.357  0.1405 -0.1376 -0.0690
16842TIP3    H272018   4.070   1.614  15.469 -1.2996  0.9702 -1.5617
16843TIP3   OH272019   2.438   1.767   3.766 -0.0809 -0.3538  0.6604
16843TIP3    H172020   2.403   1.856   3.762 -0.4884 -0.4257  2.2967
16843TIP3    H272021   2.434   1.736   3.676  2.4333  2.1763 -0.4114
16844TIP3   OH272022   1.678   0.863   1.969  0.0670  0.4227 -0.1227
16844TIP3    H172023   1.698   0.939   2.023  0.5296 -0.6826  1.3049
16844TIP3    H272024   1.744   0.865   1.899  0.1619  1.2512 -0.0055
16845TIP3   OH272025   5.013   2.912   3.795 -0.2531  0.2723 -0.1756
16845TIP3    H172026   4.998   2.822   3.764  1.9184  0.1649 -1.0442
16845TIP3    H272027   4.980   2.967   3.725  0.8699  0.0908 -0.8611
16846TIP3   OH272028   5.363   1.245   3.066  0.3538  0.3658  0.4558
16846TIP3    H172029   5.295   1.308   3.090 -0.3918 -0.0344 -0.6047
16846TIP3    H272030   5.389   1.205   3.149 -0.8763  0.3454  0.8417
16847TIP3   OH272031   4.943   3.233  12.261  0.3496 -0.5189 -0.1338
16847TIP3    H172032   5.009   3.286  12.217 -0.8314  1.9698  0.9316
16847TIP3    H272033   4.953   3.255  12.354 -2.6115  0.7690 -0.0505
16848TIP3   OH272034   6.770   2.514   1.247  0.6987  0.1161 -0.2745
16848TIP3    H172035   6.845   2.572   1.254  0.7343 -0.1389  1.7844
16848TIP3    H272036   6.780   2.453   1.320 -0.7250 -0.8377 -0.8527
16849TIP3   OH272037   4.460   1.198  10.984  0.5554  0.2502 -0.3310
16849TIP3    H172038   4.382   1.245  10.955 -0.2619 -1.4364 -0.9964
16849TIP3    H272039   4.520   1.203  10.909 -0.2908 -1.3683 -1.1452
16850TIP3   OH272040   4.279   0.883  11.267  0.0635  0.5103  0.0226
16850TIP3    H172041   4.276   0.882  11.171 -1.7288 -2.9300  0.0639
16850TIP3    H272042   4.324   0.802  11.291 -0.2107  0.9468  2.1331
16851TIP3   OH272043   5.668   0.038  14.226  0.2356 -0.7910  0.2187
16851TIP3    H172044   5.670   0.134  14.228  1.3517 -0.7939 -0.3100
16851TIP3    H272045   5.658   0.013  14.318 -1.9717 -0.1556  0.1914
16852TIP3   OH272046   2.905   0.320  14.678  0.0741  0.5454 -0.6561
16852TIP3    H172047   2.900   0.377  14.601 -2.0505 -1.6454 -2.1763
16852TIP3    H272048   2.943   0.239  14.646 -1.1283 -0.5099  0.5464
16853TIP3   OH272049   0.172   1.329   0.317 -0.0596 -0.7760 -0.7968
16853TIP3    H172050   0.096   1.382   0.292  0.2820 -0.0695 -0.3562
16853TIP3    H272051   0.135   1.252   0.361 -0.5210 -0.4570 -0.6252
16854TIP3   OH272052   1.976   2.623   0.441 -0.3035 -0.2984 -0.6775
16854TIP3    H172053   2.021   2.586   0.365  0.3350  1.6665 -1.2665
16854TIP3    H272054   2.026   2.591   0.517  1.8119  1.4381 -1.2938
16855TIP3   OH272055   4.572   5.742  13.579  0.1932  0.0632 -0.3399
16855TIP3    H172056   4.610   5.697  13.504 -1.9251 -1.2976 -0.6310
16855TIP3    H272057   4.480   5.755  13.556  0.1069  1.9711  0.9412
16856TIP3   OH272058   1.533   5.457   5.511 -0.0431  0.3985  0.2174
16856TIP3    H172059   1.559   5.513   5.439 -1.0184  1.0080  0.3306
16856TIP3    H272060   1.599   5.474   5.579  0.4037  0.4380 -0.2216
16857TIP3   OH272061   3.003   1.362  11.903  0.1720 -0.4956 -0.7273
16857TIP3    H172062   3.080   1.417  11.888  2.3681 -2.8741  1.3583
16857TIP3    H272063   3.006   1.343  11.997 -2.1949 -1.7612 -0.8817
16858TIP3   OH272064   0.266   1.422  12.998  0.1495  0.0794 -0.2379
16858TIP3    H172065   0.355   1.402  12.971 -0.1701 -0.1930 -1.1067
16858TIP3    H272066   0.275   1.486  13.068  1.0414 -0.2623 -0.0395
16859TIP3   OH272067   0.726   3.670  16.416 -0.4877  0.3776  0.1012
16859TIP3    H172068   0.770   3.692  16.498  1.4288  1.1193 -1.0675
16859TIP3    H272069   0.720   3.754  16.369  0.2427 -0.3522 -1.3274
16860TIP3   OH272070   1.252   1.650   4.146 -0.0040  0.5486 -0.2392
16860TIP3    H172071   1.182   1.715   4.140 -1.0695 -0.6460 -0.9351
16860TIP3    H272072   1.245   1.618   4.236 -0.6964  0.0586 -0.4622
16861TIP3   OH272073   1.140   1.210  13.494  1.0644 -0.1459 -0.0442
16861TIP3    H172074   1.173   1.121  13.499  0.3219 -0.3529  1.8643
16861TIP3    H272075   1.050   1.201  13.461  1.7295  0.1148 -1.9882
16862TIP3   OH272076   3.332   3.957  14.319  0.1650 -0.1923  0.1792
16862TIP3    H172077   3.250   3.994  14.284  0.0445 -0.9177 -0.3103
16862TIP3    H272078   3.400   4.018  14.290 -0.2720  0.7873  1.1610
16863TIP3   OH272079   3.461   5.206  15.381 -0.1779  0.4964  0.1179
16863TIP3    H172080   3.539   5.190  15.434 -1.3305 -1.3838  1.3406
16863TIP3    H272081   3.486   5.178  15.293  0.0993 -1.5585  0.8063
16864TIP3   OH272082   5.968   4.690  12.315 -0.5574  0.4177 -0.1698
16864TIP3    H172083   6.021   4.611  12.312  1.0092  1.3236  2.1013
16864TIP3    H272084   5.880   4.660  12.335 -0.1939 -0.8193 -0.4089
16865TIP3   OH272085   1.209   6.644   6.365 -0.1710 -0.3132 -0.3381
16865TIP3    H172086   1.172   6.614   6.448  0.0963 -1.0971 -0.4989
16865TIP3    H272087   1.165   6.590   6.299  0.1244 -0.1689 -0.6506
16866TIP3   OH272088   5.264   3.261  15.650 -0.0866 -0.0693 -0.7536
16866TIP3    H172089   5.190   3.272  15.590 -0.4728  1.1864 -0.0669
16866TIP3    H272090   5.310   3.345  15.648 -1.1342  0.6339  2.0215
16867TIP3   OH272091   0.903   0.405   0.051 -0.4855 -0.3662 -0.6089
16867TIP3    H172092   0.960   0.449   0.113 -1.0121 -1.6128  0.7934
16867TIP3    H272093   0.868   0.475  -0.004  3.2851  0.3152 -2.3119
16868TIP3   OH272094   3.428   1.773  13.190 -0.0572 -0.2024 -0.1269
16868TIP3    H172095   3.415   1.681  13.169  1.0926 -0.3607 -0.1494
16868TIP3    H272096   3.461   1.812  13.109 -1.2440  0.3932 -0.3427
16869TIP3   OH272097   1.254   1.632  12.727  0.2688  0.1166 -0.1764
16869TIP3    H172098   1.270   1.581  12.648  0.6157 -1.3470  0.8196
16869TIP3    H272099   1.341   1.654  12.760  0.1556 -0.8314  0.7785
16870TIP3   OH272100   2.759   0.564  12.572 -0.2580 -0.1440 -0.1934
16870TIP3    H172101   2.800   0.478  12.560 -2.2104 -1.0119 -0.8655
16870TIP3    H272102   2.812   0.623  12.519  0.3000 -1.1765 -0.8196
16871TIP3   OH272103   5.249   5.374   5.791  0.0272  0.1348  0.2118
16871TIP3    H172104   5.248   5.344   5.700 -2.1870  3.6572 -1.0142
16871TIP3    H272105   5.342   5.385   5.811  0.5285 -0.2295 -1.7658
16872TIP3   OH272106   5.318   0.559  10.704 -0.2698 -0.3942  0.8316
16872TIP3    H172107   5.271   0.500  10.646  1.1585 -1.3421  0.6239
16872TIP3    H272108   5.249   0.613  10.744 -1.2424  0.4865 -1.9235
16873TIP3   OH272109   2.594   6.722  12.987  0.3844 -0.6558  0.6286
16873TIP3    H172110   2.566   6.812  13.003  0.3301 -0.4623 -0.5185
16873TIP3    H272111   2.678   6.715  13.031  2.1088  1.0465 -2.1972
16874TIP3   OH272112   6.220   1.832   0.556 -0.3136  0.4771 -0.0104
16874TIP3    H172113   6.163   1.890   0.607 -0.0185  1.2708 -0.5619
16874TIP3    H272114   6.307   1.846   0.594 -0.3784 -0.2593  0.4194
16875TIP3   OH272115   6.086   4.831   2.633  0.0044  0.3222 -0.6349
16875TIP3    H172116   6.138   4.818   2.712 -0.0866  1.2455 -0.4155
16875TIP3    H272117   6.141   4.798   2.562 -0.1063 -0.9480 -0.1461
16876TIP3   OH272118   6.769   0.871   6.279  0.4586  0.0283 -0.0842
16876TIP3    H172119   6.819   0.838   6.354 -2.4995 -1.2275  1.4283
16876TIP3    H272120   6.720   0.945   6.314  0.4035  0.5474 -1.2572
16877TIP3   OH272121   0.498   1.908  16.050  0.4477  0.2784 -0.4933
16877TIP3    H172122   0.490   1.813  16.059  0.8983  0.2730 -0.0786
16877TIP3    H272123   0.426   1.943  16.101  1.3900  0.1858  0.9515
16878TIP3   OH272124   2.505   1.823   0.300  0.2826  0.0732  0.1733
16878TIP3    H172125   2.593   1.809   0.334  0.6260  2.6527  0.4705
16878TIP3    H272126   2.511   1.799   0.207  0.2136 -3.6732  1.0603
16879TIP3   OH272127   1.677   0.632   6.438  0.3778  0.4989 -0.0715
16879TIP3    H172128   1.772   0.634   6.448  0.1772  1.4870  1.8333
16879TIP3    H272129   1.647   0.713   6.480 -1.2854  0.3725 -0.9717
16880TIP3   OH272130   2.925   3.528  11.880  0.2576  0.0917  0.7816
16880TIP3    H172131   2.919   3.622  11.860  0.6848 -0.1004 -0.2725
16880TIP3    H272132   2.969   3.524  11.965 -0.3101  0.8706  1.1181
16881TIP3   OH272133   4.828   3.047  15.483  0.5833  0.7227  0.8126
16881TIP3    H172134   4.734   3.044  15.501  0.4610  0.5457  0.1862
16881TIP3    H272135   4.866   2.979  15.538  0.4221  1.2044  1.5148
16882TIP3   OH272136   2.083   3.743  11.901 -0.2963  0.3227  0.2386
16882TIP3    H172137   2.078   3.788  11.985 -0.7289  2.4937 -0.9257
16882TIP3    H272138   2.174   3.755  11.873  0.1821 -1.4739  0.9532
16883TIP3   OH272139   4.611   5.025   4.369 -0.1663 -0.7246  0.4503
16883TIP3    H172140   4.547   5.032   4.440  1.5537  1.3644  1.9002
16883TIP3    H272141   4.676   4.963   4.401 -0.6001 -1.5778 -0.3121
16884TIP3   OH272142   4.192   2.955   3.633 -0.5358 -0.7364 -0.1977
16884TIP3    H172143   4.223   3.045   3.629  0.9697 -1.2927 -1.8824
16884TIP3    H272144   4.097   2.963   3.630 -0.4110  0.7803 -0.7776
16885TIP3   OH272145   4.720   0.487   5.419 -0.0959  0.2151 -0.1201
16885TIP3    H172146   4.791   0.552   5.415  0.3362 -0.2297  0.2646
16885TIP3    H272147   4.641   0.540   5.424  0.1598  0.7203 -1.1975
16886TIP3   OH272148   3.631   2.681   0.120 -0.6424 -0.2795 -0.3453
16886TIP3    H172149   3.687   2.613   0.081 -1.7725 -1.4842  0.1081
16886TIP3    H272150   3.628   2.750   0.054  1.3914 -0.1816 -0.3797
16887TIP3   OH272151   3.546   1.079   4.824 -0.0726  0.0849 -0.0979
16887TIP3    H172152   3.476   1.140   4.801  0.8700  0.8507 -1.0287
16887TIP3    H272153   3.501   0.998   4.847 -1.2586  0.5265 -0.8084
16888TIP3   OH272154   4.534   5.596   4.979  0.5658 -0.7419 -0.3315
16888TIP3    H172155   4.568   5.679   4.944 -0.0189 -0.9109 -1.3331
16888TIP3    H272156   4.580   5.584   5.062 -2.0049  2.4258  1.6805
16889TIP3   OH272157   5.858   4.125   1.945  0.1627  0.3965 -0.4676
16889TIP3    H172158   5.855   4.070   2.024 -0.8393 -0.8321 -1.3242
16889TIP3    H272159   5.933   4.093   1.896  0.4295  0.7539 -0.2908
16890TIP3   OH272160   6.318   4.308  11.214  0.6586  0.1372 -0.0290
16890TIP3    H172161   6.365   4.346  11.140  0.1726  1.1700  0.1874
16890TIP3    H272162   6.230   4.292  11.180 -0.0656  2.1878  0.7934
16891TIP3   OH272163   1.482   4.989   0.923 -0.0560  0.4460 -0.1347
16891TIP3    H172164   1.413   4.975   0.858  0.5593  1.6199 -1.0683
16891TIP3    H272165   1.501   4.902   0.957 -1.3444 -0.0021 -0.5549
16892TIP3   OH272166   6.702   4.584  15.617  0.4017 -0.2172 -0.1446
16892TIP3    H172167   6.774   4.534  15.580  0.2919 -3.2587  3.4623
16892TIP3    H272168   6.641   4.518  15.649 -1.0001  2.2586  2.5168
16893TIP3   OH272169   1.490   4.181   3.407  0.2216  0.5201  0.0832
16893TIP3    H172170   1.444   4.141   3.481  1.0411 -1.3201 -0.3954
16893TIP3    H272171   1.567   4.126   3.394  1.2415  2.1108 -0.7462
16894TIP3   OH272172   0.423   2.126  16.902 -0.0384  0.5943 -0.1915
16894TIP3    H172173   0.382   2.174  16.974  2.3315  0.2682  1.4341
16894TIP3    H272174   0.433   2.037  16.935  0.5747  0.3093 -1.1218
16895TIP3   OH272175   5.472   3.780  17.221  0.0539  0.5237 -0.1135
16895TIP3    H172176   5.380   3.756  17.233 -0.3869  2.6293  1.0292
16895TIP3    H272177   5.514   3.757  17.304  0.4648  0.0306 -0.4550
16896TIP3   OH272178   1.928   0.668  14.468 -0.1753 -0.1011 -0.2149
16896TIP3    H172179   1.951   0.632  14.382 -0.3901  0.5093 -0.5281
16896TIP3    H272180   1.845   0.626  14.490 -0.4011  0.1526 -0.5611
16897TIP3   OH272181   5.752   1.721   0.041 -0.0051 -0.2547  0.4354
16897TIP3    H172182   5.843   1.719   0.012 -0.4235 -0.1182 -0.9646
16897TIP3    H272183   5.721   1.632   0.025 -0.5587  0.1164 -0.6433
16898TIP3   OH272184   4.152   1.990   4.933 -0.3876  0.3188  0.2547
16898TIP3    H172185   4.198   2.070   4.912 -0.3389  0.5968  1.3740
16898TIP3    H272186   4.059   2.014   4.930 -0.3544  0.6032  1.2798
16899TIP3   OH272187   6.376   5.004  12.543 -0.0655 -0.4179 -0.3362
16899TIP3    H172188   6.305   5.006  12.607 -0.9150 -0.1713 -1.2751
16899TIP3    H272189   6.399   4.911  12.536 -0.3631 -0.5104 -0.0923
16900TIP3   OH272190   6.187   2.348  13.585 -0.0033 -0.4138  0.6326
16900TIP3    H172191   6.124   2.327  13.517  0.2485  0.4953  0.1165
16900TIP3    H272192   6.269   2.308  13.555 -0.1955 -1.1282  1.0417
16901TIP3   OH272193   2.967   0.065   2.068 -0.0764 -0.3241 -0.2124
16901TIP3    H172194   3.019   0.028   2.140  2.2407  3.0022 -0.0792
16901TIP3    H272195   2.930   0.145   2.104  1.9585  1.9268 -2.9826
16902TIP3   OH272196   5.701   4.263  12.579  0.0717  0.5181  0.0136
16902TIP3    H172197   5.613   4.280  12.610 -0.5851 -1.9954 -0.3329
16902TIP3    H272198   5.694   4.267  12.483  0.1606 -0.3407 -0.0376
16903TIP3   OH272199   6.239   3.092  14.662 -0.1452  0.5010  0.4114
16903TIP3    H172200   6.238   3.174  14.711  1.8109  0.2051  1.0004
16903TIP3    H272201   6.272   3.027  14.724  0.9069 -0.1776 -0.8099
16904TIP3   OH272202   5.973   6.018   2.843  0.4970  0.3945 -0.7334
16904TIP3    H172203   5.948   6.060   2.761 -1.6479 -1.3083 -1.0065
16904TIP3    H272204   6.056   5.974   2.824  0.4896  0.8077 -1.7084
16905TIP3   OH272205   5.217   3.215  14.955 -0.2869 -0.6954 -0.5629
16905TIP3    H172206   5.212   3.232  15.049 -1.2478 -0.4665 -0.6495
16905TIP3    H272207   5.310   3.225  14.934 -0.2285  0.4124  0.1445
16906TIP3   OH272208   2.552   6.411  13.916 -0.2802 -0.2751 -0.6546
16906TIP3    H172209   2.642   6.386  13.934 -0.2609  0.3498  0.1660
16906TIP3    H272210   2.501   6.372  13.986 -0.2672  1.7788  0.5438
16907TIP3   OH272211   3.011   6.640   5.205  0.6820 -1.0847 -0.1528
16907TIP3    H172212   2.990   6.547   5.205 -0.9605 -0.7272  1.0091
16907TIP3    H272213   2.960   6.677   5.134  2.2158 -1.2328 -1.3684
16908TIP3   OH272214   2.684   3.103   2.956  0.3110  0.4486  0.5499
16908TIP3    H172215   2.591   3.108   2.932  0.7011  1.6346 -0.8018
16908TIP3    H272216   2.709   3.013   2.936  0.0427  0.7782 -1.4603
16909TIP3   OH272217   3.200   4.941  16.921 -0.1242  0.2338 -0.5743
16909TIP3    H172218   3.265   4.923  16.989 -1.4675  0.1411  0.7064
16909TIP3    H272219   3.216   5.032  16.895 -0.0059  0.4751  0.3267
16910TIP3   OH272220   5.000   0.703   4.302  0.5849 -0.1022 -0.3382
16910TIP3    H172221   5.012   0.777   4.362 -1.6903 -0.1211  0.1971
16910TIP3    H272222   4.989   0.744   4.216 -2.2220  0.3326  0.1793
16911TIP3   OH272223   3.224   1.874   3.670 -0.1654 -0.0492 -0.2703
16911TIP3    H172224   3.138   1.832   3.667  0.6512 -1.6917 -1.4591
16911TIP3    H272225   3.281   1.808   3.710  0.8278  0.5092 -0.7500
16912TIP3   OH272226   0.783   5.649   0.985 -0.0559 -0.1343 -0.0454
16912TIP3    H172227   0.844   5.722   0.991  0.2192 -0.4611  1.4121
16912TIP3    H272228   0.812   5.589   1.054 -1.0354 -1.0401 -0.4198
16913TIP3   OH272229   0.291   6.212  17.072  0.3699  0.8640 -0.2954
16913TIP3    H172230   0.335   6.195  17.155 -1.4318  2.1155  0.9322
16913TIP3    H272231   0.208   6.164  17.078  0.1533  1.0899 -1.2998
16914TIP3   OH272232   1.006   0.365   1.897  0.3642  0.1782  0.0786
16914TIP3    H172233   1.007   0.300   1.827  3.1574  0.4330 -0.1621
16914TIP3    H272234   1.019   0.315   1.977  2.1221  0.3716 -0.0703
16915TIP3   OH272235   1.516   6.499  14.541 -0.0989  0.6996 -0.1241
16915TIP3    H172236   1.434   6.493  14.492 -0.3498  0.5351  0.3230
16915TIP3    H272237   1.570   6.559  14.489 -0.7592  1.3619 -0.0436
16916TIP3   OH272238   4.423   5.211   4.775 -0.2411 -0.5101 -0.3875
16916TIP3    H172239   4.464   5.273   4.715  0.6767 -0.9649 -0.2358
16916TIP3    H272240   4.428   5.254   4.860  0.7854 -0.9774 -0.2107
16917TIP3   OH272241   4.969   3.343  13.336  0.0126  0.5256  0.0536
16917TIP3    H172242   4.945   3.373  13.249 -2.9829  0.1914  0.7251
16917TIP3    H272243   5.031   3.409  13.368 -0.8411  2.0280 -1.3314
16918TIP3   OH272244   2.611   5.145   2.305 -0.5208  0.3266 -0.5379
16918TIP3    H172245   2.609   5.225   2.254 -0.6020  0.2169 -0.7080
16918TIP3    H272246   2.692   5.151   2.356  0.3880 -0.2878 -1.8668
16919TIP3   OH272247   1.369   1.617   3.737  0.0438 -0.0090  0.5251
16919TIP3    H172248   1.411   1.702   3.750  0.4991 -0.1364 -0.0778
16919TIP3    H272249   1.419   1.556   3.792 -0.8038  0.2691  1.5979
16920TIP3   OH272250   5.645   3.735  14.586  0.2497 -0.2984  0.2594
16920TIP3    H172251   5.642   3.732  14.682 -0.9545  0.4780  0.2681
16920TIP3    H272252   5.570   3.682  14.559 -0.2853  0.6765 -0.2105
16921TIP3   OH272253   6.312   6.515  16.370  0.1603 -0.9169  0.5126
16921TIP3    H172254   6.373   6.480  16.305 -1.0742 -1.6033 -0.3018
16921TIP3    H272255   6.241   6.451  16.373  0.1088 -0.7962  2.4068
16922TIP3   OH272256   0.136   1.189  13.078 -0.0614  0.3688  0.7993
16922TIP3    H172257   0.070   1.234  13.131  0.7178  1.4937  0.8147
16922TIP3    H272258   0.185   1.259  13.035  1.2760 -0.4426  0.9645
16923TIP3   OH272259   6.679   4.760  11.478 -0.2617 -0.0710  0.1370
16923TIP3    H172260   6.732   4.791  11.552  1.2467 -2.1632 -0.0210
16923TIP3    H272261   6.629   4.836  11.450 -1.4876  0.5763  3.8449
16924TIP3   OH272262   4.988   0.165   5.286 -0.5634 -0.1383  0.1469
16924TIP3    H172263   5.075   0.128   5.271 -0.4026  0.2878  0.0445
16924TIP3    H272264   4.964   0.205   5.202 -1.1886 -0.9434 -0.0609
16925TIP3   OH272265   0.196   0.666  17.149  0.2179 -0.2107  0.1159
16925TIP3    H172266   0.166   0.709  17.069  0.7711 -0.4398 -0.2201
16925TIP3    H272267   0.264   0.723  17.183  0.6036 -0.5573 -0.0615
16926TIP3   OH272268   3.010   0.885  11.379  0.3421  0.6330  0.8124
16926TIP3    H172269   3.097   0.899  11.416 -0.2715  3.0347  1.4258
16926TIP3    H272270   2.950   0.924  11.443 -1.0303  1.0503 -0.6980
16927TIP3   OH272271   3.899   6.815  15.187 -0.0649 -0.5573  0.4352
16927TIP3    H172272   3.893   6.792  15.094  0.1188 -0.1875  0.3330
16927TIP3    H272273   3.906   6.730  15.231  1.4521 -0.6719 -0.0103
16928TIP3   OH272274   5.116   6.245   1.997  0.7612 -0.5894 -0.6166
16928TIP3    H172275   5.183   6.176   1.990  2.3012  1.0854 -3.1320
16928TIP3    H272276   5.050   6.221   1.933 -0.6943 -1.7929  1.2845
16929TIP3   OH272277   3.734   4.801   6.172 -0.0403 -0.5356 -0.4719
16929TIP3    H172278   3.676   4.865   6.212  0.6080 -1.0527  1.3247
16929TIP3    H272279   3.821   4.824   6.205  0.7210 -0.1225 -2.6705
16930TIP3   OH272280   3.929   6.215  12.205 -0.2756  0.8647 -0.5700
16930TIP3    H172281   3.975   6.166  12.137 -1.2985 -0.1703 -0.5282
16930TIP3    H272282   3.997   6.268  12.246  1.2251 -1.8817  0.5911
16931TIP3   OH272283   1.655   4.491  17.110 -0.2737 -0.2084 -0.4804
16931TIP3    H172284   1.670   4.575  17.154 -2.5121 -0.3699  0.6344
16931TIP3    H272285   1.616   4.514  17.026 -1.0767 -0.1173 -0.0900
16932TIP3   OH272286   5.888   2.731   1.567 -0.5519  0.0584  0.0420
16932TIP3    H172287   5.866   2.734   1.661  0.4202  1.1417  0.2539
16932TIP3    H272288   5.871   2.641   1.541  0.0926 -0.4984  1.4937
16933TIP3   OH272289   1.457   0.980   3.089 -0.1093  0.0636  0.2910
16933TIP3    H172290   1.509   0.990   3.169 -1.6132 -0.0161  1.3007
16933TIP3    H272291   1.368   1.004   3.116 -0.8545 -1.1489 -1.0643
16934TIP3   OH272292   1.814   3.387  14.216  0.4099 -0.0145 -0.1180
16934TIP3    H172293   1.801   3.435  14.298  0.9754 -0.9449  0.5201
16934TIP3    H272294   1.842   3.300  14.243  2.9868  0.3752 -1.3440
16935TIP3   OH272295   6.219   2.659  15.680  0.5763  0.8467  0.3049
16935TIP3    H172296   6.152   2.615  15.732 -0.8803  1.0403 -1.3797
16935TIP3    H272297   6.238   2.739  15.729  0.8265 -0.0041  1.6466
16936TIP3   OH272298   0.782   0.107   0.166 -0.2540 -0.1117 -0.0791
16936TIP3    H172299   0.697   0.109   0.122  0.3392  0.1629 -1.1996
16936TIP3    H272300   0.829   0.182   0.131  0.3634 -0.1143  0.7394
16937TIP3   OH272301   2.056   6.417  13.145  0.0198 -0.4664  0.4084
16937TIP3    H172302   2.151   6.410  13.149 -0.0351 -1.0595  0.6333
16937TIP3    H272303   2.028   6.416  13.237 -0.1431  0.5205  0.3732
16938TIP3   OH272304   5.592   5.708   5.215 -0.8126 -0.3832  0.4002
16938TIP3    H172305   5.588   5.758   5.297 -1.0833  0.9460 -0.3970
16938TIP3    H272306   5.662   5.750   5.166 -1.1299 -0.7128 -0.3317
16939TIP3   OH272307   2.175   2.070   3.539  0.9369 -0.1921 -0.0217
16939TIP3    H172308   2.106   2.060   3.605 -0.2174 -0.2477 -1.2066
16939TIP3    H272309   2.242   2.124   3.581 -1.4665  2.9335 -0.0086
16940TIP3   OH272310   2.073   1.174  12.369  0.5125 -0.3919 -0.1255
16940TIP3    H172311   2.087   1.087  12.405  0.1843 -0.3746  0.0486
16940TIP3    H272312   2.154   1.222  12.389  0.3964 -0.4325  0.4441
16941TIP3   OH272313   6.067   5.110  14.123 -0.2849  0.2732 -0.0429
16941TIP3    H172314   6.103   5.145  14.042 -1.3264  0.8925 -0.2454
16941TIP3    H272315   6.136   5.052  14.157  0.7794  1.2394 -0.5415
16942TIP3   OH272316   0.369   3.313  17.243  0.5055  0.1274  0.3996
16942TIP3    H172317   0.365   3.407  17.258 -0.3042 -0.1216  1.8333
16942TIP3    H272318   0.334   3.301  17.154  1.6392  1.2656 -0.2168
16943TIP3   OH272319   2.406   3.999  17.144  0.1640 -0.1673 -0.1462
16943TIP3    H172320   2.321   4.030  17.113  0.1372  1.2231  1.2753
16943TIP3    H272321   2.387   3.952  17.224  0.9610  2.3967  1.6265
16944TIP3   OH272322   2.593   1.469   3.887  0.3074  0.4696  0.2958
16944TIP3    H172323   2.504   1.496   3.909 -0.1952  0.2372 -1.3891
16944TIP3    H272324   2.589   1.374   3.883  0.1914  0.5185 -1.4522
16945TIP3   OH272325   5.053   1.885  12.736  0.1310 -0.4546  0.1251
16945TIP3    H172326   4.985   1.901  12.670  1.4130  0.6176 -0.9708
16945TIP3    H272327   5.129   1.933  12.704  0.4944  0.9648  2.9309
16946TIP3   OH272328   5.345   4.800   0.323  1.0101 -0.6919  0.2720
16946TIP3    H172329   5.355   4.755   0.407  3.1528 -1.6783 -0.4802
16946TIP3    H272330   5.416   4.865   0.322 -0.1126  0.5586 -0.0207
16947TIP3   OH272331   4.211   4.071  12.724  0.5708  0.4363  0.3532
16947TIP3    H172332   4.138   4.116  12.768  0.1382  0.0192  0.0731
16947TIP3    H272333   4.190   3.978  12.733  1.1657  0.3063  0.4268
16948TIP3   OH272334   3.381   0.043  10.913 -0.1482  0.2302 -0.7628
16948TIP3    H172335   3.474   0.019  10.914 -0.3822 -0.6650 -0.0800
16948TIP3    H272336   3.336  -0.034  10.880 -0.8063  0.0463  0.5035
16949TIP3   OH272337   3.212   3.525  16.939 -0.1966 -0.4435 -0.2879
16949TIP3    H172338   3.289   3.580  16.945  0.5856 -1.4800 -0.7217
16949TIP3    H272339   3.146   3.580  16.896  0.3575  0.3700 -0.0966
16950TIP3   OH272340   5.883   2.231   4.645  0.1187  0.0209 -0.5143
16950TIP3    H172341   5.820   2.197   4.581  1.0800 -0.4622 -1.2038
16950TIP3    H272342   5.888   2.163   4.712 -0.9464  0.5608  0.1413
16951TIP3   OH272343   0.490   4.203   0.737  0.4818  0.2302 -0.4836
16951TIP3    H172344   0.518   4.198   0.829 -0.9004 -2.1770 -0.1397
16951TIP3    H272345   0.451   4.290   0.728  0.1351  0.2787  1.3442
16952TIP3   OH272346   6.230   4.821   2.882  0.2818  0.5802  0.7360
16952TIP3    H172347   6.305   4.788   2.833 -0.7596 -0.8501  0.0575
16952TIP3    H272348   6.223   4.762   2.958 -0.0440  0.8147  0.8899
16953TIP3   OH272349   5.647   6.293   6.581 -0.2589 -0.0770 -0.1088
16953TIP3    H172350   5.604   6.379   6.586 -0.4294 -0.2543  1.6053
16953TIP3    H272351   5.740   6.313   6.588 -0.2422  0.0290 -0.5839
16954TIP3   OH272352   4.212   2.129   3.905  0.0101 -0.2070  0.1615
16954TIP3    H172353   4.214   2.042   3.945 -3.7506  0.0907  1.2459
16954TIP3    H272354   4.253   2.187   3.969 -1.0080 -0.5986  1.1813
16955TIP3   OH272355   5.080   0.510   5.855  0.3074  0.2466 -0.6525
16955TIP3    H172356   5.155   0.450   5.856 -0.0488 -0.1839  1.8449
16955TIP3    H272357   5.100   0.574   5.923 -2.1517 -0.5883  0.8998
16956TIP3   OH272358   3.990   4.446   4.628  0.5503 -0.0568  0.2271
16956TIP3    H172359   3.912   4.412   4.584  0.6823  1.4189 -1.2276
16956TIP3    H272360   4.063   4.416   4.574  0.9049 -0.4814  0.9471
16957TIP3   OH272361   5.963   3.188  13.232 -0.1195 -0.2497 -0.7465
16957TIP3    H172362   5.943   3.158  13.143 -0.6512 -0.8524 -0.4233
16957TIP3    H272363   5.911   3.131  13.289 -0.8402  1.0263 -0.1095
16958TIP3   OH272364   5.047   3.867  14.073  0.2830 -0.2514 -0.8578
16958TIP3    H172365   4.972   3.838  14.021 -1.1920 -0.3911  1.2608
16958TIP3    H272366   5.037   3.962  14.078 -0.3194 -0.3614  0.2230
16959TIP3   OH272367   4.691   2.929   2.709  0.2305 -0.0537  0.0438
16959TIP3    H172368   4.638   3.004   2.682  0.1454 -0.6455 -1.4874
16959TIP3    H272369   4.705   2.942   2.803 -1.3951  0.8747  0.1814
16960TIP3   OH272370   1.976   4.691   3.508 -0.0112  0.0084 -0.4390
16960TIP3    H172371   2.025   4.697   3.590  2.0661 -0.9733 -1.5751
16960TIP3    H272372   1.963   4.783   3.483 -0.6294  0.3190  0.9528
16961TIP3   OH272373   3.264   4.908  14.921 -0.0871  0.0118 -0.2963
16961TIP3    H172374   3.273   4.844  14.850  2.1584  0.3693 -0.3955
16961TIP3    H272375   3.314   4.871  14.993 -0.6964  0.5795  0.4236
16962TIP3   OH272376   4.800   0.716   2.766 -0.8451  0.3832  0.5617
16962TIP3    H172377   4.722   0.764   2.794 -2.0218  0.0817 -2.0903
16962TIP3    H272378   4.864   0.784   2.745 -0.1403  0.6276  3.2168
16963TIP3   OH272379   1.551   5.761  14.573 -0.7015 -0.7833 -0.1157
16963TIP3    H172380   1.575   5.796  14.659  0.6268 -0.9457 -0.4102
16963TIP3    H272381   1.634   5.754  14.526 -1.3653 -1.1392 -1.2494
16964TIP3   OH272382   0.858   4.320  13.303  0.0701 -0.3270 -0.4187
16964TIP3    H172383   0.954   4.325  13.302 -0.0083  1.8423  0.8347
16964TIP3    H272384   0.837   4.269  13.381  0.1898 -0.8660 -0.7348
16965TIP3   OH272385   1.829   3.504  14.485  0.0309 -0.6002 -0.3058
16965TIP3    H172386   1.920   3.474  14.492  0.9666  2.2336  0.6174
16965TIP3    H272387   1.783   3.459  14.556  1.1028 -0.8111  0.2679
16966TIP3   OH272388   2.636   1.797   5.294 -0.5443 -0.4760 -0.3918
16966TIP3    H172389   2.656   1.706   5.311 -0.7457 -0.3452  0.5536
16966TIP3    H272390   2.705   1.846   5.339 -0.3416 -0.1691 -1.0308
16967TIP3   OH272391   0.897   2.939   2.407 -0.0109  0.6081  0.0098
16967TIP3    H172392   0.818   2.901   2.371  0.1794  0.5942 -0.3964
16967TIP3    H272393   0.879   3.033   2.413 -1.1281  0.2679  2.6593
16968TIP3   OH272394   3.072   5.159  12.081  0.1638 -0.2448 -0.4738
16968TIP3    H172395   3.126   5.211  12.139  0.0867 -2.3314  1.5390
16968TIP3    H272396   3.010   5.221  12.042  0.8298  1.3265  0.9609
16969TIP3   OH272397   0.907   2.114   6.636 -0.7421 -0.3530 -0.1304
16969TIP3    H172398   0.853   2.126   6.558 -0.1137 -1.1117 -0.6828
16969TIP3    H272399   0.979   2.176   6.626 -1.2444  0.3351  0.3910
16970TIP3   OH272400   2.990   6.117   0.644  0.4504  0.8298 -0.0914
16970TIP3    H172401   2.990   6.028   0.610 -0.8625  0.4711  0.8343
16970TIP3    H272402   3.066   6.158   0.603 -0.2204 -0.0422 -2.2881
16971TIP3   OH272403   2.453   0.422   5.470 -0.6615 -0.1190 -0.0881
16971TIP3    H172404   2.434   0.437   5.377 -0.1082 -0.3951 -0.2484
16971TIP3    H272405   2.539   0.379   5.470  0.5974  2.3435  0.6980
16972TIP3   OH272406   2.294   1.334   2.933 -0.2272  0.2306 -0.8195
16972TIP3    H172407   2.294   1.415   2.985  0.3259  0.0501 -0.5392
16972TIP3    H272408   2.337   1.269   2.989 -2.9314 -0.9178 -0.0237
16973TIP3   OH272409   3.685   0.661   3.377 -0.0346  0.4173 -0.0433
16973TIP3    H172410   3.722   0.643   3.291  0.3372  1.9020 -0.2126
16973TIP3    H272411   3.713   0.750   3.396 -0.5183  0.2667  1.4099
16974TIP3   OH272412   2.705   3.850  12.965 -0.0662 -0.1519 -0.2988
16974TIP3    H172413   2.666   3.774  13.009 -1.1477  1.1732  1.0620
16974TIP3    H272414   2.755   3.894  13.033  0.9790  0.0996 -1.2127
16975TIP3   OH272415   0.847   0.820   3.728  1.0424 -0.8590 -0.2259
16975TIP3    H172416   0.923   0.762   3.720 -0.3708 -3.1460  2.2914
16975TIP3    H272417   0.778   0.777   3.678 -0.1969 -1.7632  2.1770
16976TIP3   OH272418   0.465   2.010   6.166 -0.2522 -0.7121  0.2832
16976TIP3    H172419   0.509   1.957   6.232 -0.4986 -2.2145 -0.7307
16976TIP3    H272420   0.372   1.994   6.180 -0.4262  1.0686  1.2803
16977TIP3   OH272421   3.759   2.557   2.571  0.2971  0.2217 -0.1132
16977TIP3    H172422   3.773   2.583   2.480  5.3016  0.0969  0.5049
16977TIP3    H272423   3.771   2.462   2.571 -0.1081  0.1615  0.6410
16978TIP3   OH272424   5.370   2.046  12.693  0.0116 -0.1426 -0.1426
16978TIP3    H172425   5.407   1.969  12.651 -2.1943 -1.1164 -0.3938
16978TIP3    H272426   5.336   2.099  12.621  1.0140  0.8055  0.0711
16979TIP3   OH272427   6.335   6.217  12.896 -0.0311  0.3274  0.1486
16979TIP3    H172428   6.390   6.168  12.834  0.9900  0.4113  0.9888
16979TIP3    H272429   6.350   6.309  12.874 -0.0454  0.3445  0.2116
16980TIP3   OH272430   4.535   4.461   3.365  0.0744  0.2415  0.7159
16980TIP3    H172431   4.542   4.413   3.447 -2.2513 -0.3731  0.6104
16980TIP3    H272432   4.514   4.551   3.393  0.3740  0.2742  0.8320
16981TIP3   OH272433   0.336   0.598   4.745  0.2102 -0.1953 -0.3230
16981TIP3    H172434   0.403   0.663   4.765  0.7691 -0.6635 -0.6449
16981TIP3    H272435   0.383   0.515   4.741 -0.2792 -0.4403 -1.1964
16982TIP3   OH272436   4.910   6.238  13.099 -0.2577  0.6348 -0.2999
16982TIP3    H172437   4.887   6.210  13.187  2.7695  0.3073  0.4452
16982TIP3    H272438   4.891   6.162  13.044  0.0034  0.0240  0.4469
16983TIP3   OH272439   4.699   3.682   5.644 -0.1858 -0.0994 -0.1685
16983TIP3    H172440   4.622   3.634   5.675 -0.3594  0.1244 -0.2496
16983TIP3    H272441   4.755   3.614   5.606  0.3227 -0.4496  1.2114
16984TIP3   OH272442   2.385   0.637   5.921 -0.0997  0.0867  0.2260
16984TIP3    H172443   2.371   0.560   5.866 -1.6444  0.8760 -0.5161
16984TIP3    H272444   2.350   0.613   6.006  1.0354 -0.6462  0.4973
16985TIP3   OH272445   3.554   0.628  11.083  0.8172  0.0401 -0.6420
16985TIP3    H172446   3.579   0.639  11.175 -0.1231  1.9576 -0.6074
16985TIP3    H272447   3.551   0.533  11.071 -0.7038 -0.2476  1.7587
16986TIP3   OH272448   6.438   2.881  15.273  0.7203  0.0073 -0.3342
16986TIP3    H172449   6.399   2.908  15.356 -0.4745 -2.7624  0.0630
16986TIP3    H272450   6.436   2.785  15.276  0.1337 -0.1351 -3.7915
16987TIP3   OH272451   4.688   6.721  11.532 -0.2927 -0.1493 -0.5170
16987TIP3    H172452   4.724   6.633  11.545 -0.1851  0.1910  1.7354
16987TIP3    H272453   4.751   6.765  11.476 -0.4043 -1.5325 -1.7592
16988TIP3   OH272454   3.518   0.744   2.762  0.1693 -0.2231  0.0360
16988TIP3    H172455   3.423   0.737   2.774  0.2573 -1.2182  0.1700
16988TIP3    H272456   3.539   0.834   2.788 -1.1101  0.8782 -2.4595
16989TIP3   OH272457   1.049   4.207   2.524 -0.1095  0.0769  0.2569
16989TIP3    H172458   1.057   4.294   2.563  0.1067 -0.3462  1.1804
16989TIP3    H272459   1.035   4.149   2.599 -0.9216 -0.6003 -0.4063
16990TIP3   OH272460   4.039   0.427  12.726 -0.3192 -0.0513 -0.9085
16990TIP3    H172461   4.128   0.442  12.759 -0.4544  1.5987 -1.2577
16990TIP3    H272462   3.983   0.470  12.790 -1.0355 -3.0476  0.5443
16991TIP3   OH272463   6.707   3.626  10.849  0.0909 -0.2693 -0.2603
16991TIP3    H172464   6.755   3.640  10.767  0.7853 -1.0521  0.0065
16991TIP3    H272465   6.672   3.712  10.871  0.3482  0.0581 -1.1066
16992TIP3   OH272466   0.678   3.001  10.704 -0.4038 -0.0975 -0.1492
16992TIP3    H172467   0.758   2.950  10.706  0.5805  1.1665 -3.1373
16992TIP3    H272468   0.682   3.056  10.782  0.9323 -1.0423  0.4640
16993TIP3   OH272469   5.704   5.480   1.029  0.0249  0.5395 -0.5811
16993TIP3    H172470   5.691   5.573   1.014  0.0335  0.4575 -1.0957
16993TIP3    H272471   5.768   5.475   1.101 -1.0010  0.9347  0.3729
16994TIP3   OH272472   6.621   5.534   1.192 -0.3902 -0.0585 -0.0477
16994TIP3    H172473   6.539   5.496   1.159 -1.4842  0.2866  2.1487
16994TIP3    H272474   6.643   5.602   1.128 -1.2206 -0.9123 -1.2610
16995TIP3   OH272475   2.056   5.124  16.529  0.2428 -0.0142  0.3556
16995TIP3    H172476   2.023   5.034  16.526 -3.0724  1.0331  2.4510
16995TIP3    H272477   2.124   5.122  16.597 -3.1240 -0.0683  3.8992
16996TIP3   OH272478   1.675   6.533   0.596  0.5072  0.1249  0.8618
16996TIP3    H172479   1.747   6.470   0.595 -1.7124 -2.6996  3.7744
16996TIP3    H272480   1.622   6.510   0.520  1.7978  1.1250 -0.3490
16997TIP3   OH272481   1.138   1.593  15.872  0.2048  0.7591 -0.4068
16997TIP3    H172482   1.119   1.672  15.922 -1.1470  0.5737 -0.6060
16997TIP3    H272483   1.066   1.585  15.810 -1.0416 -1.9719  1.2814
16998TIP3   OH272484   2.387   3.376   2.900 -0.2227 -0.4128  0.0184
16998TIP3    H172485   2.477   3.407   2.904  0.2266 -1.8599  1.7088
16998TIP3    H272486   2.336   3.444   2.943 -0.1038  0.8643 -1.7904
16999TIP3   OH272487   5.671   2.484   3.469  0.9051 -0.3068 -0.5229
16999TIP3    H172488   5.646   2.473   3.377  1.9470  1.3263 -1.0040
16999TIP3    H272489   5.587   2.486   3.515  0.3478 -0.4293 -1.5007
17000TIP3   OH272490   6.817   6.034   0.058 -0.2790 -0.9576 -0.3569
17000TIP3    H172491   6.744   6.087   0.091 -1.7652 -2.3196 -1.3763
17000TIP3    H272492   6.827   6.061  -0.033  1.6634  0.4522  0.2375
17001TIP3   OH272493   2.865   5.168   2.451 -0.3806  0.0194  0.2744
17001TIP3    H172494   2.926   5.117   2.398 -1.0057  1.1587 -1.5703
17001TIP3    H272495   2.916   5.195   2.528  0.6049 -1.4111  0.1327
17002TIP3   OH272496   2.693   1.560  12.829 -0.2700  0.6749 -0.0740
17002TIP3    H172497   2.688   1.497  12.901 -1.3021 -0.6529 -1.2819
17002TIP3    H272498   2.624   1.623  12.848 -1.3534 -0.3533 -0.5176
17003TIP3   OH272499   1.621   1.974   2.292  0.2866  0.1372 -0.0076
17003TIP3    H172500   1.547   1.927   2.330 -1.6887  1.6677 -1.8300
17003TIP3    H272501   1.615   1.957   2.198  2.7167 -0.3338 -0.1101
17004TIP3   OH272502   6.348   3.469   0.525  0.1657  0.6376 -0.4250
17004TIP3    H172503   6.424   3.421   0.559 -1.3748 -1.0104  0.7695
17004TIP3    H272504   6.369   3.485   0.433  1.2004 -1.3451 -0.5613
17005TIP3   OH272505   4.987   4.248  12.413  0.4152 -0.0133  0.0959
17005TIP3    H172506   4.929   4.207  12.478  0.2796 -0.7718 -0.5052
17005TIP3    H272507   4.989   4.341  12.439  0.4661 -0.3312  1.2563
17006TIP3   OH272508   0.223   3.640   4.056  0.1235 -0.5015 -0.1899
17006TIP3    H172509   0.314   3.640   4.084 -0.0096 -0.3041  0.2488
17006TIP3    H272510   0.174   3.620   4.135 -0.3330  1.1880 -0.0307
17007TIP3   OH272511   2.124   5.098  11.738 -0.3882  0.0347 -0.4336
17007TIP3    H172512   2.037   5.058  11.743 -1.1702  1.8659  1.4239
17007TIP3    H272513   2.167   5.070  11.819  1.0959 -1.5465 -1.7259
17008TIP3   OH272514   0.593   2.624  16.423  0.2320 -0.1608 -0.4650
17008TIP3    H172515   0.550   2.691  16.475  0.8508 -0.2570  0.1866
17008TIP3    H272516   0.646   2.673  16.359  0.6343 -0.0219 -0.0312
17009TIP3   OH272517   4.032   1.778   5.997 -0.1317 -0.2342 -0.7132
17009TIP3    H172518   4.044   1.683   5.995 -0.5119 -0.2915 -0.3590
17009TIP3    H272519   3.938   1.790   6.012  0.0692  0.1962  0.2335
17010TIP3   OH272520   3.502   6.436  16.934 -0.2388  0.3663  0.5589
17010TIP3    H172521   3.508   6.444  17.029  0.9587 -2.5988  0.7835
17010TIP3    H272522   3.578   6.484  16.901  0.2053  0.0873  1.1779
17011TIP3   OH272523   5.583   0.169   3.865 -0.0903  0.3173 -0.0031
17011TIP3    H172524   5.549   0.174   3.955 -2.8538  2.6160 -1.1001
17011TIP3    H272525   5.653   0.234   3.863  0.1454  0.0854  0.5414
17012TIP3   OH272526   6.441   4.027  13.833  0.0415 -0.3912 -0.3430
17012TIP3    H172527   6.403   3.990  13.913 -0.1756 -0.6678 -0.5722
17012TIP3    H272528   6.509   4.087  13.864  0.1347 -0.6929  0.0442
17013TIP3   OH272529   1.858   3.443   5.508  0.1600 -0.3160 -0.1438
17013TIP3    H172530   1.925   3.490   5.459 -0.5578 -0.1574 -0.9874
17013TIP3    H272531   1.889   3.445   5.599  0.9148  0.4187 -0.4085
17014TIP3   OH272532   2.326   5.579   4.209 -0.2124 -0.3343 -0.3513
17014TIP3    H172533   2.392   5.647   4.197 -1.1699  0.5428 -0.7120
17014TIP3    H272534   2.318   5.570   4.304 -0.3279  0.3033 -0.2963
17015TIP3   OH272535   0.048   3.704  13.833  0.3973  0.3827 -0.1716
17015TIP3    H172536   0.016   3.633  13.778  3.1394 -1.4122  0.4267
17015TIP3    H272537   0.126   3.737  13.787 -0.0946  2.1288  0.2150
17016TIP3   OH272538   0.977   2.492  11.180  0.4277  0.3368 -0.2627
17016TIP3    H172539   1.056   2.444  11.158 -0.9498 -2.2652  0.2176
17016TIP3    H272540   0.925   2.492  11.099  0.3758  0.9469 -0.2336
17017TIP3   OH272541   5.377   4.966   0.968 -0.1371  0.2534 -0.3578
17017TIP3    H172542   5.309   4.916   1.012 -1.6435  2.0783 -0.5542
17017TIP3    H272543   5.399   5.036   1.029  0.1172  0.8619 -1.1347
17018TIP3   OH272544   6.214   2.409  15.132 -0.4882 -0.2672 -0.4992
17018TIP3    H172545   6.276   2.471  15.095 -0.5155  0.4689  0.6665
17018TIP3    H272546   6.129   2.452  15.124 -0.4526  0.0451  0.7067
17019TIP3   OH272547   4.685   5.244  10.261  0.5607  0.2407  0.0525
17019TIP3    H172548   4.614   5.282  10.209 -0.6702 -0.5104  1.1275
17019TIP3    H272549   4.760   5.301  10.246 -0.3196  1.1443 -0.9869
17020TIP3   OH272550   1.602   2.646  14.538  0.2758 -0.1116  0.4216
17020TIP3    H172551   1.660   2.652  14.462  1.3499  0.6923  1.2976
17020TIP3    H272552   1.514   2.647  14.501  0.8073 -0.9318 -0.8947
17021TIP3   OH272553   4.486   6.500  10.725  0.0472 -0.2664  0.2136
17021TIP3    H172554   4.495   6.455  10.641  0.8382 -0.4691  0.4060
17021TIP3    H272555   4.562   6.472  10.776 -0.0026  0.4799  0.7062
17022TIP3   OH272556   2.918   2.177   3.546 -0.0919 -0.0747 -0.2761
17022TIP3    H172557   2.974   2.119   3.493  0.5002  1.1574 -1.0241
17022TIP3    H272558   2.949   2.164   3.636 -0.3039 -1.2883 -0.3672
17023TIP3   OH272559   3.938   4.709   1.180 -0.3571  0.6462 -0.2066
17023TIP3    H172560   3.967   4.720   1.089 -0.2724 -1.8617 -0.5176
17023TIP3    H272561   3.844   4.692   1.173  0.1612 -2.6878 -0.1477
17024TIP3   OH272562   1.559   3.007   2.016 -0.2937  0.5660 -0.0178
17024TIP3    H172563   1.470   2.983   1.990 -0.2033 -0.8520  0.8708
17024TIP3    H272564   1.609   3.006   1.935 -1.5021  3.4922 -0.8515
17025TIP3   OH272565   4.835   3.005  17.224 -0.5243  0.1789 -0.1633
17025TIP3    H172566   4.806   2.914  17.220 -1.3803  0.5287 -4.6265
17025TIP3    H272567   4.762   3.052  17.264 -2.1807 -0.4150 -2.3863
17026TIP3   OH272568   1.418   1.753  12.223 -0.8087  0.1163 -0.5097
17026TIP3    H172569   1.406   1.687  12.291  0.3354 -0.6046 -0.9961
17026TIP3    H272570   1.333   1.760  12.181 -1.1620 -0.4260  0.1014
17027TIP3   OH272571   3.510   4.848   5.348 -0.3556  0.8119 -0.2472
17027TIP3    H172572   3.486   4.865   5.439  1.4192  1.4916  0.1250
17027TIP3    H272573   3.469   4.919   5.299 -2.0238 -0.0360 -0.0956
17028TIP3   OH272574   1.959   2.833  15.296  0.0260  0.2761 -0.8267
17028TIP3    H172575   2.025   2.777  15.254  0.3091  0.6053 -0.8303
17028TIP3    H272576   2.002   2.919  15.303 -0.2463  0.3818 -0.4295
17029TIP3   OH272577   4.335   5.354  17.036 -0.4171  0.5858  0.3408
17029TIP3    H172578   4.360   5.428  16.980 -1.0164 -0.0725 -0.8248
17029TIP3    H272579   4.379   5.371  17.119  1.7796  0.7611 -0.8290
17030TIP3   OH272580   6.496   6.174  11.270  0.1727  0.6512  0.9016
17030TIP3    H172581   6.552   6.219  11.208 -1.0902  1.9031  0.6229
17030TIP3    H272582   6.544   6.095  11.294  1.8432  1.4854  0.3666
17031TIP3   OH272583   0.290   2.968  16.830  0.1571 -0.4061  0.1608
17031TIP3    H172584   0.336   3.005  16.906 -0.6708  1.1925 -0.0824
17031TIP3    H272585   0.233   3.039  16.801 -0.1572 -1.3072 -1.4404
17032TIP3   OH272586   3.554   0.797  15.961 -0.2306  0.1482  0.6058
17032TIP3    H172587   3.649   0.790  15.953 -0.4672 -0.3997 -2.0024
17032TIP3    H272588   3.529   0.864  15.898 -1.8992 -2.1199 -1.2186
17033TIP3   OH272589   6.593   4.184   0.751  0.5126 -0.2418 -0.4347
17033TIP3    H172590   6.530   4.247   0.716  2.2980  2.7798  1.5597
17033TIP3    H272591   6.645   4.158   0.675 -0.0512  0.9308 -1.2425
17034TIP3   OH272592   6.440   4.192   2.110  0.2843  0.2630  0.2234
17034TIP3    H172593   6.518   4.195   2.166  0.2974  0.8132  0.1777
17034TIP3    H272594   6.369   4.222   2.166 -0.2654 -2.0719  0.8468
17035TIP3   OH272595   3.587   6.716   1.628 -0.4058  0.0255  0.0154
17035TIP3    H172596   3.523   6.726   1.698  0.9251 -1.4114  1.4745
17035TIP3    H272597   3.615   6.625   1.633  1.9470  0.6825 -0.3991
17036TIP3   OH272598   6.295   4.960  11.703 -0.7205  0.4531  0.0206
17036TIP3    H172599   6.365   5.022  11.724 -0.1921  0.5843 -2.0411
17036TIP3    H272600   6.329   4.910  11.629 -2.0280 -0.8412  0.2768
17037TIP3   OH272601   2.495   1.680   4.148 -0.0909 -0.0519  0.2870
17037TIP3    H172602   2.485   1.585   4.141 -1.0135  0.0613  0.0519
17037TIP3    H272603   2.412   1.710   4.186 -0.4509  0.8368 -1.1879
17038TIP3   OH272604   0.884   1.733  10.756 -0.0496 -0.2993 -0.6478
17038TIP3    H172605   0.866   1.647  10.793  0.4746 -0.2838 -0.3625
17038TIP3    H272606   0.814   1.789  10.791  0.4298 -0.2864  0.3074
17039TIP3   OH272607   1.629   4.234   4.267  0.6120 -0.6931 -0.4860
17039TIP3    H172608   1.617   4.326   4.293  0.4883 -1.0597  0.7817
17039TIP3    H272609   1.540   4.200   4.257  0.6134 -1.3398  1.4850
17040TIP3   OH272610   3.936   4.592   3.031  0.2410  0.5586 -0.4202
17040TIP3    H172611   3.848   4.564   3.005  0.9140 -1.8295 -0.2695
17040TIP3    H272612   3.952   4.547   3.113  1.1306  1.9892  0.2068
17041TIP3   OH272613   5.265   6.302   2.357 -0.4306 -0.5847 -0.0087
17041TIP3    H172614   5.216   6.231   2.316  0.0052 -0.4608 -0.7425
17041TIP3    H272615   5.265   6.280   2.450  0.8968 -2.2731 -0.3975
17042TIP3   OH272616   1.407   4.187  16.357  0.4506  0.4022 -0.1537
17042TIP3    H172617   1.324   4.225  16.384 -1.1462 -1.9719 -1.5212
17042TIP3    H272618   1.400   4.094  16.381  1.1315 -0.6335 -3.6502
17043TIP3   OH272619   2.319   0.252  10.586 -0.4974  0.0676 -0.0666
17043TIP3    H172620   2.286   0.339  10.564 -2.8420 -0.7847 -0.0455
17043TIP3    H272621   2.335   0.210  10.502  1.8332  0.9210 -0.0840
17044TIP3   OH272622   2.427   5.036  17.249  0.2627 -0.0267  0.2494
17044TIP3    H172623   2.410   5.038  17.155 -0.4139 -0.8194  0.3527
17044TIP3    H272624   2.495   4.970  17.260  2.1490  1.8281  0.0519
17045TIP3   OH272625   1.910   2.978  14.524 -0.2383 -0.4253 -0.2082
17045TIP3    H172626   1.952   2.950  14.605 -0.2625 -0.2462 -0.1318
17045TIP3    H272627   1.820   2.999  14.550 -0.1272  0.0525 -0.1923
17046TIP3   OH272628   6.238   2.575   5.760  0.6296  0.0813  0.3188
17046TIP3    H172629   6.189   2.493   5.765  0.3320  0.2385  0.0502
17046TIP3    H272630   6.325   2.554   5.794  1.1981 -0.8623 -1.5958
17047TIP3   OH272631   6.053   4.961  13.613  0.3204 -0.1264 -0.3010
17047TIP3    H172632   5.992   4.909  13.562  0.4459 -0.7201  0.1519
17047TIP3    H272633   6.047   4.925  13.702  3.3248 -1.9983 -0.7846
17048TIP3   OH272634   0.267   1.901  11.612  0.0727  0.2874 -0.2402
17048TIP3    H172635   0.188   1.850  11.629 -0.4954  0.5583 -2.0407
17048TIP3    H272636   0.289   1.939  11.697 -0.7960 -1.0956  0.6200
17049TIP3   OH272637   0.838   4.643   4.223  0.5842  0.0980  0.4436
17049TIP3    H172638   0.882   4.680   4.300 -0.0865  0.9127  0.4419
17049TIP3    H272639   0.764   4.594   4.259  1.1928 -0.8469  0.4140
17050TIP3   OH272640   6.662   0.998  12.775 -0.5612  0.7165 -0.5516
17050TIP3    H172641   6.629   1.014  12.863  1.1105  1.2151  0.0109
17050TIP3    H272642   6.726   1.068  12.760  0.5773 -0.4651 -1.4060
17051TIP3   OH272643   0.893   4.274  15.852 -0.5333 -0.2477  0.6851
17051TIP3    H172644   0.928   4.269  15.941  0.0592  3.3053  0.7440
17051TIP3    H272645   0.970   4.276  15.795 -0.8374 -0.0496  0.2729
17052TIP3   OH272646   1.200   3.670  13.260  1.0020 -0.4597  0.2419
17052TIP3    H172647   1.263   3.724  13.212  1.9165  0.9272  2.9205
17052TIP3    H272648   1.229   3.580  13.243  2.9613  0.1165  0.4066
17053TIP3   OH272649   4.593   0.212   2.532 -0.0531 -0.5153  0.0674
17053TIP3    H172650   4.635   0.298   2.537 -4.2947  1.5347  3.2471
17053TIP3    H272651   4.563   0.206   2.441  1.9453  0.4577 -0.7079
17054TIP3   OH272652   2.490   3.613  16.235  0.1345  0.5946 -0.0317
17054TIP3    H172653   2.398   3.638  16.243 -0.1987  0.1653 -2.1749
17054TIP3    H272654   2.524   3.667  16.164  0.7250 -1.3660 -1.2983
17055TIP3   OH272655   0.200   0.713  13.070  0.1942  0.1303 -0.0737
17055TIP3    H172656   0.147   0.787  13.101 -0.8611 -0.3242 -0.7980
17055TIP3    H272657   0.216   0.732  12.978 -1.4282 -1.3327 -0.6703
17056TIP3   OH272658   2.461   0.638   2.996 -0.1752  0.4768  0.1370
17056TIP3    H172659   2.387   0.591   3.033  0.1730 -1.7486 -1.8844
17056TIP3    H272660   2.425   0.684   2.920 -0.1585  2.1467  1.1139
17057TIP3   OH272661   4.984   6.694   0.402  0.6578 -0.1249  0.3211
17057TIP3    H172662   5.055   6.684   0.338  0.5468  1.9620 -0.1479
17057TIP3    H272663   4.976   6.607   0.442  1.2202 -1.2704 -1.9767
17058TIP3   OH272664   6.516   5.629   5.231 -0.7404  0.0830  0.4682
17058TIP3    H172665   6.491   5.537   5.237  0.3149 -0.2376  0.0348
17058TIP3    H272666   6.596   5.629   5.178 -0.0680  1.1219  1.4562
17059TIP3   OH272667   3.483   4.012   6.089 -0.5305 -0.3762  0.6509
17059TIP3    H172668   3.542   4.081   6.121  0.0515  0.3857 -1.9589
17059TIP3    H272669   3.537   3.933   6.092 -0.5340 -0.3470  1.6825
17060TIP3   OH272670   2.083   0.066  13.726 -0.5995  0.8753  0.6412
17060TIP3    H172671   2.129  -0.018  13.727 -0.6660  0.8275 -0.1801
17060TIP3    H272672   2.123   0.115  13.798  1.3679  1.1611 -0.6030
17061TIP3   OH272673   5.338   2.164  16.605  0.2495 -0.0030  0.2509
17061TIP3    H172674   5.390   2.235  16.642  1.9044 -1.0041 -0.0754
17061TIP3    H272675   5.254   2.204  16.584  0.6230  1.4782  1.4939
17062TIP3   OH272676   0.499   2.466   0.153  0.1488  0.8578 -0.4331
17062TIP3    H172677   0.479   2.513   0.234  0.3687 -0.2979  0.3148
17062TIP3    H272678   0.478   2.374   0.173  1.4897  0.3520 -1.2344
17063TIP3   OH272679   1.829   3.500  13.968  0.8482  0.1014 -0.7157
17063TIP3    H172680   1.770   3.575  13.967  0.0908 -0.4885 -0.9653
17063TIP3    H272681   1.849   3.487  14.061  1.3969  0.9271 -0.7163
17064TIP3   OH272682   3.843   1.175  12.676 -0.0290 -0.2876 -0.8548
17064TIP3    H172683   3.930   1.179  12.635  0.1548  0.2983 -0.4289
17064TIP3    H272684   3.798   1.253  12.643 -0.2726 -0.4180 -0.8239
17065TIP3   OH272685   3.336   3.681   2.515  0.5319  0.0837 -0.3098
17065TIP3    H172686   3.247   3.651   2.534 -0.0622  1.2195 -1.2068
17065TIP3    H272687   3.345   3.762   2.565  0.0171  1.4929 -2.3952
17066TIP3   OH272688   0.617   1.404  13.365  0.5179  0.1969  0.4716
17066TIP3    H172689   0.679   1.367  13.302  1.6366  1.3957  0.8509
17066TIP3    H272690   0.581   1.480  13.321 -1.3120 -0.9519 -0.0618
17067TIP3   OH272691   4.699   3.493  14.635  0.4790 -0.3644 -0.1519
17067TIP3    H172692   4.679   3.586  14.629 -0.1342 -0.6306 -2.6290
17067TIP3    H272693   4.755   3.485  14.712 -0.1920  1.9114  0.6049
17068TIP3   OH272694   6.793   0.707  13.370 -0.3132  0.0483  0.3226
17068TIP3    H172695   6.860   0.685  13.435 -0.3902  0.8217  0.6716
17068TIP3    H272696   6.829   0.782  13.323 -0.8844  0.3980  0.4381
17069TIP3   OH272697   6.543   6.180   0.391 -0.2847  0.2887 -0.4192
17069TIP3    H172698   6.500   6.263   0.411  0.9978  0.9358 -0.2910
17069TIP3    H272699   6.616   6.175   0.453  0.2061 -0.4924 -1.0465
17070TIP3   OH272700   2.031   2.760   4.029 -0.2524 -0.5850  0.3183
17070TIP3    H172701   1.963   2.699   4.002 -0.5497 -0.4878  0.8396
17070TIP3    H272702   2.103   2.705   4.059  0.1491 -0.6964 -0.8260
17071TIP3   OH272703   3.920   5.754   5.050 -0.2102  0.0234  1.0498
17071TIP3    H172704   4.015   5.751   5.059 -0.1377  0.1819  0.3229
17071TIP3    H272705   3.901   5.710   4.968 -0.7548  0.1359  1.1112
17072TIP3   OH272706   6.793   5.515   4.677  0.0343 -0.0199 -0.2287
17072TIP3    H172707   6.698   5.505   4.677  0.0469 -0.1495 -1.0161
17072TIP3    H272708   6.822   5.473   4.596  0.6059  1.4115 -0.7866
17073TIP3   OH272709   2.494   6.119  15.415  0.0841  0.0826 -0.0434
17073TIP3    H172710   2.427   6.166  15.365  0.3739  1.1507  0.5552
17073TIP3    H272711   2.459   6.115  15.504  0.3796 -0.2225  0.0569
17074TIP3   OH272712   2.439   6.635   0.312  0.2217 -0.3576 -0.0653
17074TIP3    H172713   2.393   6.710   0.348  0.7991  0.8228 -1.7175
17074TIP3    H272714   2.530   6.664   0.306  0.5549 -1.4027 -0.1686
17075TIP3   OH272715   0.216   5.252  15.682 -0.0034 -0.2284 -0.0222
17075TIP3    H172716   0.265   5.297  15.613  0.6634 -1.3904 -0.3256
17075TIP3    H272717   0.202   5.163  15.648 -2.0582 -0.0120  0.2044
17076TIP3   OH272718   3.904   1.200   3.270  0.3619 -0.5942  0.3884
17076TIP3    H172719   3.865   1.114   3.257 -0.4183 -0.5391  2.2610
17076TIP3    H272720   3.985   1.183   3.318 -0.7984 -0.1244  2.5460
17077TIP3   OH272721   3.818   4.117  12.347  0.0350 -0.0832 -0.2944
17077TIP3    H172722   3.789   4.067  12.423  0.8089  0.5380  0.4228
17077TIP3    H272723   3.900   4.074  12.321 -1.3797 -1.6904 -2.1616
17078TIP3   OH272724   6.202   4.965  15.587 -0.7418  0.5952  0.9116
17078TIP3    H172725   6.133   4.919  15.539 -0.0995  0.3304  0.2340
17078TIP3    H272726   6.181   5.058  15.575  0.7553  0.6409 -1.9789
17079TIP3   OH272727   6.803   2.402   5.923  0.0955 -0.0060  0.3353
17079TIP3    H172728   6.835   2.491   5.907  0.9676 -0.4835 -0.6389
17079TIP3    H272729   6.752   2.409   6.004 -0.2832  1.4824 -0.0225
17080TIP3   OH272730   4.098   6.728   0.761 -0.1824 -0.1373 -0.6302
17080TIP3    H172731   4.050   6.804   0.726  0.0073 -0.0855 -0.7809
17080TIP3    H272732   4.076   6.657   0.701  0.6893  0.1149 -1.2636
17081TIP3   OH272733   4.601   5.315  14.379 -0.4015  0.1362  0.3140
17081TIP3    H172734   4.605   5.383  14.311  0.1399 -2.6836 -2.6187
17081TIP3    H272735   4.508   5.296  14.389 -0.3551 -1.4329 -1.8195
17082TIP3   OH272736   4.443   6.313  16.520  1.0777  0.1005  0.5575
17082TIP3    H172737   4.522   6.264  16.496 -0.9945 -2.9947 -0.2369
17082TIP3    H272738   4.384   6.300  16.446 -1.0691  0.3201  2.1970
17083TIP3   OH272739   5.715   1.526  11.884 -0.2510  0.5358 -0.7545
17083TIP3    H172740   5.751   1.612  11.905 -0.5666  0.6410 -0.6395
17083TIP3    H272741   5.630   1.525  11.928  0.6913 -0.6796  1.1407
17084TIP3   OH272742   0.380   6.236  13.792 -0.0071  0.0063  0.2178
17084TIP3    H172743   0.419   6.254  13.707 -2.8181 -2.5023 -1.6997
17084TIP3    H272744   0.394   6.142  13.805 -0.3963  0.1913  2.1380
17085TIP3   OH272745   0.415   5.001  14.466  0.4396  0.3557  0.2961
17085TIP3    H172746   0.361   5.042  14.398 -0.1815  1.8204  1.6151
17085TIP3    H272747   0.505   5.012  14.435  0.1196  0.1544 -0.7349
17086TIP3   OH272748   4.118   0.654   5.479 -0.3707  0.2012 -0.0493
17086TIP3    H172749   4.182   0.632   5.547  0.8389  1.4013 -0.7628
17086TIP3    H272750   4.167   0.708   5.417 -1.7033 -0.0800 -1.3886
17087TIP3   OH272751   2.242   5.291  16.756  0.3684  0.0222 -0.4805
17087TIP3    H172752   2.282   5.278  16.670 -0.4327 -1.2900 -0.6711
17087TIP3    H272753   2.217   5.383  16.757  0.8534  0.1716 -1.4466
17088TIP3   OH272754   4.771   5.310   0.704  0.0326  0.1337 -0.0086
17088TIP3    H172755   4.690   5.344   0.666 -0.3799  0.6272  1.2928
17088TIP3    H272756   4.753   5.217   0.720 -0.1075  0.1394 -0.1326
17089TIP3   OH272757   1.950   5.656   1.839 -0.5328 -0.4250 -0.3300
17089TIP3    H172758   1.881   5.592   1.851 -1.8246  1.2127  1.1016
17089TIP3    H272759   1.909   5.728   1.791 -0.0243  0.8600  1.1248
17090TIP3   OH272760   5.722   2.098  15.489  0.2397 -0.0288  0.1580
17090TIP3    H172761   5.805   2.131  15.523  0.5050  0.6008 -1.0887
17090TIP3    H272762   5.710   2.143  15.405 -0.2099 -1.8764 -0.7935
17091TIP3   OH272763   3.595   4.584  16.888  0.5180  0.1694  0.0849
17091TIP3    H172764   3.588   4.662  16.943 -1.6545  1.3787 -1.7713
17091TIP3    H272765   3.570   4.511  16.945 -1.4502  1.3590  0.8016
17092TIP3   OH272766   0.917   2.807  12.138 -0.0433  0.2433  0.0814
17092TIP3    H172767   0.980   2.817  12.209  0.5347  1.9570 -0.6599
17092TIP3    H272768   0.967   2.823  12.058 -1.4081  1.6424 -0.5114
17093TIP3   OH272769   2.483   3.028   2.781  0.1347 -0.3788  0.2402
17093TIP3    H172770   2.396   3.045   2.818 -0.1237 -0.9256 -0.1020
17093TIP3    H272771   2.478   3.064   2.692  0.6147  0.5523  0.5830
17094TIP3   OH272772   3.317   4.103  16.207 -0.2084  0.3147 -0.3117
17094TIP3    H172773   3.341   4.192  16.183  2.8561 -1.2427 -3.4503
17094TIP3    H272774   3.327   4.101  16.302  2.9421  2.4635 -0.5142
17095TIP3   OH272775   3.295   6.770   5.691 -0.1674 -0.0302 -0.0225
17095TIP3    H172776   3.361   6.825   5.650  1.6685 -2.0575  0.1413
17095TIP3    H272777   3.251   6.726   5.618  1.5555 -1.8892  0.0091
17096TIP3   OH272778   3.195   1.807   1.753 -0.5063 -0.0845 -0.3767
17096TIP3    H172779   3.280   1.764   1.762  0.2454  1.1722 -1.2273
17096TIP3    H272780   3.133   1.736   1.739  0.7959 -0.8721 -2.3141
17097TIP3   OH272781   3.228   2.449  15.688 -0.0240 -0.2509 -0.5413
17097TIP3    H172782   3.318   2.420  15.701 -0.2577 -0.6112  0.3103
17097TIP3    H272783   3.228   2.540  15.716  0.5330  0.3692 -2.4808
17098TIP3   OH272784   5.503   5.208  16.033 -0.4760  0.1710  0.0616
17098TIP3    H172785   5.489   5.301  16.012  2.2773  1.4087  3.2057
17098TIP3    H272786   5.488   5.202  16.127 -1.2078 -2.7473 -0.2014
17099TIP3   OH272787   0.168   0.798  12.085  0.2351 -0.2326  0.1025
17099TIP3    H172788   0.151   0.888  12.111  3.0362  0.3990 -0.1111
17099TIP3    H272789   0.262   0.795  12.068  0.2478 -3.2661  0.3862
17100TIP3   OH272790   6.357   1.909   3.438  0.3105 -0.0952  0.0841
17100TIP3    H172791   6.336   1.816   3.431  2.3164 -0.5732  0.2944
17100TIP3    H272792   6.273   1.951   3.455 -0.6464 -1.8351 -0.2439
17101TIP3   OH272793   0.342   0.570   1.407 -0.6198  0.0888 -0.2715
17101TIP3    H172794   0.330   0.490   1.458  0.1692  1.1900  1.7117
17101TIP3    H272795   0.319   0.545   1.317  1.7511 -2.9027 -0.1140
17102TIP3   OH272796   0.747   0.531  16.840 -0.4041  0.3543 -0.2234
17102TIP3    H172797   0.779   0.597  16.779 -1.9711  1.3259 -0.0063
17102TIP3    H272798   0.653   0.528  16.825 -0.2534 -2.7047 -1.0954
17103TIP3   OH272799   4.417   6.783  15.336  0.4441  0.2151  0.1360
17103TIP3    H172800   4.403   6.709  15.395  1.9219 -0.6359 -0.5495
17103TIP3    H272801   4.337   6.787  15.283  0.3453 -0.8869  0.1978
17104TIP3   OH272802   1.219   3.770  14.859 -0.5496 -0.2951  0.1825
17104TIP3    H172803   1.137   3.771  14.809 -1.6497  0.7050  1.9420
17104TIP3    H272804   1.232   3.678  14.882 -1.7905 -0.3120  0.8531
17105TIP3   OH272805   6.161   2.596   0.243 -0.4643 -0.1591  0.4853
17105TIP3    H172806   6.085   2.617   0.189  0.0729 -1.1205 -0.6512
17105TIP3    H272807   6.197   2.517   0.205  1.4876  0.6397  0.6147
17106TIP3   OH272808   1.834   2.905  13.362  0.2982 -0.9710  0.1039
17106TIP3    H172809   1.898   2.935  13.427  1.3171 -1.1863 -0.7879
17106TIP3    H272810   1.756   2.959  13.378  1.5184  0.9634 -0.3679
17107TIP3   OH272811   1.059   0.049   0.521 -0.6992  0.4642  0.0320
17107TIP3    H172812   1.098  -0.038   0.511 -0.3070  0.6224  0.1717
17107TIP3    H272813   1.127   0.100   0.566  0.4870  1.8425 -3.1496
17108TIP3   OH272814   2.888   1.788  14.372  0.4923  0.2021 -0.0158
17108TIP3    H172815   2.890   1.838  14.453  1.3827  0.7311 -0.3649
17108TIP3    H272816   2.837   1.709  14.394  2.1277 -0.4640  1.5075
17109TIP3   OH272817   6.234   3.367   2.653  0.0791 -0.1243 -0.4019
17109TIP3    H172818   6.195   3.409   2.730  1.3337 -0.7324  0.5794
17109TIP3    H272819   6.327   3.357   2.675  0.1763 -1.6377 -1.4103
17110TIP3   OH272820   5.778   6.149  17.137  0.3640  0.5714 -0.1295
17110TIP3    H172821   5.843   6.099  17.088 -0.0114  0.4173 -0.4678
17110TIP3    H272822   5.830   6.210  17.190  0.7678  0.6881 -0.6586
17111TIP3   OH272823   3.864   5.217   2.130  0.0853  0.1717 -0.3103
17111TIP3    H172824   3.774   5.228   2.162 -0.0215  1.6269 -1.0599
17111TIP3    H272825   3.859   5.141   2.072 -0.3149 -0.7273  0.8734
17112TIP3   OH272826   0.803   1.519  16.989  0.1506  0.3423  0.1074
17112TIP3    H172827   0.797   1.611  16.965 -1.2420  0.6941  1.7090
17112TIP3    H272828   0.835   1.520  17.080  0.2407 -0.7626  0.0925
17113TIP3   OH272829   3.844   3.946  17.127  0.0591 -0.1049 -0.2239
17113TIP3    H172830   3.914   3.965  17.064 -0.1055 -1.0005 -0.6804
17113TIP3    H272831   3.805   3.864  17.096 -1.4701  0.5867 -0.2230
17114TIP3   OH272832   1.050   0.159  17.261  0.2922 -0.0320 -0.2770
17114TIP3    H172833   1.065   0.154  17.355  1.6326  0.2803 -0.4635
17114TIP3    H272834   1.038   0.252  17.243 -1.3859 -0.2240 -0.2162
17115TIP3   OH272835   1.740   6.195  15.322  0.2527 -0.0346  0.2073
17115TIP3    H172836   1.835   6.186  15.319  0.4870  1.7567  1.5668
17115TIP3    H272837   1.724   6.252  15.397 -1.8780  0.0425 -0.2887
17116TIP3   OH272838   0.331   6.098   3.692 -0.1372  0.3667  0.0645
17116TIP3    H172839   0.297   6.029   3.636 -0.9516 -0.9344  2.0994
17116TIP3    H272840   0.425   6.082   3.695 -0.4198 -1.2091  1.2086
17117TIP3   OH272841   4.604   5.836  11.254  0.1029 -0.2309 -0.0424
17117TIP3    H172842   4.587   5.784  11.175  0.0176 -2.5434  1.4436
17117TIP3    H272843   4.693   5.811  11.279  0.9755  2.1542 -0.5893
17118TIP3   OH272844   0.413   6.393  11.629  0.2209 -0.1443 -0.2423
17118TIP3    H172845   0.413   6.485  11.603 -2.2441 -0.1613 -0.4045
17118TIP3    H272846   0.376   6.393  11.717  1.0897 -0.9015  0.1298
17119TIP3   OH272847   5.736   4.045  16.966  0.0658  0.5229  0.7725
17119TIP3    H172848   5.824   4.021  16.938 -0.5284 -1.3281  0.4301
17119TIP3    H272849   5.682   4.030  16.889 -0.8919 -0.4902  1.6178
17120TIP3   OH272850   2.780   5.776  16.565  0.6415  0.1366 -0.0918
17120TIP3    H172851   2.779   5.711  16.494  3.0264 -4.1818  3.5875
17120TIP3    H272852   2.693   5.772  16.603 -0.0876  1.2154 -1.5571
17121TIP3   OH272853   0.719   0.578   5.145 -0.8249  0.4450 -0.0841
17121TIP3    H172854   0.736   0.633   5.221  0.0981 -0.5622  0.4290
17121TIP3    H272855   0.792   0.517   5.141 -1.5654 -0.4016 -0.9842
17122TIP3   OH272856   3.115   3.846   5.801 -0.4783 -1.0313  0.1530
17122TIP3    H172857   3.037   3.791   5.802 -0.6236 -0.8664 -1.2127
17122TIP3    H272858   3.186   3.788   5.827 -0.8119 -1.5764 -0.1437
17123TIP3   OH272859   5.750   1.763   3.993  0.4794 -0.2750  0.1126
17123TIP3    H172860   5.787   1.836   4.042  0.2108 -1.5709  2.3261
17123TIP3    H272861   5.818   1.695   3.998 -0.2521 -1.0078  0.1518
17124TIP3   OH272862   1.570   1.610  11.720 -0.1903  0.1391  0.2185
17124TIP3    H172863   1.583   1.653  11.635 -0.3182 -0.2192  0.0172
17124TIP3    H272864   1.555   1.518  11.698 -1.6043  0.2860  0.5422
17125TIP3   OH272865   2.497   3.971   1.751 -0.9553  0.1032  0.0438
17125TIP3    H172866   2.532   3.894   1.796 -0.7663  0.4188  0.4364
17125TIP3    H272867   2.566   4.037   1.759 -2.3955  1.3553  2.4752
17126TIP3   OH272868   3.039   5.485  12.957  0.0774 -0.9649  0.2195
17126TIP3    H172869   3.122   5.462  12.915  1.1787  0.9144  1.3198
17126TIP3    H272870   2.972   5.457  12.894  1.4932 -3.2985 -0.3059
17127TIP3   OH272871   0.752   2.777   3.734 -0.2178  0.5446  0.3847
17127TIP3    H172872   0.826   2.814   3.686  0.4964 -1.8546 -0.4567
17127TIP3    H272873   0.782   2.690   3.761 -2.4007 -0.1195  0.8144
17128TIP3   OH272874   2.753   4.701   5.327  0.1515 -0.2297  0.1149
17128TIP3    H172875   2.794   4.727   5.244 -2.4795  1.7829 -0.6027
17128TIP3    H272876   2.808   4.742   5.394 -0.3570  2.0563 -0.8175
17129TIP3   OH272877   0.821   1.377  16.634  0.1495 -1.0956 -0.1574
17129TIP3    H172878   0.892   1.323  16.669 -0.0256 -0.2458  1.5368
17129TIP3    H272879   0.742   1.326  16.652  0.0418 -0.5725  0.8829
17130TIP3   OH272880   3.715   0.704   1.383 -0.2444  0.1724 -0.4612
17130TIP3    H172881   3.783   0.638   1.371  0.1441  0.4567  0.1985
17130TIP3    H272882   3.757   0.786   1.357 -0.7531  0.1546 -1.3652
17131TIP3   OH272883   0.608   4.669  14.758 -0.1329 -0.5392 -0.0879
17131TIP3    H172884   0.658   4.662  14.677  0.5225  2.8699 -0.0802
17131TIP3    H272885   0.519   4.687  14.729  0.2872  1.6900 -0.1246
17132TIP3   OH272886   2.886   6.117  11.141 -0.4369  0.3711 -0.2047
17132TIP3    H172887   2.863   6.026  11.120 -1.3031  0.5372 -0.0170
17132TIP3    H272888   2.877   6.164  11.058  0.0269  0.2839 -0.3064
17133TIP3   OH272889   5.984   5.126   1.688  0.0777 -0.0299 -0.3321
17133TIP3    H172890   5.906   5.074   1.704  1.7182 -3.6024 -3.1592
17133TIP3    H272891   6.021   5.142   1.775 -1.8519 -1.4235  0.7708
17134TIP3   OH272892   4.005   0.820   5.671  0.0204  0.7589 -0.1843
17134TIP3    H172893   4.062   0.787   5.601 -0.6897 -0.2978 -0.2645
17134TIP3    H272894   3.924   0.843   5.627 -0.2278  0.6344  0.2064
17135TIP3   OH272895   4.054   6.457  13.795 -0.4811  0.0552 -0.1846
17135TIP3    H172896   3.986   6.509  13.752  0.1309 -0.2254 -1.4873
17135TIP3    H272897   4.136   6.501  13.773 -0.2365  0.5774  1.6529
17136TIP3   OH272898   0.537   5.176   4.852 -0.0387 -0.1764  0.9863
17136TIP3    H172899   0.612   5.130   4.888  0.8427  1.6626  1.5529
17136TIP3    H272900   0.572   5.224   4.777 -0.8371  0.0142  0.7325
17137TIP3   OH272901   5.222   3.707   4.276 -0.7702  0.3078 -0.3329
17137TIP3    H172902   5.231   3.620   4.238  0.2163  0.7188 -1.0817
17137TIP3    H272903   5.128   3.725   4.273 -0.7646  0.1329 -2.1614
17138TIP3   OH272904   1.752   4.803  11.842  0.5409 -0.5609  0.4408
17138TIP3    H172905   1.803   4.735  11.885  0.6378  0.4600  1.9931
17138TIP3    H272906   1.809   4.835  11.771  1.0260 -1.1541  0.5623
17139TIP3   OH272907   6.162   0.892  15.706 -0.5246 -0.0994  0.0743
17139TIP3    H172908   6.170   0.934  15.791  1.1552  2.8239 -1.4343
17139TIP3    H272909   6.107   0.952  15.655 -2.1880 -2.2046 -0.6983
17140TIP3   OH272910   5.066   4.433  13.382  0.3704 -0.4308 -0.0718
17140TIP3    H172911   5.007   4.480  13.440  1.2682  2.1285 -1.1267
17140TIP3    H272912   5.029   4.446  13.294  2.3588  1.0940 -0.7304
17141TIP3   OH272913   5.583   4.550   3.383 -0.1852  0.1294 -0.1772
17141TIP3    H172914   5.624   4.636   3.394 -0.2782  0.3093 -1.2516
17141TIP3    H272915   5.639   4.491   3.434 -0.4310  0.9064  1.0170
17142TIP3   OH272916   6.595   3.246   2.037  0.0656 -0.7213  0.3013
17142TIP3    H172917   6.607   3.284   1.950  1.8843  0.7235  1.1570
17142TIP3    H272918   6.501   3.251   2.053  0.0475  1.7334 -0.3947
17143TIP3   OH272919   0.035   2.222   0.629 -0.0758 -0.9033 -0.7398
17143TIP3    H172920   0.123   2.245   0.598  0.0196 -1.6195 -0.9960
17143TIP3    H272921   0.044   2.218   0.724  0.5801 -2.6339 -0.8505
17144TIP3   OH272922   2.388   1.084  11.110 -0.2269 -0.0719 -0.2814
17144TIP3    H172923   2.353   1.064  11.023  1.3432 -0.7034 -0.7809
17144TIP3    H272924   2.429   1.170  11.100 -1.0827  0.3886  0.1434
17145TIP3   OH272925   1.255   1.607   6.272 -0.1558 -0.7929  0.4240
17145TIP3    H172926   1.311   1.635   6.200 -1.7471 -0.1950 -0.6182
17145TIP3    H272927   1.258   1.680   6.335 -0.4074 -0.3898 -0.0230
17146TIP3   OH272928   1.993   3.096   2.281  0.1407  0.0098  0.3932
17146TIP3    H172929   2.036   3.163   2.228 -0.2586  0.9426  1.2372
17146TIP3    H272930   1.939   3.145   2.343  1.4269 -1.0026  2.3989
17147TIP3   OH272931   4.943   4.508   2.255  0.2576 -0.6235  0.0040
17147TIP3    H172932   4.858   4.548   2.236  1.0367  0.3681 -1.5267
17147TIP3    H272933   4.922   4.419   2.283 -1.3936  0.2541  1.6656
17148TIP3   OH272934   3.769   3.413   3.337  0.0201 -0.1094  0.0303
17148TIP3    H172935   3.752   3.501   3.371 -1.1991  0.1478 -1.2021
17148TIP3    H272936   3.741   3.417   3.246  1.5425 -1.3174 -0.4985
17149TIP3   OH272937   5.490   1.559  16.175 -0.7526  0.5823 -0.4726
17149TIP3    H172938   5.522   1.630  16.231 -0.0613 -1.1537  1.4134
17149TIP3    H272939   5.549   1.559  16.099  2.2050 -0.9027  1.7331
17150TIP3   OH272940   6.038   6.537  13.341 -0.1793 -0.1890 -0.1156
17150TIP3    H172941   5.969   6.486  13.297 -0.1023  0.9616 -1.5923
17150TIP3    H272942   6.109   6.542  13.277  0.3979  0.5220  0.5699
17151TIP3   OH272943   1.178   0.241   5.339 -0.4290 -0.2246  0.0022
17151TIP3    H172944   1.237   0.166   5.331 -0.9639 -0.7614  0.8599
17151TIP3    H272945   1.100   0.204   5.381 -0.9620  0.6847 -0.1811
17152TIP3   OH272946   0.731   0.893   0.213  0.6545  1.3601  0.0987
17152TIP3    H172947   0.757   0.976   0.175  0.6739  0.9477 -0.8153
17152TIP3    H272948   0.813   0.849   0.235  0.6454  1.5522  0.5262
17153TIP3   OH272949   3.511   0.665  16.651 -0.5423  0.1724 -0.0892
17153TIP3    H172950   3.486   0.756  16.671  2.9865  0.8958  1.3361
17153TIP3    H272951   3.551   0.670  16.564 -0.2546 -0.0260  0.0369
17154TIP3   OH272952   4.604   4.058  15.721 -0.4624  0.7508  0.0679
17154TIP3    H172953   4.514   4.070  15.749 -0.3860 -0.1558  0.7450
17154TIP3    H272954   4.629   3.972  15.756  0.8384  1.2307  0.3535
17155TIP3   OH272955   6.782   1.741   0.773 -1.3128  0.3482  0.3502
17155TIP3    H172956   6.806   1.834   0.769  0.3886 -0.0721  0.2436
17155TIP3    H272957   6.852   1.701   0.825 -1.5329 -1.0355 -0.4115
17156TIP3   OH272958   6.605   1.008  14.172 -0.0167  0.2825  1.0345
17156TIP3    H172959   6.590   1.060  14.093  0.0825  1.9021  2.0460
17156TIP3    H272960   6.671   0.944  14.146  1.5449  2.1014  0.3128
17157TIP3   OH272961   1.330   4.635  12.526  0.9251  0.0932 -0.0918
17157TIP3    H172962   1.315   4.642  12.431  2.6525 -0.8789 -0.4524
17157TIP3    H272963   1.352   4.723  12.554 -0.4787  0.5673 -0.4167
17158TIP3   OH272964   4.718   0.181  12.561 -0.3195  0.1933 -0.7258
17158TIP3    H172965   4.785   0.244  12.532  0.6061 -0.4048  0.0862
17158TIP3    H272966   4.768   0.103  12.584 -1.0327  0.6003  2.3903
17159TIP3   OH272967   0.152   3.568   3.781 -0.6537  0.1989 -0.3005
17159TIP3    H172968   0.182   3.619   3.856 -1.9602 -0.3264  0.5871
17159TIP3    H272969   0.230   3.560   3.725  0.3733  0.4310  1.0758
17160TIP3   OH272970   4.395   6.722   4.097 -0.0248  0.4181  0.2120
17160TIP3    H172971   4.447   6.696   4.021 -0.3365 -0.7973  0.3992
17160TIP3    H272972   4.452   6.780   4.147  1.0663 -0.6990  0.2807
17161TIP3   OH272973   6.089   3.243   4.843 -0.8762 -0.1814 -0.8396
17161TIP3    H172974   6.151   3.173   4.862 -0.7965  0.8830  3.5497
17161TIP3    H272975   6.140   3.309   4.796 -0.4269 -2.1140 -3.1162
17162TIP3   OH272976   6.590   6.689   3.082 -0.2145 -0.4421  0.1095
17162TIP3    H172977   6.555   6.718   3.167  0.8151  0.0200  0.3805
17162TIP3    H272978   6.586   6.767   3.027  0.1734 -0.4477  0.0734
17163TIP3   OH272979   1.209   4.560  13.100 -0.2136  0.4791 -0.0791
17163TIP3    H172980   1.133   4.602  13.060 -1.0575 -0.5507  0.4119
17163TIP3    H272981   1.270   4.546  13.027 -1.4722 -0.7834 -0.9094
17164TIP3   OH272982   1.605   1.930   3.082 -0.5932  0.0053 -0.5518
17164TIP3    H172983   1.564   1.852   3.119 -0.1456 -0.4120 -0.9241
17164TIP3    H272984   1.538   1.970   3.028 -0.7002 -0.3360 -0.6695
17165TIP3   OH272985   5.426   5.175   2.663  0.9322  0.0653  0.6056
17165TIP3    H172986   5.474   5.253   2.635 -0.1581  0.9712  1.1884
17165TIP3    H272987   5.476   5.140   2.736  1.8337 -0.2113 -0.1455
17166TIP3   OH272988   4.901   0.293  11.993  0.2808 -0.1812 -1.1899
17166TIP3    H172989   4.902   0.247  11.909 -2.5044 -2.2496 -0.1464
17166TIP3    H272990   4.880   0.226  12.057  2.3819  1.3748  1.2255
17167TIP3   OH272991   3.809   2.029   3.960 -0.4154 -0.2106 -0.2992
17167TIP3    H172992   3.842   2.068   3.879  2.6801  2.1461  1.9191
17167TIP3    H272993   3.781   2.104   4.013 -2.1005 -1.6692  0.9384
17168TIP3   OH272994   6.113   6.244  13.746  0.9801  0.5748 -0.2776
17168TIP3    H172995   6.190   6.243  13.802  0.7425 -1.0507  0.0281
17168TIP3    H272996   6.137   6.303  13.674  1.8156  1.5196  0.7535
17169TIP3   OH272997   6.094   4.133  13.118 -0.1190 -0.1588  0.1072
17169TIP3    H172998   6.160   4.065  13.126 -0.7661 -0.9450 -1.0026
17169TIP3    H272999   6.033   4.099  13.053 -0.1071  1.7700 -0.9475
17170TIP3   OH273000   1.163   3.768   6.863  0.1673 -0.8926 -0.1240
17170TIP3    H173001   1.105   3.844   6.864  2.1999  0.7269 -1.1409
17170TIP3    H273002   1.117   3.704   6.809 -0.1619  0.8022 -1.9094
17171TIP3   OH273003   3.779   1.657  13.192  0.5125  0.1180 -0.6731
17171TIP3    H173004   3.743   1.617  13.114  0.5590 -1.7341  0.2290
17171TIP3    H273005   3.728   1.620  13.264  1.5680  0.5257  0.3079
17172TIP3   OH273006   6.015   0.075   5.775 -0.0387  0.2379 -0.5789
17172TIP3    H173007   5.976   0.034   5.853  1.1549  1.7630  0.8504
17172TIP3    H273008   5.959   0.151   5.758  0.0335  0.2249 -0.8736
17173TIP3   OH273009   0.131   5.769  10.475  0.2725  0.6277 -0.2755
17173TIP3    H173010   0.192   5.779  10.402 -3.0136  0.8891 -3.1187
17173TIP3    H273011   0.142   5.678  10.503 -0.0252 -0.1871 -2.6718
17174TIP3   OH273012   0.986   6.035  14.683 -0.0069  0.3244 -0.3761
17174TIP3    H173013   0.960   6.127  14.688 -0.1794  0.3757 -1.9801
17174TIP3    H273014   0.989   6.016  14.589 -2.2984 -1.9507 -0.0356
17175TIP3   OH273015   4.644   2.506   5.647  0.0527 -0.3896 -0.0405
17175TIP3    H173016   4.617   2.521   5.556 -2.3326  0.7922  0.8152
17175TIP3    H273017   4.564   2.476   5.690  0.4198  1.7960  2.2766
17176TIP3   OH273018   3.862   5.997  12.362  0.3161  0.9735  0.3232
17176TIP3    H173019   3.949   5.981  12.398 -0.5947  1.3869  2.7819
17176TIP3    H273020   3.870   6.080  12.315  1.9950 -0.5184 -2.1684
17177TIP3   OH273021   2.770   6.103   1.038 -0.2778  0.0311  0.0603
17177TIP3    H173022   2.779   6.134   0.948 -0.8244 -0.9218 -0.3256
17177TIP3    H273023   2.700   6.038   1.034  1.3957 -1.8543  0.7188
17178TIP3   OH273024   6.420   1.558  15.214  0.3207  0.6928 -0.4953
17178TIP3    H173025   6.388   1.472  15.240 -0.3452  1.0488 -0.1186
17178TIP3    H273026   6.343   1.615  15.219  0.6335  1.1899 -1.2962
17179TIP3   OH273027   1.981   1.622  16.117  0.6178 -0.2698  0.1161
17179TIP3    H173028   1.960   1.714  16.134  1.0352 -0.4609  1.8130
17179TIP3    H273029   1.952   1.606  16.028  0.2541  1.4302 -0.0791
17180TIP3   OH273030   0.410   2.579   1.119  0.0059  0.2076 -0.2855
17180TIP3    H173031   0.334   2.555   1.066 -1.4235 -0.1690  1.8696
17180TIP3    H273032   0.385   2.556   1.209  1.8897  1.9252  0.7191
17181TIP3   OH273033   4.539   4.479   4.142  0.1775 -0.0916 -0.3824
17181TIP3    H173034   4.569   4.570   4.153  0.8090 -0.3425 -0.0012
17181TIP3    H273035   4.521   4.449   4.231 -0.6822 -0.1243 -0.5645
17182TIP3   OH273036   3.280   3.609  11.464 -0.3924  0.2157 -0.4975
17182TIP3    H173037   3.220   3.664  11.414  1.6928 -0.1583 -3.5709
17182TIP3    H273038   3.241   3.521  11.459 -1.5800  0.6407  0.8913
17183TIP3   OH273039   2.151   2.528  15.238 -0.0426  0.3944  0.0280
17183TIP3    H173040   2.155   2.432  15.247 -0.3916  0.3560 -0.2100
17183TIP3    H273041   2.216   2.560  15.300 -0.5471  0.0323  0.7692
17184TIP3   OH273042   1.615   5.851   0.848  0.7458 -0.2698 -0.1091
17184TIP3    H173043   1.577   5.925   0.800  0.4675 -0.3356  0.0087
17184TIP3    H273044   1.697   5.885   0.883  0.5726  0.0090  0.0235
17185TIP3   OH273045   5.495   4.614   6.224 -0.1874  0.3413 -0.1271
17185TIP3    H173046   5.503   4.616   6.320 -0.2875  0.2917 -0.1183
17185TIP3    H273047   5.419   4.559   6.207 -0.1317  0.2974 -0.2383
17186TIP3   OH273048   4.110   1.944  15.365 -0.2869  0.2530  0.0232
17186TIP3    H173049   4.159   2.000  15.425 -0.5625 -0.0241  0.5168
17186TIP3    H273050   4.024   1.986  15.358 -0.8486 -0.6664  1.2280
17187TIP3   OH273051   2.416   3.906   5.830 -0.0838 -0.2329 -0.0685
17187TIP3    H173052   2.493   3.855   5.855  0.5595  1.0893  0.7599
17187TIP3    H273053   2.364   3.911   5.910 -0.4013 -0.0510 -0.2881
17188TIP3   OH273054   6.507   3.649  15.186  0.0969 -0.0103  0.9702
17188TIP3    H173055   6.507   3.571  15.241 -0.1705 -0.3099  0.5527
17188TIP3    H273056   6.573   3.706  15.224  1.2650 -1.0189  0.4742
17189TIP3   OH273057   1.474   5.641  15.807 -0.1822 -0.1098  0.1000
17189TIP3    H173058   1.428   5.558  15.818 -1.1241  0.3972  0.0535
17189TIP3    H273059   1.560   5.617  15.773 -0.3766 -1.0764  0.2873
17190TIP3   OH273060   5.634   1.139   4.081 -0.0544  0.2996  0.0296
17190TIP3    H173061   5.662   1.110   3.994  1.1815 -1.0235  0.8430
17190TIP3    H273062   5.701   1.200   4.110 -2.0041  3.0700 -1.1476
17191TIP3   OH273063   5.764   6.232  12.712 -0.7137 -0.2427  0.0066
17191TIP3    H173064   5.833   6.233  12.646 -1.9629  0.3658 -1.3234
17191TIP3    H273065   5.802   6.186  12.787  1.1343  0.1579 -0.6780
17192TIP3   OH273066   5.615   3.008  15.109 -0.0886  0.3132 -0.4802
17192TIP3    H173067   5.557   2.984  15.181  0.0862 -0.5345 -0.6164
17192TIP3    H273068   5.661   3.086  15.141 -0.7484  0.5449 -0.0758
17193TIP3   OH273069   3.662   1.904   5.474 -0.2370  0.4471  0.0000
17193TIP3    H173070   3.752   1.914   5.505 -0.0423 -0.7083 -0.1791
17193TIP3    H273071   3.649   1.809   5.467 -0.8821  0.6508 -1.7060
17194TIP3   OH273072   3.412   0.094  15.369 -0.3156 -0.0819 -0.0617
17194TIP3    H173073   3.503   0.116  15.346 -0.4743  0.2084 -0.4208
17194TIP3    H273074   3.420   0.042  15.449  0.1230  0.5840  0.3367
17195TIP3   OH273075   1.233   4.042  17.163  0.1560 -0.6160 -0.2738
17195TIP3    H173076   1.194   4.057  17.248  1.8884  0.5208  0.3435
17195TIP3    H273077   1.235   3.946  17.154 -0.1557 -0.7387  0.9003
17196TIP3   OH273078   3.070   5.170  13.024  0.1797  0.3310 -0.2737
17196TIP3    H173079   3.126   5.096  13.049  1.8952  1.0116 -1.8895
17196TIP3    H273080   2.993   5.163  13.079  0.6631 -2.2365  0.1161
17197TIP3   OH273081   2.917   3.263  15.271 -0.2295 -0.0380 -0.2909
17197TIP3    H173082   2.927   3.200  15.199  0.2125 -0.5634  0.2252
17197TIP3    H273083   2.824   3.262  15.292 -0.4698  0.6132 -1.3009
17198TIP3   OH273084   2.118   5.482  17.140 -0.1271  0.6120 -0.2888
17198TIP3    H173085   2.094   5.390  17.130  0.2288  0.4665  0.2023
17198TIP3    H273086   2.147   5.490  17.231  2.0074  0.6910 -0.9335
17199TIP3   OH273087   3.932   5.098   3.740  0.5363  0.2158  0.5971
17199TIP3    H173088   3.910   5.052   3.821 -1.3800  2.2167  1.2745
17199TIP3    H273089   4.025   5.116   3.747  0.5153 -0.1953  2.0848
17200TIP3   OH273090   3.173   2.170  15.752 -0.6919  0.1305 -0.0553
17200TIP3    H173091   3.120   2.233  15.703 -1.4402  0.4688  1.1616
17200TIP3    H273092   3.248   2.220  15.782 -0.4247  0.0149 -0.5184
17201TIP3   OH273093   0.900   3.073   4.542  0.3092  0.2701  0.0179
17201TIP3    H173094   0.867   3.015   4.473  0.7051  0.3788 -0.2593
17201TIP3    H273095   0.914   3.015   4.617  0.1138  0.1113 -0.0667
17202TIP3   OH273096   6.418   4.885   4.982 -0.1638  0.2808  0.4178
17202TIP3    H173097   6.416   4.885   5.078  1.2208 -1.6046  0.4820
17202TIP3    H273098   6.509   4.908   4.961 -0.6087  1.2383 -0.4611
17203TIP3   OH273099   2.261   2.277   6.073 -0.0446 -0.1418  0.1774
17203TIP3    H173100   2.221   2.254   5.989 -0.4081  0.9762  0.0297
17203TIP3    H273101   2.210   2.230   6.138  0.5253 -1.3787 -0.2526
17204TIP3   OH273102   6.736   3.514   5.993  0.0005  0.2975  0.8564
17204TIP3    H173103   6.782   3.576   5.938 -1.3265 -0.3344 -1.0258
17204TIP3    H273104   6.693   3.568   6.060 -2.3395  1.6139 -1.6107
17205TIP3   OH273105   0.155   3.017  14.064 -0.0248  0.0256  0.2476
17205TIP3    H173106   0.247   3.011  14.041 -0.5273 -1.9025 -1.4505
17205TIP3    H273107   0.110   3.031  13.981 -1.5760 -3.3778  0.4217
17206TIP3   OH273108   3.749   6.321   2.858  0.2309 -0.0153  0.2827
17206TIP3    H173109   3.834   6.337   2.900  0.4765  0.3605 -0.3631
17206TIP3    H273110   3.688   6.376   2.907  0.8388  1.9173 -1.0646
17207TIP3   OH273111   4.019   2.457   2.839 -0.7438  0.2159 -0.2453
17207TIP3    H173112   4.033   2.467   2.933 -0.7333  0.8375 -0.3134
17207TIP3    H273113   4.053   2.370   2.819  2.8960  1.5759 -0.3771
17208TIP3   OH273114   1.280   2.804  15.813  0.1751 -0.3748 -0.2263
17208TIP3    H173115   1.342   2.814  15.741 -0.5727 -2.1997 -1.1452
17208TIP3    H273116   1.196   2.787  15.771 -0.9031  1.6456  1.0078
17209TIP3   OH273117   1.244   4.522  11.576  0.0277 -0.1250  0.1417
17209TIP3    H173118   1.333   4.557  11.577  0.0950 -0.2964  1.7627
17209TIP3    H273119   1.191   4.588  11.621 -0.7286  0.0919 -1.0243
17210TIP3   OH273120   0.395   6.446  16.987 -0.4668  0.0082  0.0842
17210TIP3    H173121   0.377   6.352  16.993 -1.1002 -0.0032 -1.7091
17210TIP3    H273122   0.410   6.473  17.077  0.8208 -2.0259  0.5179
17211TIP3   OH273123   2.325   3.860  11.862 -0.4915  0.0129 -0.2197
17211TIP3    H173124   2.407   3.869  11.813 -0.0994 -1.5317  0.1333
17211TIP3    H273125   2.304   3.949  11.890  2.2724  0.1285  1.6315
17212TIP3   OH273126   2.646   0.939  11.504 -0.0031 -0.2317 -0.6069
17212TIP3    H173127   2.620   1.002  11.437 -1.1032 -0.7164 -0.6400
17212TIP3    H273128   2.635   0.854  11.463  2.1090 -0.4456 -0.7850
17213TIP3   OH273129   2.803   3.594   1.974  0.1158 -0.4912  0.8319
17213TIP3    H173130   2.890   3.634   1.977  0.0166 -0.3295  1.6952
17213TIP3    H273131   2.749   3.659   1.929 -0.2638  0.8050  3.0796
17214TIP3   OH273132   2.493   4.755  16.114  0.1860 -0.4326 -0.2543
17214TIP3    H173133   2.431   4.684  16.125  0.3834 -0.4724  0.5834
17214TIP3    H273134   2.484   4.808  16.193  0.3706  0.2164 -0.6626
17215TIP3   OH273135   3.404   4.790  12.439  0.2299 -0.0230  0.1184
17215TIP3    H173136   3.455   4.733  12.496  0.0771  0.3417  0.6202
17215TIP3    H273137   3.356   4.730  12.381  0.9362 -0.3751 -0.1095
17216TIP3   OH273138   4.255   4.098  16.786  0.6678 -0.2975  0.7385
17216TIP3    H173139   4.261   4.075  16.879  2.1597  0.8059  0.9419
17216TIP3    H273140   4.253   4.194  16.786  0.0554 -0.3107 -0.3376
17217TIP3   OH273141   6.045   5.378  13.568 -0.5979  0.1038  0.3690
17217TIP3    H173142   5.963   5.428  13.571 -1.0513 -0.3509 -2.8385
17217TIP3    H273143   6.114   5.445  13.561 -1.0648  0.3904 -1.8447
17218TIP3   OH273144   2.792   2.482  15.148 -0.0150 -0.3526  0.2200
17218TIP3    H173145   2.748   2.507  15.229  0.2012 -1.2076  0.6082
17218TIP3    H273146   2.884   2.475  15.172  0.0966 -0.2522 -0.1818
17219TIP3   OH273147   3.725   0.595   1.891 -0.7913 -0.0841  0.4628
17219TIP3    H173148   3.710   0.668   1.831  0.2333 -0.1962  0.0465
17219TIP3    H273149   3.821   0.592   1.902 -0.9916  0.2234  2.4756
17220TIP3   OH273150   3.954   2.311  10.473 -0.3015  0.0951  0.2120
17220TIP3    H173151   3.961   2.218  10.451 -0.0661  0.0313  0.5535
17220TIP3    H273152   3.935   2.312  10.567  0.8156  0.4180  0.4442
17221TIP3   OH273153   1.683   5.713  12.923 -0.4504  0.0020 -0.0340
17221TIP3    H173154   1.718   5.781  12.866 -0.2516 -0.0777 -0.0050
17221TIP3    H273155   1.588   5.716  12.907 -0.1552 -1.8394 -2.3681
17222TIP3   OH273156   5.101   3.949  14.556  0.3015  0.6876 -0.5123
17222TIP3    H173157   5.112   3.873  14.497  0.1361  0.7165 -0.5807
17222TIP3    H273158   5.104   4.025  14.498 -0.1365  0.7012 -0.5138
17223TIP3   OH273159   2.560   4.352   0.980  0.6835  0.1401 -0.2099
17223TIP3    H173160   2.494   4.400   0.929  1.0338  0.8900  0.0406
17223TIP3    H273161   2.524   4.264   0.988 -0.4588  0.6342  0.2234
17224TIP3   OH273162   2.307   1.607   0.186  0.1791  0.2542  0.8820
17224TIP3    H173163   2.290   1.688   0.138  0.7780  0.3966  0.8953
17224TIP3    H273164   2.366   1.634   0.257 -0.0118 -0.1056  1.1790
17225TIP3   OH273165   2.545   1.819  12.953  0.4159  0.2874 -0.0534
17225TIP3    H173166   2.535   1.865  12.870  1.2588  1.2005  0.3561
17225TIP3    H273167   2.636   1.832  12.978  0.3068 -0.4344  0.7513
17226TIP3   OH273168   2.382   4.666   3.872  0.3537  0.1929  0.7391
17226TIP3    H173169   2.451   4.668   3.805 -0.0484 -1.1998  0.2748
17226TIP3    H273170   2.395   4.582   3.917 -1.5185 -0.4353  0.1371
17227TIP3   OH273171   6.680   0.265  15.336  0.1307 -0.5138  0.3256
17227TIP3    H173172   6.595   0.235  15.305 -1.3380  2.5089  1.2253
17227TIP3    H273173   6.695   0.347  15.287  1.9492 -0.3736  1.0789
17228TIP3   OH273174   5.299   5.549  14.447  0.2411 -0.3068 -0.2420
17228TIP3    H173175   5.282   5.461  14.481  1.2103 -0.1633  0.6247
17228TIP3    H273176   5.370   5.537  14.384 -1.0574 -0.4590 -1.7102
17229TIP3   OH273177   3.896   4.685  10.617 -0.0884 -0.2852  0.0501
17229TIP3    H173178   3.977   4.735  10.629 -0.0128 -0.2272 -0.7236
17229TIP3    H273179   3.841   4.711  10.691 -0.3490  1.5281 -0.7660
17230TIP3   OH273180   4.177   3.124   4.452 -0.5322 -0.0513  0.2193
17230TIP3    H173181   4.099   3.083   4.489 -0.7751  0.7615  0.5960
17230TIP3    H273182   4.187   3.206   4.499  1.2195 -0.6712  1.0110
17231TIP3   OH273183   0.809   3.365   0.170  0.3180  0.4035  0.2113
17231TIP3    H173184   0.893   3.407   0.186  0.3883 -0.3536  1.8637
17231TIP3    H273185   0.768   3.357   0.256 -1.8887  1.6649 -0.6702
17232TIP3   OH273186   1.916   2.354   6.492 -0.0380  0.9930  0.6246
17232TIP3    H173187   1.931   2.329   6.400 -0.1611 -1.1575  1.1526
17232TIP3    H273188   2.004   2.364   6.529  0.0571 -0.4841  0.8486
17233TIP3   OH273189   6.099   5.268  11.077 -0.5734 -0.8892  0.0129
17233TIP3    H173190   6.117   5.174  11.085 -2.2748 -1.3755 -1.4409
17233TIP3    H273191   6.158   5.299  11.009  0.3631 -0.7721  0.8598
17234TIP3   OH273192   5.518   0.919   1.353  0.0419 -0.9456  0.9337
17234TIP3    H173193   5.451   0.962   1.300  0.8494 -0.4773  0.2676
17234TIP3    H273194   5.471   0.885   1.429 -0.9083 -0.4421  0.5816
17235TIP3   OH273195   6.370   1.978  14.312 -0.1176  0.2846 -0.1799
17235TIP3    H173196   6.452   2.011  14.347 -1.2089  3.3173 -0.3452
17235TIP3    H273197   6.371   1.884  14.332  3.0415  0.4067  0.4176
17236TIP3   OH273198   1.381   6.286  13.544 -0.2423  0.3117  0.9851
17236TIP3    H173199   1.410   6.197  13.567 -0.3038 -0.0508 -0.3141
17236TIP3    H273200   1.412   6.340  13.616 -0.5665 -0.8306  1.9958
17237TIP3   OH273201   4.277   4.036  10.584 -0.7079 -0.0963  0.9131
17237TIP3    H173202   4.247   4.103  10.645 -0.9411 -0.2796  1.0001
17237TIP3    H273203   4.316   4.085  10.512  0.0688  0.1026  1.4712
17238TIP3   OH273204   2.408   0.586  10.428  0.8308  0.6585  0.2223
17238TIP3    H173205   2.481   0.536  10.393  0.7019  1.0658 -0.6253
17238TIP3    H273206   2.333   0.527  10.419  0.7353  0.8856 -0.5009
17239TIP3   OH273207   5.294   0.259  11.764  0.8106  0.1800  0.4195
17239TIP3    H173208   5.352   0.257  11.840  0.9712  0.5839  0.3073
17239TIP3    H273209   5.264   0.168  11.754  0.9412  0.0900  0.8461
17240TIP3   OH273210   4.872   4.264  13.824 -0.1861  0.4057 -0.4031
17240TIP3    H173211   4.871   4.227  13.735  0.3140  1.0989 -0.6976
17240TIP3    H273212   4.898   4.355  13.812 -0.4609  0.5963  0.4244
17241TIP3   OH273213   6.200   4.259  16.846  0.2199  0.4694  0.1675
17241TIP3    H173214   6.246   4.271  16.763 -1.5142 -0.7834 -1.0071
17241TIP3    H273215   6.166   4.346  16.867  2.5243  1.2819  0.7379
17242TIP3   OH273216   0.100   2.051   4.463 -0.1939 -0.2389 -0.0751
17242TIP3    H173217   0.136   2.062   4.375  1.0603 -2.2969  0.1510
17242TIP3    H273218   0.072   1.960   4.466 -3.4587  0.7349  0.5100
17243TIP3   OH273219   0.631   4.460  13.358 -1.0544 -0.0006  0.2997
17243TIP3    H173220   0.723   4.437  13.344 -0.7259  1.0055  0.7592
17243TIP3    H273221   0.624   4.550  13.325 -1.2527  0.8984  2.7609
17244TIP3   OH273222   4.444   1.351   1.255 -0.2407  0.1987 -0.1469
17244TIP3    H173223   4.401   1.417   1.310  0.6012  0.4715  0.1877
17244TIP3    H273224   4.399   1.357   1.171 -1.5649 -0.2364  0.5108
17245TIP3   OH273225   1.778   5.154   1.715 -0.5136 -0.0607  0.1200
17245TIP3    H173226   1.770   5.227   1.653 -0.9391 -0.7626 -0.6551
17245TIP3    H273227   1.832   5.089   1.670 -0.8712 -0.5977  0.4617
17246TIP3   OH273228   1.811   3.730   3.576 -0.3255  0.2114  0.6605
17246TIP3    H173229   1.798   3.663   3.508 -1.1718  0.3637  0.6646
17246TIP3    H273230   1.724   3.766   3.590 -0.0008  0.7724  1.2252
17247TIP3   OH273231   0.898   2.774  10.723 -0.3583  0.6276 -0.0138
17247TIP3    H173232   0.968   2.709  10.730 -0.4153  0.5550 -0.1154
17247TIP3    H273233   0.819   2.726  10.746 -0.4720  0.5243 -0.6155
17248TIP3   OH273234   5.026   1.660  15.657 -0.5336  0.5377 -0.5954
17248TIP3    H173235   5.018   1.740  15.708  2.1462  2.0296 -2.4026
17248TIP3    H273236   5.084   1.604  15.709 -0.7908  0.5750 -0.2712
17249TIP3   OH273237   1.370   5.822  11.919 -0.5605  0.0879  0.0707
17249TIP3    H173238   1.444   5.822  11.858 -1.2215  0.8787 -0.7526
17249TIP3    H273239   1.409   5.806  12.004  0.4732 -0.2701 -0.4642
17250TIP3   OH273240   2.908   2.834  15.994  0.0124 -0.8705  0.8352
17250TIP3    H173241   2.862   2.879  16.064  1.5651  1.9947  0.1204
17250TIP3    H273242   2.951   2.759  16.036 -0.1137  0.0816  2.6700
17251TIP3   OH273243   5.696   6.592  15.032 -0.3710 -0.7545 -0.2835
17251TIP3    H173244   5.661   6.505  15.048 -1.4435 -0.3531 -0.3714
17251TIP3    H273245   5.702   6.598  14.936 -0.3837 -0.7042 -0.2813
17252TIP3   OH273246   3.549   5.868  15.859 -0.2813 -0.6457 -0.3001
17252TIP3    H173247   3.502   5.786  15.845 -0.2966 -0.2789 -2.6891
17252TIP3    H273248   3.524   5.923  15.785  1.3269  0.7771  0.1591
17253TIP3   OH273249   1.049   2.935   5.617  0.2300 -0.4837 -0.1703
17253TIP3    H173250   1.011   2.849   5.600  0.3559 -0.6658  0.4388
17253TIP3    H273251   1.143   2.924   5.601  0.3179 -0.5984  0.4270
17254TIP3   OH273252   2.937   4.506   5.595  0.2482 -0.5039 -0.4650
17254TIP3    H173253   2.844   4.487   5.590  0.1213 -0.2308  0.7357
17254TIP3    H273254   2.955   4.559   5.517 -0.8171  0.3204 -0.1661
17255TIP3   OH273255   6.306   3.525   3.121 -0.3172 -0.0335  0.4277
17255TIP3    H173256   6.367   3.521   3.195 -0.1216  0.0997  0.2763
17255TIP3    H273257   6.287   3.618   3.111 -1.7110 -0.2013  1.4156
17256TIP3   OH273258   4.182   4.533  15.888  0.2901  0.7650  0.1794
17256TIP3    H173259   4.179   4.515  15.982  2.0727  0.0495  0.1129
17256TIP3    H273260   4.119   4.472  15.850  1.5527 -0.8717  0.6395
17257TIP3   OH273261   1.567   1.348  12.617 -0.1093 -0.5799  0.2033
17257TIP3    H173262   1.484   1.301  12.623 -0.1083 -0.7646 -1.0292
17257TIP3    H273263   1.542   1.441  12.622 -0.4115 -0.6286 -0.3784
17258TIP3   OH273264   2.950   0.258   4.481  0.1541  0.3555 -0.0253
17258TIP3    H173265   3.020   0.310   4.520  1.7047 -2.7494  1.4938
17258TIP3    H273266   2.993   0.205   4.414 -0.7533 -1.4674  0.8065
17259TIP3   OH273267   2.621   1.344   4.583  0.6223 -0.1279  0.6093
17259TIP3    H173268   2.641   1.287   4.509  0.0491  0.0403  0.3227
17259TIP3    H273269   2.672   1.308   4.656 -0.1492 -1.3396  0.5673
17260TIP3   OH273270   2.908   5.106   4.239 -0.5122 -0.0758 -0.0704
17260TIP3    H173271   2.929   5.104   4.333  0.5796  0.5841 -0.2937
17260TIP3    H273272   2.934   5.020   4.207  0.6438  0.2743 -0.0863
17261TIP3   OH273273   3.386   5.742   2.516  0.0196 -0.1467 -0.4796
17261TIP3    H173274   3.339   5.812   2.470  0.3846  0.6732  0.3790
17261TIP3    H273275   3.478   5.771   2.515  0.1306 -0.4791  0.1166
17262TIP3   OH273276   6.661   1.017   4.842 -0.6247  0.3980 -0.8015
17262TIP3    H173277   6.671   1.080   4.913  1.4495  0.1666 -0.8514
17262TIP3    H273278   6.746   1.018   4.797 -0.5886 -2.3377 -0.8652
17263TIP3   OH273279   3.391   1.095   5.850  0.3918  0.4289 -0.2823
17263TIP3    H173280   3.394   1.131   5.762  0.8601  0.7015 -0.1586
17263TIP3    H273281   3.317   1.140   5.892  1.7875  2.2577  0.2949
17264TIP3   OH273282   2.950   2.689  13.644 -0.1852 -0.0340 -0.1057
17264TIP3    H173283   2.869   2.713  13.688  0.2020 -1.1660  1.2640
17264TIP3    H273284   2.925   2.671  13.554 -1.0497  1.9754 -0.3045
17265TIP3   OH273285   6.721   4.105  14.893 -0.1665 -0.3939 -0.3206
17265TIP3    H173286   6.643   4.152  14.866  2.3426  2.8423 -2.2618
17265TIP3    H273287   6.748   4.147  14.974  0.6570 -0.1649 -0.7045
17266TIP3   OH273288   4.584   0.423  15.781 -0.0989 -0.5194 -0.1467
17266TIP3    H173289   4.507   0.460  15.738 -0.2046  0.3086  0.7304
17266TIP3    H273290   4.638   0.389  15.710 -0.5828  0.2275 -0.8752
17267TIP3   OH273291   4.940   3.184   6.296  0.0041  0.0600  0.5648
17267TIP3    H173292   4.918   3.269   6.258 -1.9612 -1.4486 -1.8606
17267TIP3    H273293   5.024   3.197   6.338  1.5361  2.3155 -2.9573
17268TIP3   OH273294   2.423   5.281  10.845 -0.0892  0.2660  0.6081
17268TIP3    H173295   2.468   5.206  10.883 -1.6822 -1.7843 -1.4011
17268TIP3    H273296   2.484   5.315  10.780  0.6196  0.6864  1.4891
17269TIP3   OH273297   3.005   0.865   1.793  0.2366  0.1121 -0.7620
17269TIP3    H173298   2.964   0.781   1.770 -1.1769 -0.2472  2.7953
17269TIP3    H273299   2.954   0.898   1.866  2.5694  2.6983 -0.2126
17270TIP3   OH273300   6.325   6.196   0.833 -0.0534 -0.2360  0.2148
17270TIP3    H173301   6.271   6.238   0.766  1.1163  0.1536 -0.5028
17270TIP3    H273302   6.398   6.257   0.846  0.0532 -0.6068  1.3844
17271TIP3   OH273303   2.629   4.640   6.208 -0.1377  0.1603  0.8646
17271TIP3    H173304   2.648   4.732   6.190  0.7554 -0.4120 -1.2355
17271TIP3    H273305   2.673   4.623   6.291 -0.8786  1.7813  1.6267
17272TIP3   OH273306   2.886   3.402   0.598 -0.2006 -0.3734 -0.0003
17272TIP3    H173307   2.857   3.358   0.517  1.3466 -0.5451 -0.4805
17272TIP3    H273308   2.904   3.492   0.571  0.4467 -0.4642  0.1109
17273TIP3   OH273309   6.043   5.643   0.730  0.5353 -0.0564 -0.0777
17273TIP3    H173310   6.050   5.655   0.636 -2.6575 -1.1522 -0.5241
17273TIP3    H273311   5.959   5.683   0.754 -0.0299 -2.2032  1.7940
17274TIP3   OH273312   5.686   4.700  14.911 -0.5370 -0.0932  0.0577
17274TIP3    H173313   5.671   4.618  14.864 -0.7551 -0.2104  0.3233
17274TIP3    H273314   5.773   4.729  14.883 -0.2603 -0.6585  0.3116
17275TIP3   OH273315   5.324   4.878   3.839  0.1273  0.1500 -0.6027
17275TIP3    H173316   5.260   4.819   3.799 -0.9384  1.7816 -1.3595
17275TIP3    H273317   5.294   4.887   3.930 -0.1536  0.1519 -0.6970
17276TIP3   OH273318   2.667   2.053   1.199  0.4247  0.2488  0.1409
17276TIP3    H173319   2.611   2.036   1.274 -1.0947  0.5154 -0.9140
17276TIP3    H273320   2.654   1.978   1.141 -0.4966  1.3011 -1.0635
17277TIP3   OH273321   4.670   1.055  15.177 -0.5494 -0.8703 -0.3521
17277TIP3    H173322   4.731   1.001  15.229  1.1049  0.6402 -0.6909
17277TIP3    H273323   4.629   1.113  15.241 -1.9470 -2.1488 -0.0659
17278TIP3   OH273324   3.664   1.270  16.476  0.4974 -0.0139  0.7280
17278TIP3    H173325   3.713   1.342  16.516 -0.9635  0.6787  1.3062
17278TIP3    H273326   3.690   1.193  16.527  2.3744  0.0073 -0.1535
17279TIP3   OH273327   0.389   4.010   3.033  0.0007 -0.2875 -0.0908
17279TIP3    H173328   0.304   4.022   3.077  0.0653  1.3216 -0.3629
17279TIP3    H273329   0.444   4.080   3.068  1.5781 -1.9616  0.8876
17280TIP3   OH273330   1.927   6.196   0.874  0.3752  0.1109 -0.1703
17280TIP3    H173331   1.883   6.121   0.914  2.1257  0.3945  2.4540
17280TIP3    H273332   2.020   6.171   0.871  0.9853  2.1103  0.7461
17281TIP3   OH273333   2.350   6.683   5.988 -0.2954 -0.3332 -0.5107
17281TIP3    H173334   2.283   6.698   6.055  2.7221  2.8572  2.0176
17281TIP3    H273335   2.394   6.603   6.016 -1.3078 -0.9705 -0.7059
17282TIP3   OH273336   5.867   2.750   0.984 -0.2269 -0.2277 -0.3290
17282TIP3    H173337   5.807   2.822   0.965  1.4239  1.1118 -0.5429
17282TIP3    H273338   5.868   2.699   0.903 -0.0533  0.4930 -0.7902
17283TIP3   OH273339   0.657   1.729  16.837  0.4691 -0.1224 -0.5677
17283TIP3    H173340   0.599   1.656  16.816  0.9770 -0.6630 -0.1186
17283TIP3    H273341   0.660   1.781  16.756  2.2547 -2.0785 -1.8132
17284TIP3   OH273342   5.629   5.954  13.987 -0.1561 -0.2802 -0.7328
17284TIP3    H173343   5.566   5.885  14.010  0.6586 -0.7382  0.1524
17284TIP3    H273344   5.652   5.934  13.896 -2.1992  0.6166 -1.4725
17285TIP3   OH273345   5.783   2.472  16.012 -0.1088 -0.3134 -0.2134
17285TIP3    H173346   5.774   2.379  15.988  0.0461  0.1045 -1.9368
17285TIP3    H273347   5.704   2.491  16.063 -0.6556 -1.1122 -0.7435
17286TIP3   OH273348   5.337   4.491   1.547  0.3115  0.0511  0.3043
17286TIP3    H173349   5.271   4.556   1.524 -0.0126 -0.3541  0.0668
17286TIP3    H273350   5.361   4.511   1.637  1.2840  1.3962 -0.2421
17287TIP3   OH273351   5.364   5.363   4.838  0.4129 -0.3979  0.0572
17287TIP3    H173352   5.272   5.386   4.854  0.1272 -0.8677 -0.8741
17287TIP3    H273353   5.413   5.441   4.861 -0.1024 -0.5911  1.8942
17288TIP3   OH273354   2.813   6.704  12.622 -0.6253 -0.3181 -0.2093
17288TIP3    H173355   2.728   6.700  12.666 -0.1674 -2.0472  0.5797
17288TIP3    H273356   2.798   6.664  12.536 -0.7391 -0.1386 -0.2722
17289TIP3   OH273357   6.598   6.116   3.646 -0.1846 -0.2173  0.2773
17289TIP3    H173358   6.659   6.090   3.576  0.3663  2.5190 -0.3218
17289TIP3    H273359   6.512   6.086   3.615  0.1261  0.4863 -1.3422
17290TIP3   OH273360   6.042   3.907  15.508  0.4571 -0.8582 -0.4479
17290TIP3    H173361   6.034   3.978  15.444  4.8375  0.8497  0.7339
17290TIP3    H273362   6.093   3.840  15.462  1.0999 -0.8449  0.2269
17291TIP3   OH273363   1.400   1.813  16.665  0.1209 -0.4741 -0.2839
17291TIP3    H173364   1.386   1.730  16.619  0.7338 -0.7726  0.0506
17291TIP3    H273365   1.312   1.844  16.687 -0.0461 -2.2496  1.7207
17292TIP3   OH273366   6.738   0.702   2.949 -0.2729  0.7645  0.3787
17292TIP3    H173367   6.696   0.716   3.034 -1.5459  1.8947 -0.4193
17292TIP3    H273368   6.750   0.790   2.914  1.5152  0.3890 -0.0306
17293TIP3   OH273369   5.480   6.091   4.983  0.7069 -0.0411 -0.1629
17293TIP3    H173370   5.446   6.054   5.064  1.3329  3.4241  1.7640
17293TIP3    H273371   5.560   6.041   4.966  0.4428 -0.9470  1.1926
17294TIP3   OH273372   3.096   6.483  13.104 -0.3324  0.4572 -0.1814
17294TIP3    H173373   3.180   6.530  13.104  0.4350 -0.8791 -0.3718
17294TIP3    H273374   3.080   6.464  13.197 -0.7126  1.2212 -0.0930
17295TIP3   OH273375   5.533   4.299  15.526 -0.3980  0.9026 -0.2093
17295TIP3    H173376   5.611   4.247  15.546 -1.8110 -0.9269  0.6241
17295TIP3    H273377   5.502   4.329  15.611 -0.1663  2.3069 -0.6075
17296TIP3   OH273378   1.474   2.029   1.224 -0.0586  0.0687 -0.5048
17296TIP3    H173379   1.459   1.991   1.138 -0.5955  1.3752 -0.9967
17296TIP3    H273380   1.390   2.068   1.248  0.1016 -0.2482  0.5933
17297TIP3   OH273381   3.692   4.208   4.891  1.0373 -0.1333 -0.5023
17297TIP3    H173382   3.709   4.213   4.985  2.0725  0.5396 -0.7207
17297TIP3    H273383   3.606   4.248   4.880  1.1442  0.2650  0.0988
17298TIP3   OH273384   0.904   3.292   4.362  0.4711 -0.0810 -0.6510
17298TIP3    H173385   0.862   3.210   4.389 -0.2229  0.3808 -0.3240
17298TIP3    H273386   0.996   3.268   4.350  0.7825 -0.3757  1.9247
17299TIP3   OH273387   0.155   6.554   0.035 -0.4854 -0.1242  0.0027
17299TIP3    H173388   0.206   6.586  -0.039 -0.2354 -0.4805  0.0214
17299TIP3    H273389   0.092   6.494  -0.003 -1.9279  1.4840 -0.2243
17300TIP3   OH273390   4.970   4.473  16.512  0.7135  0.0143 -0.9611
17300TIP3    H173391   5.019   4.464  16.594 -0.7536 -0.6965 -0.1368
17300TIP3    H273392   5.000   4.400  16.458  0.8208 -0.1976 -0.6131
17301TIP3   OH273393   1.706   5.022   1.083  0.3061  0.1157 -0.0187
17301TIP3    H173394   1.796   5.018   1.049  0.7461  0.8469  1.0276
17301TIP3    H273395   1.652   5.039   1.006  1.1660  0.5806 -0.5281
17302TIP3   OH273396   2.922   1.963   1.606 -1.1716  0.6724  0.5177
17302TIP3    H173397   2.847   1.936   1.659 -1.2561  0.4741  0.2996
17302TIP3    H273398   2.918   1.906   1.529 -1.9836  2.0429 -0.4660
17303TIP3   OH273399   0.503   5.230   6.121  0.1409 -0.0720  0.1386
17303TIP3    H173400   0.413   5.200   6.119  0.5433 -1.2516 -0.4796
17303TIP3    H273401   0.554   5.152   6.143  0.9484  0.7246  1.1568
17304TIP3   OH273402   3.212   6.466  16.932  0.4039 -0.3546  0.6542
17304TIP3    H173403   3.307   6.454  16.928  0.3237 -0.7219 -0.2674
17304TIP3    H273404   3.179   6.424  16.852 -0.3490  1.5236 -0.0469
17305TIP3   OH273405   6.029   0.727   1.765  0.2601 -0.1553 -0.1367
17305TIP3    H173406   5.977   0.720   1.846  0.1397  0.7574 -0.1299
17305TIP3    H273407   6.118   0.745   1.796 -0.0569  1.7120 -0.2269
17306TIP3   OH273408   3.332   6.516   0.266  0.5001 -0.5073 -0.4671
17306TIP3    H173409   3.365   6.589   0.213  0.4404 -0.1355  0.0072
17306TIP3    H273410   3.237   6.529   0.268  0.7154  0.9839  1.9129
17307TIP3   OH273411   5.142   3.488  11.769  0.0311  0.0698 -0.3293
17307TIP3    H173412   5.176   3.575  11.789 -1.1945 -0.0974  2.7062
17307TIP3    H273413   5.199   3.428  11.818  0.4963 -0.8399 -1.9249
17308TIP3   OH273414   3.222   1.744   0.137  0.0879 -0.4163  0.0084
17308TIP3    H173415   3.279   1.669   0.152 -0.0591 -0.6081 -0.3980
17308TIP3    H273416   3.274   1.819   0.167  0.9478 -0.4736 -1.2790
17309TIP3   OH273417   0.419   4.477   2.125  0.5312 -0.1825  0.5981
17309TIP3    H173418   0.464   4.453   2.206  0.9518 -0.8505  0.1740
17309TIP3    H273419   0.339   4.424   2.125  1.1580 -1.1557 -0.0370
17310TIP3   OH273420   2.143   2.733  11.972 -0.3555  0.5432  0.7187
17310TIP3    H173421   2.107   2.737  11.883 -0.6905 -0.9654  0.7761
17310TIP3    H273422   2.073   2.695  12.025  0.8708 -1.3761  1.0419
17311TIP3   OH273423   6.544   1.047   0.174  0.5137  0.0543 -0.5499
17311TIP3    H173424   6.473   1.020   0.116  0.2693  1.8598 -1.0927
17311TIP3    H273425   6.603   1.098   0.119  2.5062 -1.8214 -0.2183
17312TIP3   OH273426   1.804   3.008  11.300 -0.1331 -0.3373 -0.2543
17312TIP3    H173427   1.811   3.034  11.392  1.2880 -2.4028  0.2534
17312TIP3    H273428   1.862   2.933  11.292  0.1772  0.1558 -2.9914
17313TIP3   OH273429   3.510   2.265  17.187  0.1144 -0.2506 -0.1698
17313TIP3    H173430   3.424   2.226  17.200 -0.0863  0.2266 -0.0796
17313TIP3    H273431   3.517   2.332  17.254 -0.3138  1.1609 -1.5131
17314TIP3   OH273432   2.537   0.070   5.231 -0.9238 -0.2758  0.4194
17314TIP3    H173433   2.453   0.054   5.273 -1.2060 -1.5895 -0.6295
17314TIP3    H273434   2.573  -0.017   5.214 -0.2555  0.2470 -0.9272
17315TIP3   OH273435   6.589   4.272   0.261 -0.1650 -0.7233  0.1871
17315TIP3    H173436   6.680   4.252   0.285  0.7047  2.8262  0.2138
17315TIP3    H273437   6.571   4.355   0.304 -3.7302 -1.7277  0.7528
17316TIP3   OH273438   1.106   5.077  14.591 -0.4969 -0.2456 -0.8057
17316TIP3    H173439   1.180   5.138  14.590 -0.6941 -0.0032 -0.7606
17316TIP3    H273440   1.034   5.127  14.552 -0.3212 -0.8949 -1.9844
17317TIP3   OH273441   0.299   0.337   4.868  0.8816 -0.3782 -0.0250
17317TIP3    H173442   0.357   0.267   4.838  0.5966  0.2742 -2.2330
17317TIP3    H273443   0.236   0.348   4.796 -1.6754 -0.7215  2.0824
17318TIP3   OH273444   4.695   3.570  13.215 -0.1469 -0.1447 -0.6091
17318TIP3    H173445   4.737   3.551  13.299  0.8973 -1.4612 -1.3986
17318TIP3    H273446   4.720   3.497  13.159  0.0846  1.2698 -2.3985
17319TIP3   OH273447   5.397   1.938  14.991 -0.2794 -0.2137  0.3329
17319TIP3    H173448   5.389   1.883  14.912  1.2145  1.0108 -0.6962
17319TIP3    H273449   5.313   1.927  15.036 -0.7037 -1.8932 -0.7978
17320TIP3   OH273450   4.817   4.454  12.787 -0.3146 -0.6621  0.1233
17320TIP3    H173451   4.864   4.483  12.709  0.6943 -1.3546  0.4650
17320TIP3    H273452   4.869   4.382  12.821  0.2589  0.8205  2.4727
17321TIP3   OH273453   5.095   2.496  12.691  0.0804  0.0046 -0.3117
17321TIP3    H173454   5.087   2.577  12.741 -0.8729 -0.4927  0.3775
17321TIP3    H273455   5.185   2.468  12.705  0.8601  1.6897 -1.7583
17322TIP3   OH273456   5.070   5.143   5.438 -0.6597  0.2175  0.1038
17322TIP3    H173457   5.083   5.130   5.344 -1.6845  0.1234 -0.0248
17322TIP3    H273458   5.031   5.062   5.468 -2.4817  1.1139  0.1938
17323TIP3   OH273459   6.383   3.606   3.381  0.0640 -0.3265 -0.6090
17323TIP3    H173460   6.330   3.618   3.460  0.7769  0.0062 -0.1746
17323TIP3    H273461   6.420   3.692   3.364  1.3578 -0.7926 -0.2568
17324TIP3   OH273462   5.840   6.075  12.177  0.1986 -0.8286  0.0057
17324TIP3    H173463   5.751   6.073  12.211  0.0848  0.6692 -0.1686
17324TIP3    H273464   5.883   6.145  12.227  1.1991 -1.3629 -0.0916
17325TIP3   OH273465   3.340   5.869   1.746 -0.2228 -0.1317  0.0732
17325TIP3    H173466   3.371   5.786   1.710  0.3679 -0.1572  0.6173
17325TIP3    H273467   3.417   5.926   1.742 -0.5344  0.2814  0.0137
17326TIP3   OH273468   5.440   2.737  15.186  0.4606  0.3245  0.3910
17326TIP3    H173469   5.434   2.775  15.098  0.4778 -1.3543 -0.3706
17326TIP3    H273470   5.493   2.658  15.174  0.3596  0.0159  1.8857
17327TIP3   OH273471   0.499   2.597   3.479  0.0060  0.2494  0.5723
17327TIP3    H173472   0.506   2.558   3.392 -0.3116 -1.2375  1.2053
17327TIP3    H273473   0.533   2.686   3.468  1.6634 -0.5139 -0.6665
17328TIP3   OH273474   0.916   3.830  12.582  0.6194 -0.0904 -0.1295
17328TIP3    H173475   0.877   3.792  12.504 -0.5319  1.4667 -0.3379
17328TIP3    H273476   0.994   3.876  12.550  0.5877 -0.1212 -0.2502
17329TIP3   OH273477   3.327   4.600   2.546 -0.1787 -0.6980 -0.6194
17329TIP3    H173478   3.327   4.619   2.452  2.0559 -2.9765 -1.1308
17329TIP3    H273479   3.275   4.520   2.554 -2.0594  0.5983  0.3680
17330TIP3   OH273480   1.953   3.968   1.160 -0.6477  0.6085 -0.4112
17330TIP3    H173481   1.947   3.968   1.065  0.0965 -0.7882 -0.4731
17330TIP3    H273482   1.904   3.891   1.188  1.6963 -0.7446  0.1223
17331TIP3   OH273483   6.354   2.770   5.218 -0.3559  0.2391 -0.2162
17331TIP3    H173484   6.422   2.732   5.161 -1.1611 -1.3216 -0.1773
17331TIP3    H273485   6.401   2.793   5.298  0.4845  0.9502 -0.8946
17332TIP3   OH273486   5.382   6.819  15.867  0.3192  0.1449 -0.1455
17332TIP3    H173487   5.289   6.797  15.859 -0.3136  2.5606  0.3809
17332TIP3    H273488   5.391   6.851  15.957  1.0546  2.6730 -1.1018
17333TIP3   OH273489   6.630   4.067   1.955  0.0382 -0.4025 -0.0936
17333TIP3    H173490   6.553   4.080   2.011 -0.5586 -1.6241 -0.6137
17333TIP3    H273491   6.695   4.028   2.013  0.4392  1.0612  0.4625
17334TIP3   OH273492   3.518   4.188   4.432 -0.1021 -0.0881  0.5196
17334TIP3    H173493   3.536   4.142   4.350 -1.8722  0.6731 -0.3123
17334TIP3    H273494   3.553   4.130   4.500  0.0348 -1.4334 -0.6686
17335TIP3   OH273495   4.027   3.059   0.573 -0.3390  0.0492  0.0630
17335TIP3    H173496   3.975   3.052   0.493  0.7422 -0.1085 -0.6528
17335TIP3    H273497   3.970   3.029   0.643 -0.1114 -3.4067 -1.1580
17336TIP3   OH273498   4.317   2.706   3.694 -0.0858 -0.7077  0.4635
17336TIP3    H173499   4.391   2.766   3.704 -1.8964  1.7098 -0.1139
17336TIP3    H273500   4.242   2.763   3.673 -2.1453 -3.0532  1.1431
17337TIP3   OH273501   6.300   6.280  11.748  0.2652  0.6159  0.8350
17337TIP3    H173502   6.350   6.276  11.667 -1.2504  1.1026 -0.1439
17337TIP3    H273503   6.260   6.193  11.756  1.3547  0.1854  1.6802
17338TIP3   OH273504   6.328   6.426   2.288 -0.4481  0.0554 -0.5745
17338TIP3    H173505   6.245   6.401   2.329  0.8168 -1.1513  1.2942
17338TIP3    H273506   6.364   6.494   2.346  0.5467 -0.4537 -0.5879
17339TIP3   OH273507   6.382   1.250  11.949  0.0304  0.0759 -0.4260
17339TIP3    H173508   6.410   1.263  11.858 -1.4114 -0.7058 -1.0049
17339TIP3    H273509   6.430   1.172  11.978  1.4812  1.0873 -0.0765
17340TIP3   OH273510   4.821   2.166   1.084 -0.0691  0.2303  0.9678
17340TIP3    H173511   4.804   2.254   1.117 -2.4734  0.1971 -0.1273
17340TIP3    H273512   4.807   2.171   0.990  3.3046 -0.5144  0.3442
17341TIP3   OH273513   3.812   0.113   5.391 -0.4028  0.2461 -0.0913
17341TIP3    H173514   3.822   0.022   5.419 -4.1455 -1.1105 -2.7684
17341TIP3    H273515   3.792   0.161   5.472 -1.0608 -1.7908  0.9839
17342TIP3   OH273516   3.907   5.906  17.036  0.1158 -0.6043  0.0117
17342TIP3    H173517   3.819   5.935  17.010  0.3857 -0.8661 -1.2405
17342TIP3    H273518   3.896   5.812  17.054  0.0915 -0.5880  0.0822
17343TIP3   OH273519   6.060   1.315   3.141  0.2198  0.3779 -0.3503
17343TIP3    H173520   6.015   1.326   3.225  1.0509 -1.1116  0.3352
17343TIP3    H273521   6.095   1.401   3.121 -0.3063  0.8401  0.6637
17344TIP3   OH273522   2.472   1.936  10.489 -0.1470 -0.6400  0.6838
17344TIP3    H173523   2.545   1.874  10.485  1.8773  1.6642  0.6567
17344TIP3    H273524   2.419   1.916  10.412  2.5144  0.0363 -1.4270
17345TIP3   OH273525   1.584   6.180  16.662  0.6654 -0.0333 -0.0837
17345TIP3    H173526   1.524   6.239  16.707 -0.3832 -0.7222 -0.5512
17345TIP3    H273527   1.527   6.118  16.616  1.6740  0.9750 -2.8219
17346TIP3   OH273528   4.921   3.740   1.041  0.0709  0.4135  0.5857
17346TIP3    H173529   4.939   3.651   1.072  0.7923  0.5638  0.5952
17346TIP3    H273530   4.832   3.735   1.005  1.5973 -1.3000 -3.1480
17347TIP3   OH273531   5.286   6.406  13.504 -0.7339  0.5649  0.0218
17347TIP3    H173532   5.233   6.449  13.571  0.5540 -1.6235  2.5399
17347TIP3    H273533   5.367   6.458  13.500 -0.9901  0.9510 -0.1589
17348TIP3   OH273534   5.803   0.579  13.513  0.2409 -0.3002 -0.1986
17348TIP3    H173535   5.724   0.526  13.499 -0.5089  0.8969 -0.5730
17348TIP3    H273536   5.813   0.628  13.432  0.2519  1.0031  0.5864
17349TIP3   OH273537   2.279   6.554  15.765  0.3430  0.3217  0.6975
17349TIP3    H173538   2.356   6.588  15.719  0.3592 -0.5965  0.0223
17349TIP3    H273539   2.281   6.460  15.748 -2.0036  0.5317 -0.9556
17350TIP3   OH273540   5.646   5.900   5.401 -0.0965  0.4265  0.2652
17350TIP3    H173541   5.602   5.962   5.460 -1.4760  0.6525 -0.9689
17350TIP3    H273542   5.717   5.950   5.363  0.4273  0.4600  1.2686
17351TIP3   OH273543   4.291   6.609  15.500  0.1528 -0.8426  0.0463
17351TIP3    H173544   4.208   6.567  15.480 -0.5223  0.5983 -0.3093
17351TIP3    H273545   4.266   6.690  15.546  1.1120  1.3030 -2.9946
17352TIP3   OH273546   0.099   1.338  15.460 -0.9587 -0.7300  0.2328
17352TIP3    H173547   0.087   1.249  15.426 -1.1548 -0.6896  0.1929
17352TIP3    H273548   0.189   1.360  15.438 -1.7498  0.1470 -2.2896
17353TIP3   OH273549   5.323   6.087   5.247 -0.3734  0.7345  0.7052
17353TIP3    H173550   5.294   5.996   5.239  0.5458  0.6274 -1.7828
17353TIP3    H273551   5.260   6.136   5.195  1.9598  0.8835 -2.1069
17354TIP3   OH273552   5.881   1.388  16.112 -0.1160  0.3077 -0.0747
17354TIP3    H173553   5.849   1.305  16.146 -2.0896  0.8646 -0.4983
17354TIP3    H273554   5.865   1.383  16.018 -0.1919  1.1162 -0.1082
17355TIP3   OH273555   0.858   3.903  11.743  0.3520  0.3054 -0.3849
17355TIP3    H173556   0.813   3.948  11.814 -0.8212  1.4883 -1.8293
17355TIP3    H273557   0.882   3.972  11.682  1.0979 -0.7073 -1.2699
17356TIP3   OH273558   3.444   4.821   0.129 -0.1682  0.3673  0.0911
17356TIP3    H173559   3.462   4.911   0.154  0.7963 -0.1838  1.4350
17356TIP3    H273560   3.451   4.820   0.034  0.7965  1.4979  0.1455
17357TIP3   OH273561   0.870   2.572  17.032 -0.2929  0.5103 -0.1360
17357TIP3    H173562   0.854   2.567  17.126  0.9812  1.2444  0.1262
17357TIP3    H273563   0.949   2.520  17.018 -1.5235 -1.1443 -1.0795
17358TIP3   OH273564   5.192   1.730  13.813  0.4226 -0.2394 -0.0729
17358TIP3    H173565   5.182   1.800  13.878  2.1746  0.9507 -1.0537
17358TIP3    H273566   5.275   1.749  13.770 -0.4542 -1.3203 -2.3039
17359TIP3   OH273567   6.323   1.619  16.025  0.6428  0.3319 -0.8614
17359TIP3    H173568   6.259   1.629  15.955  0.6995 -0.8076 -1.0810
17359TIP3    H273569   6.287   1.551  16.081  0.8205  0.9091 -0.0247
17360TIP3   OH273570   2.414   1.384   2.013 -0.0863  0.4142 -0.5460
17360TIP3    H173571   2.447   1.323   2.079  0.4464  1.6424  0.3644
17360TIP3    H273572   2.325   1.405   2.042  0.0352  0.7128 -0.3842
17361TIP3   OH273573   3.748   1.365  10.528  0.7445  0.2628 -0.1055
17361TIP3    H173574   3.821   1.427  10.529 -0.0446  1.1984  0.1279
17361TIP3    H273575   3.783   1.287  10.571  1.4668  0.8692  0.4327
17362TIP3   OH273576   4.804   5.411  16.820 -0.3535 -0.0329 -0.3308
17362TIP3    H173577   4.823   5.318  16.807  1.4821  0.0994  1.1917
17362TIP3    H273578   4.796   5.422  16.914 -1.6911  1.1739 -0.5491
17363TIP3   OH273579   4.095   5.032  10.681  0.0430  0.2517  0.1418
17363TIP3    H173580   4.178   5.066  10.648  0.5716 -0.1533  1.0305
17363TIP3    H273581   4.105   4.937  10.679 -0.4608  0.1967  0.0950
17364TIP3   OH273582   3.155   4.094  15.442  0.1299  0.3325 -0.1389
17364TIP3    H173583   3.060   4.089  15.437  0.2152  0.3975 -2.0509
17364TIP3    H273584   3.173   4.187  15.454 -0.0790  0.1958  1.3082
17365TIP3   OH273585   3.386   3.354   5.890  0.0097  0.1644  0.2262
17365TIP3    H173586   3.430   3.362   5.975  1.2675  0.8011 -0.4704
17365TIP3    H273587   3.343   3.268   5.894  1.3519 -0.4984  0.9168
17366TIP3   OH273588   4.308   1.823   5.081  0.5272 -0.0341 -0.2290
17366TIP3    H173589   4.240   1.869   5.032  1.2165 -0.1819 -1.3382
17366TIP3    H273590   4.323   1.878   5.158  0.2121  0.7819 -0.7369
17367TIP3   OH273591   0.806   0.968  14.828 -0.4826 -0.6001 -0.0088
17367TIP3    H173592   0.762   0.949  14.745  1.1202  1.6771 -1.4419
17367TIP3    H273593   0.892   0.928  14.820 -0.2962 -0.3155  0.5291
17368TIP3   OH273594   1.040   1.838   2.674 -0.1038 -0.1996 -0.4618
17368TIP3    H173595   1.121   1.811   2.631  0.1101 -0.1979 -0.0576
17368TIP3    H273596   0.976   1.842   2.603 -0.2917 -2.3450 -0.4390
17369TIP3   OH273597   4.126   6.043  11.136  0.3926  0.1176  0.4618
17369TIP3    H173598   4.206   6.064  11.185  0.9158  0.0337 -0.3365
17369TIP3    H273599   4.145   5.958  11.097  1.1002  1.4213 -2.1755
17370TIP3   OH273600   4.122   4.259   2.533  0.4513  0.1825  0.1611
17370TIP3    H173601   4.174   4.241   2.454 -0.1230  1.0609 -0.4217
17370TIP3    H273602   4.055   4.191   2.534  0.1608  0.4586 -0.3784
17371TIP3   OH273603   6.358   3.013   3.638  0.2030 -0.2090 -0.4160
17371TIP3    H173604   6.379   2.992   3.547  0.3989  0.5116 -0.5419
17371TIP3    H273605   6.384   2.935   3.688  1.0543 -0.2083 -0.8515
17372TIP3   OH273606   4.403   3.223  11.847 -0.2247  0.2583 -0.1211
17372TIP3    H173607   4.318   3.251  11.881 -0.1363  1.3395 -0.7422
17372TIP3    H273608   4.437   3.301  11.803  1.2030 -0.0897  0.3494
17373TIP3   OH273609   5.444   0.823  14.653 -0.3517 -0.0502  0.2918
17373TIP3    H173610   5.386   0.779  14.715  0.2684  2.5416  2.8738
17373TIP3    H273611   5.390   0.890  14.612 -0.3022 -0.5848 -0.6612
17374TIP3   OH273612   4.934   1.582   3.977  0.1183 -0.0262  0.0229
17374TIP3    H173613   4.945   1.656   3.918  0.0259 -0.2899 -0.3262
17374TIP3    H273614   4.840   1.564   3.977  0.4670 -2.0541 -2.2588
17375TIP3   OH273615   0.120   6.740  13.069 -0.2326 -0.2686  0.3427
17375TIP3    H173616   0.119   6.645  13.079  0.7903 -0.2232  0.8990
17375TIP3    H273617   0.135   6.774  13.157 -0.9039  0.4219  0.2012
17376TIP3   OH273618   3.515   1.115   1.474  0.4860  0.4649 -0.3866
17376TIP3    H173619   3.488   1.088   1.562  1.7902  1.2396  0.2660
17376TIP3    H273620   3.434   1.144   1.432 -0.0378  0.7741  0.8132
17377TIP3   OH273621   4.834   2.916   1.320  0.1961 -0.0348 -0.3714
17377TIP3    H173622   4.922   2.903   1.284 -0.2451 -1.4693 -1.0047
17377TIP3    H273623   4.784   2.843   1.285 -1.0023  0.2066  0.8073
17378TIP3   OH273624   2.072   0.654   4.609 -0.2309  0.1123 -1.0353
17378TIP3    H173625   2.033   0.567   4.602  1.5162 -0.8755  1.0754
17378TIP3    H273626   2.012   0.703   4.665  0.0002 -0.4579 -0.2894
17379TIP3   OH273627   5.350   4.082   0.408 -0.5057  0.1077  0.0331
17379TIP3    H173628   5.387   4.079   0.319 -0.2069  2.4712  0.0580
17379TIP3    H273629   5.427   4.075   0.465 -0.4463  1.1442  0.0890
17380TIP3   OH273630   0.356   4.514  14.494 -0.3018 -0.0275 -0.1868
17380TIP3    H173631   0.323   4.443  14.438  1.7340 -0.9343 -0.2755
17380TIP3    H273632   0.427   4.553  14.443 -1.5477  2.2559 -0.2260
17381TIP3   OH273633   3.667   0.892   5.692 -0.0886 -0.3194  0.0483
17381TIP3    H173634   3.578   0.865   5.718 -0.1283  0.8242  1.1602
17381TIP3    H273635   3.674   0.982   5.723  0.5883  0.4506 -2.2255
17382TIP3   OH273636   1.775   6.314   3.632  0.6016  0.0319 -0.0713
17382TIP3    H173637   1.682   6.301   3.618  0.3948  0.5970  0.7649
17382TIP3    H273638   1.791   6.287   3.722  1.3000 -0.3486 -0.3019
17383TIP3   OH273639   4.380   2.572  11.458  0.2531 -0.0820 -0.0914
17383TIP3    H173640   4.369   2.621  11.377 -0.9480 -0.8381 -0.3984
17383TIP3    H273641   4.353   2.632  11.527  1.5633  0.6676 -0.2025
17384TIP3   OH273642   5.738   3.116  12.302 -0.4446 -0.0416 -1.0506
17384TIP3    H173643   5.826   3.118  12.264 -0.0676 -0.8038 -0.2483
17384TIP3    H273644   5.750   3.070  12.385 -0.8687  3.3525  0.9955
17385TIP3   OH273645   5.524   2.845  15.769  0.3069  0.8156 -0.2586
17385TIP3    H173646   5.487   2.912  15.711 -0.8111  0.2515 -0.2171
17385TIP3    H273647   5.585   2.797  15.714 -1.1769 -0.0879 -1.1510
17386TIP3   OH273648   2.089   1.452  14.041  0.5267  1.0377 -0.2162
17386TIP3    H173649   2.152   1.505  14.090 -0.8755  1.2014  1.4757
17386TIP3    H273650   2.008   1.503  14.043  0.1688  0.5499 -1.8335
17387TIP3   OH273651   1.749   0.543  15.905 -0.6863  0.3786  0.0614
17387TIP3    H173652   1.821   0.546  15.968 -0.4631  0.5420 -0.1999
17387TIP3    H273653   1.725   0.635  15.892  0.8553  0.5469 -1.8954
17388TIP3   OH273654   5.124   5.475  13.327  0.4475  0.9091  0.5659
17388TIP3    H173655   5.120   5.570  13.335  1.2620  0.9944  0.0549
17388TIP3    H273656   5.033   5.447  13.317  0.1180  1.5352  1.7447
17389TIP3   OH273657   3.596   0.136   1.513  0.0264  0.0208 -0.0039
17389TIP3    H173658   3.603   0.046   1.545 -0.1369  0.4564  1.2849
17389TIP3    H273659   3.510   0.165   1.542  0.7980  1.1926  1.1583
17390TIP3   OH273660   2.055   1.154  16.418  0.2900 -0.6221  0.3984
17390TIP3    H173661   2.012   1.239  16.423  1.6795  0.0701  1.0175
17390TIP3    H273662   2.000   1.102  16.360 -0.7377  0.6022  0.2619
17391TIP3   OH273663   6.180   5.774   6.771 -0.1091  1.0814  0.3192
17391TIP3    H173664   6.237   5.794   6.845 -0.3564  2.0647  0.2434
17391TIP3    H273665   6.092   5.789   6.804 -0.1922  2.1349 -0.3573
17392TIP3   OH273666   2.301   0.751   1.142  0.4548 -0.5211  0.2491
17392TIP3    H173667   2.379   0.805   1.127 -0.5679  0.6115 -1.1362
17392TIP3    H273668   2.318   0.707   1.225  4.2150 -3.1731 -1.7250
17393TIP3   OH273669   2.636   1.345   3.419  0.6160 -0.0645 -0.5763
17393TIP3    H173670   2.576   1.358   3.494  1.2873  2.1931 -0.3819
17393TIP3    H273671   2.672   1.257   3.432 -1.7991 -1.0180 -0.0753
17394TIP3   OH273672   3.998   0.218   0.056  0.1004  0.2310  0.1208
17394TIP3    H173673   4.064   0.225  -0.013 -0.2696  1.0200 -0.1538
17394TIP3    H273674   4.002   0.126   0.084  1.2642  0.2616  0.0589
17395TIP3   OH273675   2.557   2.317   0.038  0.1713 -0.0688 -0.4879
17395TIP3    H173676   2.587   2.235   0.077  0.5073  0.2503 -0.0673
17395TIP3    H273677   2.506   2.290  -0.038 -0.8060 -0.7012  0.3854
17396TIP3   OH273678   2.014   5.415  13.901  0.3597  0.2299 -0.4156
17396TIP3    H173679   1.977   5.478  13.963 -0.1144 -1.3743  0.9622
17396TIP3    H273680   2.072   5.468  13.846 -1.6944  2.2601 -0.7173
17397TIP3   OH273681   2.625   0.461   1.430  0.1818  0.1026  0.3356
17397TIP3    H173682   2.679   0.513   1.371  1.3760 -1.5517 -0.0832
17397TIP3    H273683   2.686   0.395   1.465 -1.8841 -2.8227 -1.3510
17398TIP3   OH273684   6.436   2.783  16.265 -0.1892 -0.3310  0.0358
17398TIP3    H173685   6.531   2.792  16.258 -0.0368 -0.9284  1.2354
17398TIP3    H273686   6.414   2.715  16.203  0.2293 -0.5250  0.0966
17399TIP3   OH273687   2.990   0.606  11.314 -0.2205  0.4921 -0.0455
17399TIP3    H173688   2.943   0.606  11.231  1.8309  0.4767 -1.2579
17399TIP3    H273689   3.003   0.698  11.335 -1.2608  0.5054  0.5932
17400TIP3   OH273690   5.927   5.663  14.134  0.2007  0.0574  0.3179
17400TIP3    H173691   5.863   5.626  14.195  0.0802 -1.2919 -0.6255
17400TIP3    H273692   5.874   5.700  14.064  0.3618  1.2448  0.8042
17401TIP3   OH273693   5.857   4.473   2.679 -0.2490 -0.0540 -0.2142
17401TIP3    H173694   5.846   4.558   2.636  0.4732 -0.4405 -1.1685
17401TIP3    H273695   5.770   4.453   2.714 -1.3195 -0.5078 -2.9605
17402TIP3   OH273696   1.576   3.325  14.055 -0.4016 -0.9106  0.0743
17402TIP3    H173697   1.625   3.304  13.975 -0.3765  2.0450 -0.7376
17402TIP3    H273698   1.644   3.338  14.121 -0.3198 -0.9925  0.0077
17403TIP3   OH273699   6.385   4.993   5.707  0.2329  0.0704  0.1612
17403TIP3    H173700   6.455   4.929   5.692  0.0835  0.1448 -0.8792
17403TIP3    H273701   6.416   5.045   5.781  0.8984 -0.4374  0.2464
17404TIP3   OH273702   0.352   6.178  14.861  0.0261 -0.0749 -0.2751
17404TIP3    H173703   0.300   6.105  14.894  1.8542 -1.2776  0.0203
17404TIP3    H273704   0.298   6.255  14.877 -1.6342 -1.2804  0.0646
17405TIP3   OH273705   5.917   4.245   2.913 -0.2012  0.1286 -0.1146
17405TIP3    H173706   5.901   4.164   2.865  0.2691  0.3454 -0.6388
17405TIP3    H273707   5.883   4.314   2.857 -4.0040  0.0451  1.9406
17406TIP3   OH273708   5.635   6.750   4.287 -0.3514  0.3511  0.6318
17406TIP3    H173709   5.640   6.677   4.348 -0.5643  0.2890  0.5761
17406TIP3    H273710   5.657   6.713   4.202  1.4931  0.7618  0.9168
17407TIP3   OH273711   0.083   4.570   3.878 -0.4070  0.4445  0.0138
17407TIP3    H173712   0.157   4.620   3.913  0.3697 -0.2083 -0.6505
17407TIP3    H273713   0.078   4.596   3.786 -0.6599  0.0869 -0.0757
17408TIP3   OH273714   5.208   0.014   2.288 -0.3272  0.1129 -0.4307
17408TIP3    H173715   5.191  -0.009   2.197 -2.2075 -0.9075  0.1421
17408TIP3    H273716   5.265  -0.056   2.321  0.6285  0.6627 -0.8975
17409TIP3   OH273717   1.440   0.118   3.219  0.0007  0.6352 -0.7943
17409TIP3    H173718   1.423   0.072   3.137 -1.3103  0.2320 -0.3044
17409TIP3    H273719   1.533   0.102   3.236  0.1599  0.2889 -1.9248
17410TIP3   OH273720   0.851   1.026  12.573 -0.1008  0.3181 -0.3533
17410TIP3    H173721   0.891   1.113  12.583  0.4362 -0.0538  0.8539
17410TIP3    H273722   0.822   1.003  12.661  0.4739 -1.0578 -0.5106
17411TIP3   OH273723   4.505   3.984   3.202 -0.1894 -0.3142 -0.3992
17411TIP3    H173724   4.575   3.920   3.196  0.4510  0.2397  0.8627
17411TIP3    H273725   4.505   4.011   3.294 -0.9988  0.8705 -0.7264
17412TIP3   OH273726   6.022   3.944  16.712  0.0790  0.6262 -0.2043
17412TIP3    H173727   6.039   3.958  16.805 -0.4850 -1.2364  0.2018
17412TIP3    H273728   5.999   4.030  16.678 -0.8848  1.1088  1.6283
17413TIP3   OH273729   3.971   3.957  13.545  0.5076 -0.0805  0.0378
17413TIP3    H173730   3.986   3.904  13.467 -1.2624 -1.4313  0.5683
17413TIP3    H273731   3.880   3.987  13.536  0.8157  1.0710  0.7929
17414TIP3   OH273732   4.360   4.263   1.139  0.0696  0.1192  0.4288
17414TIP3    H173733   4.347   4.349   1.180 -2.5770 -0.6156  1.1919
17414TIP3    H273734   4.299   4.262   1.066 -2.2672 -2.2915  2.3107
17415TIP3   OH273735   0.738   1.892  14.942 -0.0762  0.3670 -0.1086
17415TIP3    H173736   0.731   1.986  14.958  0.0958  0.2886  0.4422
17415TIP3    H273737   0.672   1.853  14.999 -0.2122  0.1610 -0.4059
17416TIP3   OH273738   4.056   2.038   3.670  0.3568 -0.0484  0.5396
17416TIP3    H173739   4.116   2.082   3.731  0.7354  0.5128 -0.2316
17416TIP3    H273740   4.042   1.951   3.708  3.8750 -1.2303 -0.7070
17417TIP3   OH273741   6.478   2.318   2.192 -0.6049 -0.0545 -0.0964
17417TIP3    H173742   6.405   2.341   2.136 -0.7258  1.5764  0.6950
17417TIP3    H273743   6.527   2.400   2.203 -0.0190 -0.5722  1.3144
17418TIP3   OH273744   2.142   2.589   0.173 -0.0582 -0.2930  0.1067
17418TIP3    H173745   2.181   2.617   0.256 -2.6908  0.2722  1.2094
17418TIP3    H273746   2.125   2.495   0.186 -3.1308  0.3737  1.3831
17419TIP3   OH273747   2.157   5.608   5.129  0.1349  0.3687 -0.1931
17419TIP3    H173748   2.087   5.656   5.173  1.0674  1.1035  0.4994
17419TIP3    H273749   2.236   5.658   5.148  0.5815  0.6051 -2.5859
17420TIP3   OH273750   0.639   5.519  11.985 -0.6362  0.4240  0.4747
17420TIP3    H173751   0.734   5.510  11.977 -0.3252  1.1743  2.8990
17420TIP3    H273752   0.615   5.455  12.051 -1.9101 -0.1791 -0.5709
17421TIP3   OH273753   6.602   3.091  15.222 -0.0753  0.2650  0.5362
17421TIP3    H173754   6.695   3.075  15.211  0.2693  1.0862  2.1059
17421TIP3    H273755   6.561   3.005  15.215  0.7354 -0.0415 -0.6311
17422TIP3   OH273756   6.813   4.247  13.224  0.4902  0.2928 -0.1931
17422TIP3    H173757   6.853   4.191  13.157  0.2223  0.6885 -0.6883
17422TIP3    H273758   6.833   4.336  13.196  0.8696  0.4507  0.5651
17423TIP3   OH273759   4.889   2.588  14.620  0.6576  0.0023  0.8581
17423TIP3    H173760   4.853   2.621  14.703 -0.2260  1.6059 -0.1538
17423TIP3    H273761   4.820   2.531  14.585  0.0242  1.2675  0.0345
17424TIP3   OH273762   2.661   0.185   1.788  0.5748  0.2792 -0.7380
17424TIP3    H173763   2.750   0.220   1.782  1.0533 -0.7023  0.3857
17424TIP3    H273764   2.654   0.154   1.878 -0.5930 -0.4824 -1.0850
17425TIP3   OH273765   0.044   4.214   4.651  0.1579  0.3288  0.6500
17425TIP3    H173766   0.070   4.200   4.559  0.3836 -1.4260  0.9549
17425TIP3    H273767   0.122   4.251   4.692  0.4915 -0.1068  0.4201
17426TIP3   OH273768   6.348   0.756   5.503  0.0572  0.1164  0.0427
17426TIP3    H173769   6.263   0.778   5.466  1.3780  1.1766 -2.4768
17426TIP3    H273770   6.402   0.834   5.491  1.5824 -0.7395  1.0101
17427TIP3   OH273771   1.864   6.687   6.394 -0.5489  0.1558 -0.4765
17427TIP3    H173772   1.958   6.695   6.380 -0.5436  0.2416 -0.3967
17427TIP3    H273773   1.847   6.742   6.470 -0.6676  0.1614 -0.5073
17428TIP3   OH273774   2.727   1.266   5.670 -0.1194 -0.3000  0.3121
17428TIP3    H173775   2.774   1.182   5.667  1.0620  0.3594 -0.5384
17428TIP3    H273776   2.726   1.295   5.578  0.6756  1.2349  0.7672
17429TIP3   OH273777   0.551   3.447   4.798 -0.2965 -0.3779 -0.3196
17429TIP3    H173778   0.568   3.357   4.770 -1.3256 -0.4279 -0.7864
17429TIP3    H273779   0.635   3.477   4.834 -0.4425 -2.1382  1.5374
17430TIP3   OH273780   4.502   5.152  12.367 -0.3076  0.3758 -0.1241
17430TIP3    H173781   4.546   5.125  12.286  1.3245  2.1063  0.1400
17430TIP3    H273782   4.446   5.225  12.341  0.2894  0.9959  0.2905
17431TIP3   OH273783   3.576   3.959   2.248  0.2654  0.1924 -0.0824
17431TIP3    H173784   3.523   3.891   2.289  0.3813  0.5540  0.6666
17431TIP3    H273785   3.547   3.960   2.156  0.1092 -0.7079 -0.0455
17432TIP3   OH273786   4.506   6.496   3.963 -0.0478  0.0757  0.2324
17432TIP3    H173787   4.490   6.559   3.892 -1.6130 -0.5365  0.0090
17432TIP3    H273788   4.444   6.522   4.031 -0.1445 -0.7291  0.4563
17433TIP3   OH273789   6.102   5.867  15.629 -0.0773 -0.0282  0.0721
17433TIP3    H173790   6.016   5.877  15.590  0.4219 -1.1884 -1.3716
17433TIP3    H273791   6.163   5.897  15.562  0.7521 -1.3850  0.1856
17434TIP3   OH273792   1.828   2.284  13.883 -0.2955  0.0627  0.1110
17434TIP3    H173793   1.840   2.310  13.792 -0.4739  1.2813  0.4308
17434TIP3    H273794   1.765   2.212  13.879 -1.1210  0.8116 -0.6427
17435TIP3   OH273795   5.068   1.018   1.771  0.5808  0.0606  0.0536
17435TIP3    H173796   4.980   1.042   1.801  0.6310  1.6200 -0.9762
17435TIP3    H273797   5.118   1.100   1.775  1.3261 -0.2865 -1.6286
17436TIP3   OH273798   1.517   0.343  11.048 -0.4624  0.3330  0.3157
17436TIP3    H173799   1.497   0.383  11.133 -0.2483 -1.3956  1.2038
17436TIP3    H273800   1.448   0.375  10.990 -0.1435  2.1822  0.9220
17437TIP3   OH273801   3.670   1.551  14.687  0.3977 -0.1870  0.0544
17437TIP3    H173802   3.735   1.519  14.750  0.1711  0.7393  0.7723
17437TIP3    H273803   3.635   1.630  14.728 -1.3799 -0.8380 -0.2042
17438TIP3   OH273804   5.237   3.089  16.817  0.1292  0.6984 -0.0941
17438TIP3    H173805   5.168   3.055  16.874  0.2813 -2.2772 -1.5890
17438TIP3    H273806   5.309   3.111  16.877 -0.6465  0.0689  1.0836
17439TIP3   OH273807   4.505   3.971  16.794  0.2677 -0.2389 -0.5602
17439TIP3    H173808   4.492   3.912  16.868  1.2461 -0.7225 -0.7660
17439TIP3    H273809   4.425   4.024  16.791  0.0282 -0.5295  0.5559
17440TIP3   OH273810   4.520   0.202   0.050  0.3201 -0.1443 -0.3397
17440TIP3    H173811   4.588   0.140   0.077 -1.1076 -1.8277 -0.5837
17440TIP3    H273812   4.556   0.243  -0.028  0.6066 -1.8273 -1.1115
17441TIP3   OH273813   0.116   0.582   2.788  0.0930  0.4691 -0.1033
17441TIP3    H173814   0.107   0.486   2.787 -0.0143  0.4646  1.0852
17441TIP3    H273815   0.054   0.611   2.854 -0.6696  1.4603 -1.2431
17442TIP3   OH273816   6.060   0.681   6.000  0.2246  0.1996 -0.4593
17442TIP3    H173817   6.085   0.681   5.907 -1.8334 -0.0503 -1.0535
17442TIP3    H273818   6.133   0.639   6.045  1.3387  0.5022 -1.9490
17443TIP3   OH273819   1.044   2.295   4.602 -0.7516  0.7810  0.4929
17443TIP3    H173820   1.079   2.363   4.659 -1.5415  2.0787 -0.5203
17443TIP3    H273821   1.098   2.301   4.523 -0.1729 -0.4652  0.7831
17444TIP3   OH273822   0.232   5.256  14.075 -0.3921  0.0380  0.0923
17444TIP3    H173823   0.318   5.263  14.117 -0.6954 -0.0790  0.7436
17444TIP3    H273824   0.236   5.318  14.002  1.3304 -2.2511 -1.8089
17445TIP3   OH273825   1.623   5.395  11.690  0.7168  0.2315 -0.0148
17445TIP3    H173826   1.691   5.390  11.758  0.8913  0.1453 -0.1974
17445TIP3    H273827   1.601   5.488  11.686  0.9448  0.2835 -0.0769
17446TIP3   OH273828   0.520   0.059   1.645 -0.2963  0.2353 -0.0967
17446TIP3    H173829   0.520  -0.036   1.650 -0.6018  0.2931  1.2198
17446TIP3    H273830   0.583   0.086   1.712 -0.9394  0.9846  0.2118
17447TIP3   OH273831   2.503   0.169  13.044  0.3928 -0.4840 -0.5562
17447TIP3    H173832   2.530   0.258  13.021 -0.2310  0.2992  1.6423
17447TIP3    H273833   2.407   0.171  13.037  0.3199 -0.7285  0.3276
17448TIP3   OH273834   4.793   6.724  11.841 -0.5535  0.4052 -0.0795
17448TIP3    H173835   4.739   6.801  11.861  0.4016  0.9385  0.4750
17448TIP3    H273836   4.757   6.690  11.759 -0.8877  1.5320 -0.4013
17449TIP3   OH273837   2.391   5.610   3.550  0.2869  0.1750  0.6418
17449TIP3    H173838   2.475   5.607   3.597  0.0488 -2.5229  0.9968
17449TIP3    H273839   2.330   5.563   3.607 -1.1047  0.7913 -0.3229
17450TIP3   OH273840   5.101   2.304   5.177  0.0897 -0.3592 -0.1586
17450TIP3    H173841   5.135   2.284   5.264  1.5159 -0.9979 -0.8458
17450TIP3    H273842   5.087   2.399   5.178 -2.6110 -0.7228  1.6871
17451TIP3   OH273843   4.813   3.666  16.602  0.0217 -0.2293  0.2827
17451TIP3    H173844   4.870   3.646  16.676  0.0210 -2.1463 -0.2102
17451TIP3    H273845   4.794   3.581  16.563  1.3211  0.8731 -2.8887
17452TIP3   OH273846   6.522   4.466   2.103 -0.2543  0.5916 -0.1832
17452TIP3    H173847   6.449   4.521   2.132 -0.7608 -0.3427  0.3544
17452TIP3    H273848   6.483   4.405   2.040 -0.1229 -0.4535  0.7228
17453TIP3   OH273849   6.391   4.495  12.213 -0.2807 -0.2080 -0.2859
17453TIP3    H173850   6.449   4.419  12.217  0.1629  0.1682  0.9902
17453TIP3    H273851   6.438   4.559  12.159 -1.0490 -1.1468 -2.1011
17454TIP3   OH273852   5.746   1.453  10.532  0.0257 -0.0757 -0.2947
17454TIP3    H173853   5.811   1.488  10.471  0.0514  1.2895  0.4943
17454TIP3    H273854   5.676   1.518  10.534 -0.9334 -1.0874 -0.4155
17455TIP3   OH273855   6.455   3.833  11.338 -0.2321  0.3701 -0.0770
17455TIP3    H173856   6.522   3.792  11.393 -1.4834  0.8204  1.8544
17455TIP3    H273857   6.503   3.897  11.285  0.8360  0.9756  1.5729
17456TIP3   OH273858   5.858   2.454  14.691 -0.3248 -0.1824  0.0581
17456TIP3    H173859   5.947   2.483  14.709 -0.0688 -1.1553  0.4060
17456TIP3    H273860   5.859   2.425  14.600  0.4638 -2.8962  0.8960
17457TIP3   OH273861   5.684   4.571  15.184 -0.1068 -1.0892  0.1685
17457TIP3    H173862   5.711   4.613  15.102  0.2236 -0.5307  0.5604
17457TIP3    H273863   5.725   4.623  15.252 -1.0791 -1.0500  0.7318
17458TIP3   OH273864   4.934   6.230  15.909  0.0596 -0.7474 -0.2103
17458TIP3    H173865   4.985   6.269  15.980 -1.0821 -1.7380  1.1644
17458TIP3    H273866   4.985   6.250  15.830  1.2073  0.5850  0.8356
17459TIP3   OH273867   3.122   4.585  14.273  0.6132 -0.7644 -0.2641
17459TIP3    H173868   3.052   4.624  14.325  2.2338  2.2915 -0.3052
17459TIP3    H273869   3.096   4.601  14.182  1.3056  0.2326 -0.2815
17460TIP3   OH273870   4.044   0.036   2.979  0.0670 -0.5088 -0.1592
17460TIP3    H173871   4.125   0.005   2.937  0.3449 -0.0202  0.0060
17460TIP3    H273872   4.054   0.131   2.981 -0.8242 -0.3998 -0.7530
17461TIP3   OH273873   4.114   5.954  12.450 -0.2018  0.0427 -0.0652
17461TIP3    H173874   4.101   5.926  12.540 -0.8445  0.1982 -0.1135
17461TIP3    H273875   4.142   5.874  12.404 -0.7668 -0.2374  0.0748
17462TIP3   OH273876   6.772   4.803   3.178 -0.6563 -0.0448  0.5751
17462TIP3    H173877   6.694   4.854   3.200 -0.8041 -0.1207  0.2311
17462TIP3    H273878   6.748   4.755   3.099 -0.1902  0.0881  0.3518
17463TIP3   OH273879   1.172   4.509   6.162 -0.2861 -0.6562 -0.1008
17463TIP3    H173880   1.087   4.542   6.134  0.0273  0.3622  0.1354
17463TIP3    H273881   1.189   4.554   6.245  0.3646 -1.0501 -0.0162
17464TIP3   OH273882   1.411   6.743  13.998 -0.5581  0.5076  0.1460
17464TIP3    H173883   1.391   6.800  13.923 -1.1066  1.4906  1.0194
17464TIP3    H273884   1.492   6.779  14.033 -1.0679  0.9655  0.8837
17465TIP3   OH273885   4.218   1.973  11.839  0.3641  0.2931 -0.7389
17465TIP3    H173886   4.223   1.898  11.779  0.8248 -1.3615  1.3218
17465TIP3    H273887   4.149   1.949  11.901  0.2304  1.7664 -0.3173
17466TIP3   OH273888   4.781   0.946   5.597 -0.3092  0.3015 -0.6416
17466TIP3    H173889   4.769   0.854   5.623 -0.5533  0.0042 -1.7942
17466TIP3    H273890   4.701   0.989   5.627  0.0334  0.2487  0.3742
17467TIP3   OH273891   4.713   4.755   1.902  0.6542 -0.1919  0.1759
17467TIP3    H173892   4.703   4.730   1.994  0.2272  0.3839  0.2925
17467TIP3    H273893   4.754   4.680   1.860 -0.0828 -0.8518  0.6318
17468TIP3   OH273894   4.847   1.114   2.290  0.1349 -0.2052 -0.0735
17468TIP3    H173895   4.907   1.138   2.361  1.4356 -1.0931 -0.8614
17468TIP3    H273896   4.832   1.020   2.302 -0.7938 -0.0675 -0.1144
17469TIP3   OH273897   0.637   5.277   1.583  0.4577  0.2093 -0.2796
17469TIP3    H173898   0.699   5.211   1.552 -0.5800 -0.0105 -1.9707
17469TIP3    H273899   0.676   5.361   1.558  1.4111  0.2048  1.1818
17470TIP3   OH273900   3.376   1.164   3.302 -0.7532  0.1796 -0.2276
17470TIP3    H173901   3.343   1.214   3.377 -0.6264  0.4772 -0.3678
17470TIP3    H273902   3.377   1.227   3.230 -0.4348  0.0167 -0.3675
17471TIP3   OH273903   4.135   5.945   5.245 -0.4380 -0.1308  0.3300
17471TIP3    H173904   4.208   5.925   5.186 -0.0148  0.7490  0.5457
17471TIP3    H273905   4.115   5.861   5.287 -0.2329 -0.5961 -0.4941
17472TIP3   OH273906   5.262   0.901   2.459 -0.1724  0.5224  0.1725
17472TIP3    H173907   5.311   0.821   2.436  0.3024  0.6609  0.6991
17472TIP3    H273908   5.187   0.900   2.400  1.4502  1.2873 -1.9796
17473TIP3   OH273909   2.668   3.972   0.861 -0.5716  0.2880  0.1354
17473TIP3    H173910   2.628   3.889   0.887 -0.1453  0.1853  0.4576
17473TIP3    H273911   2.703   4.009   0.942  0.4248  0.1472 -0.2241
17474TIP3   OH273912   2.057   5.245   4.584 -0.1407 -0.4612 -0.5858
17474TIP3    H173913   2.135   5.227   4.532  0.7680 -0.2638  0.6625
17474TIP3    H273914   2.048   5.340   4.583  0.5513 -0.3643  0.5160
17475TIP3   OH273915   5.664   1.452  13.385  0.8654 -0.1302 -0.1130
17475TIP3    H173916   5.720   1.502  13.445  0.3283  0.0478  0.2448
17475TIP3    H273917   5.628   1.517  13.325  2.4881 -0.4955 -1.5066
17476TIP3   OH273918   6.365   6.728   5.862  0.1762 -0.2381 -0.1562
17476TIP3    H173919   6.380   6.806   5.916 -0.5949 -0.5120  0.4614
17476TIP3    H273920   6.322   6.762   5.783 -1.7471 -0.2249  0.8605
17477TIP3   OH273921   6.183   6.224  16.792 -0.0668  0.2874  0.1978
17477TIP3    H173922   6.099   6.241  16.748  1.6433 -0.8674 -3.7788
17477TIP3    H273923   6.177   6.133  16.822  0.2987 -0.3450 -1.5565
17478TIP3   OH273924   3.831   5.330   1.525 -0.6792  0.3746 -0.4139
17478TIP3    H173925   3.835   5.237   1.504 -0.1325  0.3168 -0.0533
17478TIP3    H273926   3.795   5.333   1.614 -0.4982  0.5002 -0.3453
17479TIP3   OH273927   3.365   6.439   1.413  0.4346 -0.0014 -0.3888
17479TIP3    H173928   3.389   6.477   1.328 -2.1300 -0.3731 -1.3236
17479TIP3    H273929   3.317   6.359   1.390 -1.3552  0.5391  1.3692
17480TIP3   OH273930   3.316   5.674   4.232 -0.1993 -0.7172 -0.2427
17480TIP3    H173931   3.342   5.593   4.188  1.6893 -0.9944  1.3265
17480TIP3    H273932   3.243   5.649   4.288 -1.6653 -0.6574 -2.0727
17481TIP3   OH273933   3.585   1.165  13.129  0.1329 -0.1746  0.2214
17481TIP3    H173934   3.503   1.144  13.084  0.8921 -2.0302 -0.3630
17481TIP3    H273935   3.629   1.227  13.070  0.0917 -0.8192 -0.5020
17482TIP3   OH273936   3.658   2.605  15.108  0.4394 -0.7685 -0.5716
17482TIP3    H173937   3.603   2.538  15.149 -0.2686  0.4055  0.4285
17482TIP3    H273938   3.725   2.555  15.060 -0.0439 -2.1828  0.1894
17483TIP3   OH273939   4.978   6.000  15.262 -0.1558 -0.5827 -0.3515
17483TIP3    H173940   4.904   5.945  15.237  0.1013 -0.7555 -0.7392
17483TIP3    H273941   5.040   5.939  15.301  0.1984 -0.5936 -0.9305
17484TIP3   OH273942   2.129   2.130   2.055 -0.8225 -0.5619  0.0955
17484TIP3    H173943   2.036   2.153   2.048 -1.2745 -2.0876  0.6898
17484TIP3    H273944   2.158   2.122   1.964 -1.0776  0.6468 -0.1001
17485TIP3   OH273945   2.918   4.410  14.646  0.1012  0.5635  0.4049
17485TIP3    H173946   2.913   4.342  14.579  0.2477  1.0584 -0.1104
17485TIP3    H273947   2.984   4.379  14.707 -0.4913 -0.1965  0.6707
17486TIP3   OH273948   4.574   4.789   2.736 -0.1897 -0.4410  0.5310
17486TIP3    H173949   4.541   4.704   2.765 -1.7168 -0.2266 -0.4888
17486TIP3    H273950   4.645   4.768   2.675  0.2712 -0.9639  1.2548
17487TIP3   OH273951   3.270   0.227   4.381 -0.0796 -1.1860 -0.3917
17487TIP3    H173952   3.189   0.270   4.408 -0.4794 -0.7495 -2.2054
17487TIP3    H273953   3.300   0.181   4.459 -0.0172  1.7948  1.4291
17488TIP3   OH273954   5.154   2.538  15.945 -0.1117  0.6695 -0.0599
17488TIP3    H173955   5.215   2.612  15.943 -1.2930  1.6487 -1.1323
17488TIP3    H273956   5.070   2.577  15.970 -0.4788 -0.5367  0.6495
17489TIP3   OH273957   1.500   0.882  13.474  0.0401  0.0358  0.1311
17489TIP3    H173958   1.570   0.821  13.448  1.9711  2.2284 -0.0221
17489TIP3    H273959   1.486   0.937  13.397 -3.1017 -1.4281 -0.4091
17490TIP3   OH273960   1.933   3.173  14.357 -0.0414  0.1779  0.9032
17490TIP3    H173961   1.935   3.100  14.419 -0.5468  0.3267  1.0933
17490TIP3    H273962   2.025   3.199  14.347  0.4843 -2.2758 -1.2608
17491TIP3   OH273963   3.462   1.562   3.392 -0.0878  0.0472 -0.6371
17491TIP3    H173964   3.465   1.658   3.397  2.0734  0.0061 -0.7369
17491TIP3    H273965   3.467   1.533   3.483  0.9701  0.0112 -0.6996
17492TIP3   OH273966   6.760   6.316  15.088  0.3728  0.0458 -0.4656
17492TIP3    H173967   6.713   6.398  15.102 -0.3962 -0.5701  0.5693
17492TIP3    H273968   6.740   6.263  15.165  0.5546 -1.2628 -1.3039
17493TIP3   OH273969   4.814   1.816  12.849  0.5144 -0.1334 -0.0955
17493TIP3    H173970   4.876   1.867  12.797  0.7181  2.7065  2.7634
17493TIP3    H273971   4.728   1.834  12.809  1.0784 -1.0563 -1.7492
17494TIP3   OH273972   5.319   4.598  10.970 -0.6411 -0.0501  0.4310
17494TIP3    H173973   5.381   4.548  11.023  0.7796  0.1385 -1.0196
17494TIP3    H273974   5.281   4.533  10.911  1.8407  0.6639 -2.0475
17495TIP3   OH273975   1.947   3.242   4.366 -0.5548 -0.1671 -0.0444
17495TIP3    H173976   1.964   3.160   4.320 -0.8369  0.5957 -1.5421
17495TIP3    H273977   1.940   3.307   4.297  0.7484  1.3269  1.1918
17496TIP3   OH273978   4.022   4.635   5.224  0.0709 -0.4385 -0.3033
17496TIP3    H173979   4.014   4.548   5.186  0.2341 -0.6476  0.1442
17496TIP3    H273980   4.005   4.623   5.317 -0.7548  0.1468 -0.3739
17497TIP3   OH273981   4.157   0.206  13.143 -0.5800  0.2499 -0.1906
17497TIP3    H173982   4.151   0.296  13.111 -0.3410  0.9999  1.7928
17497TIP3    H273983   4.244   0.200  13.182 -0.9302 -0.5607  0.4786
17498TIP3   OH273984   1.589   1.312   6.736 -0.2063  0.1441  0.2406
17498TIP3    H173985   1.558   1.266   6.658  0.2938 -0.7552  0.5629
17498TIP3    H273986   1.604   1.402   6.707  0.1949 -0.2416 -0.7534
17499TIP3   OH273987   4.953   0.012  16.403  0.5665  0.5602 -0.0875
17499TIP3    H173988   4.859   0.010  16.418  0.5160  1.7636 -0.1711
17499TIP3    H273989   4.969   0.096  16.359  1.3340 -0.8266 -2.5376
17500TIP3   OH273990   1.096   1.415  16.850 -0.4331 -0.2785  0.2427
17500TIP3    H173991   1.056   1.422  16.763  0.9033  1.0049 -0.2761
17500TIP3    H273992   1.146   1.496  16.861  1.4159 -1.5087  1.1897
17501TIP3   OH273993   1.536   1.596   5.592  0.3792 -0.1803 -0.6339
17501TIP3    H173994   1.479   1.562   5.661  1.1538  0.0664  0.1444
17501TIP3    H273995   1.625   1.573   5.621  0.8420  1.5348 -0.6264
17502TIP3   OH273996   4.375   1.959   0.946 -0.2951  0.1077 -0.2841
17502TIP3    H173997   4.468   1.957   0.969 -0.5261 -1.1180  0.6313
17502TIP3    H273998   4.348   2.049   0.962 -0.0208 -0.2687  2.6497
17503TIP3   OH273999   0.815   3.867  12.977  0.1940 -0.2029 -0.0526
17503TIP3    H174000   0.885   3.811  13.009 -0.3542 -1.7305 -1.4243
17503TIP3    H274001   0.859   3.932  12.923  0.8496  0.7770  1.6449
17504TIP3   OH274002   0.109   4.528  14.088  0.1209  0.3262  0.0124
17504TIP3    H174003   0.065   4.505  14.170  0.7017 -1.1188 -0.0648
17504TIP3    H274004   0.044   4.577  14.039 -0.8036 -0.2464  0.6405
17505TIP3   OH274005   1.459   6.650   5.910 -0.4913 -1.0497  0.3073
17505TIP3    H174006   1.544   6.672   5.872  0.0759 -1.4888  1.3075
17505TIP3    H274007   1.414   6.600   5.842 -0.7579  0.8950 -0.9982
17506TIP3   OH274008   2.586   5.647   1.820  0.5269  0.6844  0.1797
17506TIP3    H174009   2.514   5.646   1.883 -1.9575 -0.2420 -2.5262
17506TIP3    H274010   2.647   5.712   1.854 -0.0942 -0.6571  4.1321
17507TIP3   OH274011   4.696   3.738   1.707 -0.4470  0.5073 -0.4152
17507TIP3    H174012   4.651   3.655   1.694  0.5440 -0.3283  1.3115
17507TIP3    H274013   4.633   3.793   1.754 -0.2620 -0.1196  0.5897
17508TIP3   OH274014   1.094   3.192   5.520  0.1218  0.8329 -0.4193
17508TIP3    H174015   1.142   3.147   5.590  1.8076 -0.7608 -2.5452
17508TIP3    H274016   1.118   3.285   5.531  1.5264  0.4143  0.2460
17509TIP3   OH274017   6.241   5.616   4.441 -0.3229  0.0132  0.1241
17509TIP3    H174018   6.199   5.701   4.428  0.8463  0.1479 -3.0229
17509TIP3    H274019   6.187   5.555   4.390  0.3588 -0.6873  0.2354
17510TIP3   OH274020   0.650   2.516  14.410 -0.0590 -0.2503  0.3077
17510TIP3    H174021   0.584   2.524  14.340 -1.3213  2.9591  1.7427
17510TIP3    H274022   0.728   2.558  14.374  0.6348 -2.3096 -0.6643
17511TIP3   OH274023   2.344   6.004  11.103 -0.2494  0.3037  0.2353
17511TIP3    H174024   2.402   6.041  11.037 -0.6944 -1.2053 -1.0257
17511TIP3    H274025   2.259   6.045  11.086 -0.7393 -1.2507 -1.1539
17512TIP3   OH274026   6.551   1.411   1.155  0.2817  0.5970 -0.3756
17512TIP3    H174027   6.542   1.346   1.085 -0.6081  1.1808 -0.8203
17512TIP3    H274028   6.490   1.382   1.223 -1.5818  1.9943 -1.3940
17513TIP3   OH274029   0.741   0.334  12.119  0.3729  0.1506  0.1979
17513TIP3    H174030   0.766   0.289  12.038  1.0246  2.0545 -0.7049
17513TIP3    H274031   0.664   0.287  12.150  0.6606 -1.1780 -1.0382
17514TIP3   OH274032   6.678   5.351   3.602  0.3749  0.7913  0.3923
17514TIP3    H174033   6.673   5.350   3.507  1.3289 -2.0487  0.3299
17514TIP3    H274034   6.587   5.347   3.632  0.1377  0.1100 -0.4119
17515TIP3   OH274035   4.651   5.668   0.645 -0.0112  0.2225 -0.0864
17515TIP3    H174036   4.620   5.742   0.697 -1.9367  0.6266 -1.7685
17515TIP3    H274037   4.727   5.635   0.693  1.9238  4.3236 -0.1670
17516TIP3   OH274038   1.759   6.657  14.219  0.4327 -0.4487  0.7500
17516TIP3    H174039   1.742   6.576  14.171 -1.5790 -0.3625  1.2658
17516TIP3    H274040   1.722   6.726  14.163 -0.3640 -0.1755  1.6084
17517TIP3   OH274041   3.034   4.929   3.956 -0.4943 -0.0162  0.1742
17517TIP3    H174042   3.117   4.927   3.907 -2.3424  0.1847 -3.1347
17517TIP3    H274043   3.029   4.844   3.999  0.7045 -0.6330 -0.8815
17518TIP3   OH274044   0.423   1.467   1.379  0.0935  0.0485  0.1187
17518TIP3    H174045   0.448   1.425   1.297  1.7181 -0.5016  0.8689
17518TIP3    H274046   0.479   1.426   1.445 -1.4883  0.1755  1.5698
17519TIP3   OH274047   0.503   2.970  11.012  0.0263  0.4959  0.8045
17519TIP3    H174048   0.591   3.003  10.993 -0.0486  0.5845  0.6013
17519TIP3    H274049   0.484   3.001  11.100  0.5075 -0.1814  1.1486
17520TIP3   OH274050   0.981   2.773   1.901 -0.2469 -0.7742 -0.0469
17520TIP3    H174051   0.901   2.823   1.916  0.4416 -0.2862  2.1706
17520TIP3    H274052   1.031   2.783   1.981  1.0836 -2.8835 -0.5646
17521TIP3   OH274053   1.160   2.281  15.086 -0.2412  0.4071  0.5320
17521TIP3    H174054   1.228   2.231  15.131 -0.8993 -0.0843  0.9892
17521TIP3    H274055   1.168   2.370  15.121 -0.1588  0.2360  0.9443
17522TIP3   OH274056   1.578   1.272   2.546 -0.0212  0.1093  0.2986
17522TIP3    H174057   1.652   1.217   2.521  1.2493  1.4929  0.9642
17522TIP3    H274058   1.616   1.358   2.562 -1.9636  1.1712 -0.6219
17523TIP3   OH274059   1.103   1.317   4.679  0.8925 -0.5657 -0.2429
17523TIP3    H174060   1.131   1.319   4.771  0.8299 -0.3758 -0.2270
17523TIP3    H274061   1.073   1.406   4.662  0.1545 -0.8118 -0.2147
17524TIP3   OH274062   0.457   0.515  12.503  0.0089  0.3535 -0.4658
17524TIP3    H174063   0.542   0.553  12.525 -0.8402  1.0989  1.6450
17524TIP3    H274064   0.408   0.588  12.464 -0.4742  0.5428  0.4983
17525TIP3   OH274065   0.813   1.003  12.886 -0.5838 -0.1702  0.0863
17525TIP3    H174066   0.737   0.977  12.938 -1.0149 -1.6052 -1.2111
17525TIP3    H274067   0.816   1.099  12.894 -1.0843 -0.2972  2.0836
17526TIP3   OH274068   5.937   0.179  11.511  0.7106  0.5912 -0.0540
17526TIP3    H174069   5.965   0.176  11.419  1.2588 -0.5572  0.1411
17526TIP3    H274070   5.906   0.269  11.524  1.6634  1.0695 -1.0614
17527TIP3   OH274071   5.302   5.217  15.395 -0.0702 -0.6978  0.0224
17527TIP3    H174072   5.223   5.179  15.432 -0.5848  0.0213 -0.3379
17527TIP3    H274073   5.271   5.281  15.331  0.7543  0.6339  0.9125
17528TIP3   OH274074   5.457   4.898  15.192 -0.2224 -0.1106  0.2965
17528TIP3    H174075   5.480   4.961  15.124 -0.9779 -0.0614  0.0765
17528TIP3    H274076   5.509   4.924  15.268  0.0978  0.2661 -0.0498
17529TIP3   OH274077   0.337   1.407   0.843 -0.1564  0.1515 -0.1835
17529TIP3    H174078   0.390   1.344   0.891  0.3408  0.9677  0.3582
17529TIP3    H274079   0.282   1.448   0.910 -1.1739 -0.3822 -0.6755
17530TIP3   OH274080   3.569   5.888  16.206  0.0888 -0.6027 -0.3229
17530TIP3    H174081   3.488   5.926  16.172 -0.9186 -0.2230  2.3429
17530TIP3    H274082   3.623   5.964  16.228  0.4085 -0.8269 -0.3380
17531TIP3   OH274083   1.250   6.030   1.697 -0.0607 -0.6126  0.4297
17531TIP3    H174084   1.271   5.937   1.701 -0.7930 -0.8643 -1.2747
17531TIP3    H274085   1.154   6.033   1.701 -0.0215  0.1028  0.9708
17532TIP3   OH274086   6.067   4.238  15.033 -0.4894 -0.3791 -0.2686
17532TIP3    H174087   6.137   4.286  14.988 -0.9659 -0.2631 -0.8917
17532TIP3    H274088   6.006   4.306  15.060 -0.8922 -0.5752 -0.6719
17533TIP3   OH274089   5.009   1.977  11.236  0.0848 -0.0108 -0.2851
17533TIP3    H174090   4.913   1.978  11.233  0.0984 -0.6828 -0.9834
17533TIP3    H274091   5.036   1.980  11.144  0.7385  0.2427 -0.0893
17534TIP3   OH274092   1.179   5.773   5.109  0.1969 -0.0245  0.0255
17534TIP3    H174093   1.147   5.860   5.085 -0.5546 -0.5773 -1.0207
17534TIP3    H274094   1.115   5.741   5.172 -0.6423 -0.6084 -1.0960
17535TIP3   OH274095   5.762   4.062  15.087  0.2154  0.1484 -0.0297
17535TIP3    H174096   5.766   4.067  14.991  0.9576 -2.1101 -0.1380
17535TIP3    H274097   5.716   4.142  15.113 -2.7817 -0.6566 -2.4700
17536TIP3   OH274098   1.684   0.100   5.546 -0.4116  0.2229  0.4179
17536TIP3    H174099   1.738   0.031   5.509 -0.2304  0.2418  0.6448
17536TIP3    H274100   1.697   0.094   5.641 -0.6429  0.3622  0.4614
17537TIP3   OH274101   0.097   1.133  14.926 -0.0150 -0.2443  0.3713
17537TIP3    H174102   0.083   1.221  14.890 -1.8969 -0.4310  0.5701
17537TIP3    H274103   0.066   1.139  15.016 -0.9368 -1.3055  0.1410
17538TIP3   OH274104   2.318   0.633   2.000  0.2994  0.5615  0.0197
17538TIP3    H174105   2.350   0.629   2.090  1.8255  0.4033 -0.5194
17538TIP3    H274106   2.396   0.651   1.947 -0.3263 -0.8533 -1.4268
17539TIP3   OH274107   5.464   1.640  14.298  0.1053 -0.0228  0.7306
17539TIP3    H174108   5.469   1.733  14.274  1.4597 -0.1794  0.3549
17539TIP3    H274109   5.420   1.599  14.223 -0.6660  0.3374  0.9815
17540TIP3   OH274110   3.903   6.369  16.378  0.2001 -0.5474 -0.0794
17540TIP3    H174111   3.920   6.402  16.289 -0.6360  1.4398  0.4745
17540TIP3    H274112   3.919   6.444  16.435 -0.8501 -1.3619  1.3281
17541TIP3   OH274113   0.924   3.639  16.146  0.0823 -0.0555  0.0043
17541TIP3    H174114   0.837   3.654  16.184  0.4597  0.8925  0.5302
17541TIP3    H274115   0.943   3.547  16.165 -0.7570 -0.2342 -0.0094
17542TIP3   OH274116   3.959   0.716   5.238 -0.6503 -0.2594  0.2632
17542TIP3    H174117   4.021   0.660   5.285 -1.7060 -1.2026  0.5565
17542TIP3    H274118   3.942   0.788   5.299  0.2435  0.0853  0.1248
17543TIP3   OH274119   4.310   1.682   4.418  0.1932 -0.1918 -0.2006
17543TIP3    H174120   4.339   1.744   4.484 -1.3663 -0.4862  0.7908
17543TIP3    H274121   4.276   1.736   4.347 -2.4483  0.1489  1.2431
17544TIP3   OH274122   0.140   1.642   1.728  0.0483  0.6817  0.4834
17544TIP3    H174123   0.088   1.714   1.692 -0.7117  0.5065  1.2041
17544TIP3    H274124   0.108   1.632   1.818 -0.9634 -1.5807 -0.0864
17545TIP3   OH274125   5.108   6.319   3.986  0.0104 -0.3024  0.2606
17545TIP3    H174126   5.115   6.414   3.979 -3.5498 -0.0174 -0.0032
17545TIP3    H274127   5.039   6.295   3.924  0.5842 -3.0375  0.6091
17546TIP3   OH274128   3.348   5.495   0.475  0.2099  0.1232 -0.1670
17546TIP3    H174129   3.432   5.524   0.509  0.2243 -1.0686  0.8645
17546TIP3    H274130   3.355   5.506   0.380  1.8057 -0.6918 -0.1593
17547TIP3   OH274131   6.462   5.441   4.347 -0.5796 -0.0460  0.0748
17547TIP3    H174132   6.411   5.361   4.361  0.1276 -0.3924  0.7140
17547TIP3    H274133   6.417   5.506   4.401 -0.1569 -0.4378  0.9267
17548TIP3   OH274134   0.404   4.511  16.080 -0.5184  0.0242  0.0860
17548TIP3    H174135   0.335   4.577  16.080 -0.5313  0.0648  3.1748
17548TIP3    H274136   0.417   4.490  16.172  1.2140 -2.4932 -0.6934
17549TIP3   OH274137   3.248   2.595  12.303  0.2685 -0.1147 -0.6057
17549TIP3    H174138   3.302   2.627  12.376  0.1575  2.6738 -1.6866
17549TIP3    H274139   3.173   2.655  12.301 -0.2312 -0.7757 -2.3968
17550TIP3   OH274140   0.711   4.796   3.757 -0.1392 -0.1707  0.9440
17550TIP3    H174141   0.775   4.745   3.708  1.4887  1.0270  1.7954
17550TIP3    H274142   0.659   4.841   3.690  2.1918  1.6074  0.2680
17551TIP3   OH274143   0.741   0.706   2.482  0.4933  0.4908  0.9883
17551TIP3    H174144   0.785   0.791   2.478  0.9291  0.2085 -0.1750
17551TIP3    H274145   0.730   0.679   2.391 -0.2584 -0.3907  1.3255
17552TIP3   OH274146   6.359   2.067   4.732 -0.5319  0.0041 -0.2778
17552TIP3    H174147   6.383   1.986   4.687 -0.3379  0.0436 -0.2488
17552TIP3    H274148   6.265   2.059   4.747 -0.3490 -0.6507  0.5871
17553TIP3   OH274149   3.139   6.485   4.017 -0.0840  0.3993  0.3816
17553TIP3    H174150   3.207   6.457   4.077 -0.1654  0.4323  0.4891
17553TIP3    H274151   3.183   6.545   3.957 -0.3697  1.7034  1.4468
17554TIP3   OH274152   5.638   3.780  12.042  0.1720 -0.0803  0.7868
17554TIP3    H174153   5.598   3.694  12.050  1.6504 -0.8515  0.0447
17554TIP3    H274154   5.732   3.763  12.040  0.4811  1.5557  0.7237
17555TIP3   OH274155   2.276   5.745  16.302  0.9218  0.1890  1.0179
17555TIP3    H174156   2.327   5.712  16.375  0.0060 -1.1165  1.0819
17555TIP3    H274157   2.206   5.681  16.290 -0.1597  1.4657  0.3398
17556TIP3   OH274158   0.936   4.387  17.259 -0.6847  0.3399  0.2745
17556TIP3    H174159   0.881   4.330  17.312  0.6408  0.4460  1.8262
17556TIP3    H274160   0.876   4.450  17.219 -1.8217 -0.3900  0.8370
17557TIP3   OH274161   5.050   1.275   2.094  0.6352 -0.3608 -0.2419
17557TIP3    H174162   4.971   1.244   2.139  0.7109 -1.9060 -1.1461
17557TIP3    H274163   5.112   1.290   2.165  0.7568 -2.7811  0.2250
17558TIP3   OH274164   0.423   3.374  14.166  0.3245  0.6592 -0.0120
17558TIP3    H174165   0.457   3.459  14.196  1.8851 -0.4903  1.5571
17558TIP3    H274166   0.497   3.335  14.119  0.2831 -0.7111  1.0584
17559TIP3   OH274167   3.309   0.787   3.436  0.0867 -0.2632 -0.1079
17559TIP3    H174168   3.347   0.749   3.516  0.9935  1.1519  0.1513
17559TIP3    H274169   3.234   0.837   3.467  0.7927  0.7739 -0.0736
17560TIP3   OH274170   5.615   4.681   1.741  0.0963  0.4708 -0.1383
17560TIP3    H174171   5.614   4.722   1.828  2.4186  0.4073 -0.0588
17560TIP3    H274172   5.533   4.710   1.701  0.0088  2.2876  1.2527
17561TIP3   OH274173   6.208   0.066  15.611 -0.8090  0.4044 -0.2274
17561TIP3    H174174   6.142   0.084  15.545 -0.5811  1.5175 -0.1510
17561TIP3    H274175   6.260   0.146  15.617 -0.2391 -0.0138  0.6175
17562TIP3   OH274176   2.930   1.495   1.351 -0.0397 -0.0194 -0.3175
17562TIP3    H174177   3.001   1.531   1.298 -1.2446 -0.9057 -2.5836
17562TIP3    H274178   2.944   1.400   1.348 -0.5990 -0.1292  0.3048
17563TIP3   OH274179   6.795   5.639   2.193  0.4664 -0.4108  0.1142
17563TIP3    H174180   6.843   5.644   2.276 -1.8534  1.2868  1.4267
17563TIP3    H274181   6.837   5.704   2.137 -0.0012  0.7798  1.1120
17564TIP3   OH274182   5.959   0.663  17.132 -0.3536 -0.2372  0.4227
17564TIP3    H174183   5.866   0.685  17.137  0.2319  2.6597 -0.4332
17564TIP3    H274184   5.998   0.708  17.207  0.5061 -0.5607  0.1692
17565TIP3   OH274185   1.203   3.675  13.601 -0.2404 -0.3085  0.3674
17565TIP3    H174186   1.294   3.650  13.619 -0.8319 -1.9645  1.1647
17565TIP3    H274187   1.206   3.716  13.514  1.0908 -1.4303 -0.1392
17566TIP3   OH274188   1.929   3.291   3.600  0.0851 -0.3312  0.0179
17566TIP3    H174189   1.979   3.354   3.548  0.5694 -1.1758 -0.5558
17566TIP3    H274190   1.896   3.341   3.674  2.5598  0.0586  0.9040
17567TIP3   OH274191   2.578   0.439   2.716  0.3416  0.2081 -0.2044
17567TIP3    H174192   2.665   0.463   2.749 -0.2861  0.5402  1.2148
17567TIP3    H274193   2.538   0.391   2.788 -0.7332  0.2198 -0.7924
17568TIP3   OH274194   2.278   1.753   6.249 -0.3287  0.8409  1.0346
17568TIP3    H174195   2.307   1.824   6.306 -1.1319  0.5934  1.7516
17568TIP3    H274196   2.327   1.677   6.279 -0.1961  0.8694  0.8958
17569TIP3   OH274197   4.873   0.003  12.693 -0.0237  0.3110  0.3866
17569TIP3    H174198   4.941  -0.064  12.688 -1.1664 -1.0080  2.1633
17569TIP3    H274199   4.871   0.029  12.785  0.2224  2.6218 -0.2280
17570TIP3   OH274200   5.400   3.561   0.782 -0.2055 -0.5735  0.5200
17570TIP3    H174201   5.310   3.534   0.802 -0.5451 -0.3688 -0.7341
17570TIP3    H274202   5.447   3.550   0.865 -1.6789  0.5322  1.5133
17571TIP3   OH274203   1.083   2.541   0.010  0.3825 -0.6707 -0.0176
17571TIP3    H174204   1.147   2.516   0.076 -0.7584 -2.8183  0.3221
17571TIP3    H274205   1.093   2.476  -0.060 -0.6300 -0.3499 -0.4711
17572TIP3   OH274206   3.152   5.136  15.988  0.1343  0.2625 -0.5369
17572TIP3    H174207   3.141   5.134  16.083 -0.9572 -3.1850 -0.6441
17572TIP3    H274208   3.246   5.149  15.975  0.4644 -0.4211  1.0531
17573TIP3   OH274209   5.169   6.545   2.224 -0.4013 -0.5014  0.0622
17573TIP3    H174210   5.250   6.496   2.234  0.7342  1.4154  0.3387
17573TIP3    H274211   5.139   6.523   2.136 -0.9373 -3.1865  0.8703
17574TIP3   OH274212   1.177   6.222  12.016 -0.3250  0.3850  0.3515
17574TIP3    H174213   1.183   6.164  11.941 -2.1943  0.8195 -0.1545
17574TIP3    H274214   1.239   6.186  12.079 -0.4939 -1.3779 -0.4699
17575TIP3   OH274215   2.051   1.611  12.452 -0.0812 -0.1484  0.2379
17575TIP3    H174216   2.093   1.629  12.368 -0.5565 -0.7346 -0.1247
17575TIP3    H274217   1.958   1.623  12.435 -0.0258  1.8738  1.2217
17576TIP3   OH274218   3.670   2.010  12.758  0.4961  0.5954  0.0781
17576TIP3    H174219   3.752   1.961  12.767  0.1578  0.3793  2.6019
17576TIP3    H274220   3.678   2.057  12.675  2.6814 -0.3217 -0.2629
17577TIP3   OH274221   4.485   2.018  11.184  0.4739 -0.6456  0.0213
17577TIP3    H174222   4.490   2.083  11.113 -0.3761 -0.7242 -0.1185
17577TIP3    H274223   4.446   2.065  11.257 -1.3612 -1.3283 -0.4905
17578TIP3   OH274224   1.699   5.808  16.998 -0.2055  0.3668  0.2663
17578TIP3    H174225   1.644   5.806  16.920 -0.3967  1.0285  0.3780
17578TIP3    H274226   1.657   5.748  17.059  1.0283 -1.6845 -0.8441
17579TIP3   OH274227   2.556   0.430  12.954  0.3906 -0.3300 -0.3773
17579TIP3    H174228   2.579   0.476  13.035 -0.7331  0.9799 -0.7689
17579TIP3    H274229   2.507   0.495  12.903  0.9421 -1.1930 -2.0442
17580TIP3   OH274230   2.872   3.309   3.018 -0.5717  0.4066 -0.2292
17580TIP3    H174231   2.832   3.232   2.976  0.9815 -1.3942  1.5069
17580TIP3    H274232   2.846   3.303   3.109 -0.2186  1.8265 -0.0243
17581TIP3   OH274233   3.983   5.484  10.932 -0.7206  0.4547  0.5193
17581TIP3    H174234   3.931   5.439  10.999  0.9008 -1.1423  0.7397
17581TIP3    H274235   4.018   5.414  10.878  1.0671  1.5093  0.2890
17582TIP3   OH274236   1.447   2.228   4.083 -0.3454  0.3281  0.7452
17582TIP3    H174237   1.364   2.189   4.111 -0.5524 -0.5310 -0.9798
17582TIP3    H274238   1.425   2.279   4.005  0.7342  0.0573  0.2441
17583TIP3   OH274239   2.102   6.469  10.999 -0.0040  0.1384 -0.1142
17583TIP3    H174240   2.016   6.433  10.978 -0.2249 -0.0817  1.1729
17583TIP3    H274241   2.126   6.520  10.921 -1.3841  0.3634 -0.4037
17584TIP3   OH274242   6.559   2.421   0.315 -0.3717 -0.1443  0.2329
17584TIP3    H174243   6.598   2.509   0.315  0.6496 -0.5908 -0.3168
17584TIP3    H274244   6.481   2.430   0.370 -0.6080  1.2545 -0.2944
17585TIP3   OH274245   4.275   6.428   3.749  0.4729  0.3064  0.1030
17585TIP3    H174246   4.181   6.439   3.736  0.2488 -0.8963  0.6296
17585TIP3    H274247   4.314   6.467   3.671 -0.4373  1.2625  0.1147
17586TIP3   OH274248   4.157   3.389   2.398  0.5208 -0.4082 -0.1545
17586TIP3    H174249   4.136   3.425   2.484 -3.0406 -0.2597 -0.9931
17586TIP3    H274250   4.246   3.355   2.407  0.3716 -0.0367  3.4682
17587TIP3   OH274251   5.308   1.907  16.726  0.3256 -0.1798  0.3167
17587TIP3    H174252   5.312   2.001  16.709 -2.1975  0.0230  0.5567
17587TIP3    H274253   5.378   1.869  16.673  1.7138  1.8865  0.6557
17588TIP3   OH274254   2.791   1.726   0.316  0.4456  0.2574  0.4178
17588TIP3    H174255   2.806   1.638   0.350  0.5923  0.1737  0.1415
17588TIP3    H274256   2.825   1.723   0.226 -1.8809 -0.1419 -0.4716
17589TIP3   OH274257   5.932   4.284  13.631  0.5557  0.1724 -0.1458
17589TIP3    H174258   6.021   4.251  13.623  0.4211  0.0734 -1.2534
17589TIP3    H274259   5.940   4.379  13.627  0.4886  0.1272 -1.5578
17590TIP3   OH274260   3.663   4.476  14.691  0.8664  0.1869  0.1216
17590TIP3    H174261   3.603   4.548  14.669  1.1509  0.6098  0.7322
17590TIP3    H274262   3.618   4.428  14.761 -0.2205 -1.3931 -1.5812
17591TIP3   OH274263   2.351   0.713   0.798  0.0527  0.3030 -0.5684
17591TIP3    H174264   2.319   0.799   0.826  2.2051  0.4244  1.7338
17591TIP3    H274265   2.337   0.657   0.875  1.3005 -0.6773 -1.0463
17592TIP3   OH274266   3.824   0.417   3.966  0.0278  0.3023  0.1677
17592TIP3    H174267   3.908   0.396   3.925 -0.6755 -2.5235  0.0545
17592TIP3    H274268   3.770   0.340   3.950 -2.1280  1.4813  1.5211
17593TIP3   OH274269   6.043   4.342  16.378 -0.0631 -0.0900  0.1004
17593TIP3    H174270   5.998   4.404  16.320  0.0754 -0.1187 -0.0347
17593TIP3    H274271   6.132   4.337  16.344  0.1154  0.1552  0.5249
17594TIP3   OH274272   1.727   5.087   2.314 -0.2943  0.4947  0.0063
17594TIP3    H174273   1.780   5.040   2.377 -0.0070  1.0466  0.1820
17594TIP3    H274274   1.638   5.079   2.347 -0.1333  0.8724  0.5395
17595TIP3   OH274275   1.655   3.261  17.153 -0.2387  0.4569  0.0014
17595TIP3    H174276   1.648   3.186  17.211 -0.4670 -0.5563 -1.3174
17595TIP3    H274277   1.720   3.318  17.194  1.5200 -1.4532 -0.0485
17596TIP3   OH274278   4.619   4.577   0.720 -0.0725 -0.0872 -0.0279
17596TIP3    H174279   4.677   4.652   0.735 -0.2481  0.2215 -0.9190
17596TIP3    H274280   4.660   4.529   0.649 -0.5844 -0.2092 -0.2392
17597TIP3   OH274281   1.599   6.292  16.099 -0.7402 -0.5201  0.0019
17597TIP3    H174282   1.605   6.285  16.004 -1.6821 -0.6091 -0.0540
17597TIP3    H274283   1.628   6.207  16.131  0.7456 -0.0884 -0.1459
17598TIP3   OH274284   4.926   2.487  16.775  0.1610 -0.0261 -0.0499
17598TIP3    H174285   4.898   2.399  16.802 -0.9908  0.3183 -0.0932
17598TIP3    H274286   4.946   2.532  16.857 -0.9493  0.2245  0.0969
17599TIP3   OH274287   5.161   1.440  16.713  0.3128 -0.1200  0.5158
17599TIP3    H174288   5.068   1.417  16.720  0.6375 -1.5657  0.2092
17599TIP3    H274289   5.207   1.356  16.720  1.5276  0.4131 -0.7793
17600TIP3   OH274290   6.379   3.348   4.385  0.1462  0.3511  0.6021
17600TIP3    H174291   6.349   3.321   4.298  1.2550  0.8613  0.0530
17600TIP3    H274292   6.299   3.357   4.436 -0.7231  2.4675 -1.0627
17601TIP3   OH274293   2.026   0.485   3.239 -0.1330 -0.1209 -0.3470
17601TIP3    H174294   2.060   0.447   3.320 -0.2555 -0.4935 -0.4723
17601TIP3    H274295   2.057   0.576   3.241 -0.5160 -0.0044  0.3317
17602TIP3   OH274296   2.344   5.439   1.428 -0.7556 -0.2561  0.5283
17602TIP3    H174297   2.418   5.480   1.472 -0.1055 -0.8407 -0.0116
17602TIP3    H274298   2.279   5.428   1.497 -0.7865  1.3032  0.7655
17603TIP3   OH274299   4.151   3.055  13.464 -0.0969 -0.1668  0.2218
17603TIP3    H174300   4.130   3.130  13.408 -1.6105 -0.1273  0.7957
17603TIP3    H274301   4.122   2.979  13.414  0.8864 -0.3252 -0.1085
17604TIP3   OH274302   6.697   5.353  16.446 -0.3821  0.0408  0.0122
17604TIP3    H174303   6.687   5.306  16.364 -1.8182 -0.2015  0.3147
17604TIP3    H274304   6.740   5.291  16.505 -0.3741 -0.1698 -0.2188
17605TIP3   OH274305   3.445   3.134  13.780 -0.1487  0.1366 -0.0536
17605TIP3    H174306   3.472   3.046  13.806  0.1961  1.0785  2.8975
17605TIP3    H274307   3.510   3.192  13.820 -1.5865  1.8672 -0.1793
17606TIP3   OH274308   0.437   6.199   5.559  0.8885  0.4049 -0.1424
17606TIP3    H174309   0.483   6.236   5.634  2.3313  0.3094 -0.9651
17606TIP3    H274310   0.402   6.275   5.513  2.1902  0.6302 -0.7679
17607TIP3   OH274311   0.893   5.803  15.088  0.0901 -0.4683  0.2250
17607TIP3    H174312   0.927   5.852  15.013  2.3861 -0.0775  1.4596
17607TIP3    H274313   0.855   5.870  15.144 -0.9415 -0.6727 -0.2189
17608TIP3   OH274314   0.314   3.905  12.283  0.3117  0.0909 -0.0079
17608TIP3    H174315   0.295   3.965  12.211 -1.2242 -0.6475 -0.2644
17608TIP3    H274316   0.252   3.931  12.352  1.0736  0.1415  0.6543
17609TIP3   OH274317   0.801   0.485   3.863  0.0347 -0.0828 -0.4867
17609TIP3    H174318   0.800   0.553   3.931  1.2931 -1.5183  1.0016
17609TIP3    H274319   0.715   0.491   3.822 -1.8960 -1.1391  3.2112
17610TIP3   OH274320   4.507   3.781  13.281 -0.8624 -0.1518  0.0953
17610TIP3    H174321   4.522   3.791  13.375 -0.7182  0.6092 -0.0108
17610TIP3    H274322   4.560   3.705  13.257  1.7034  1.6161  0.0175
17611TIP3   OH274323   5.057   3.521   0.085 -0.4490 -0.0587  0.4621
17611TIP3    H174324   5.094   3.527   0.173  0.3212  0.9862  0.0765
17611TIP3    H274325   5.037   3.428   0.074 -1.7904 -0.0003  2.2329
17612TIP3   OH274326   5.129   6.147  15.491 -0.2254 -0.1890 -0.1199
17612TIP3    H174327   5.180   6.103  15.559  0.9892 -0.8561 -1.4235
17612TIP3    H274328   5.073   6.079  15.454 -0.2841 -0.0172 -0.3488
17613TIP3   OH274329   3.108   4.518  13.852 -0.4113 -0.4498 -0.5464
17613TIP3    H174330   3.106   4.594  13.910  0.9436 -1.2838  0.6447
17613TIP3    H274331   3.090   4.444  13.910  0.0473 -1.2088 -1.3620
17614TIP3   OH274332   1.548   0.293   0.663  0.0819 -0.6248 -0.1515
17614TIP3    H174333   1.548   0.251   0.749  1.6967  0.0346  0.1921
17614TIP3    H274334   1.550   0.387   0.681 -1.6642 -0.4079 -0.9237
17615TIP3   OH274335   4.082   1.340   6.587  0.3531  0.2372 -0.0261
17615TIP3    H174336   4.160   1.394   6.576 -2.0848  3.6222 -1.8668
17615TIP3    H274337   4.091   1.270   6.523  0.6224  2.2319 -2.2518
17616TIP3   OH274338   5.470   5.270  14.770  0.1988 -0.3873  0.4937
17616TIP3    H174339   5.520   5.224  14.703 -0.6366 -0.1386 -0.3013
17616TIP3    H274340   5.522   5.260  14.850  2.1933  0.9910 -0.5954
17617TIP3   OH274341   0.074   0.254   4.133  0.5515  0.5719 -0.1203
17617TIP3    H174342   0.011   0.316   4.097 -1.0892  0.2712  2.1383
17617TIP3    H274343   0.044   0.169   4.101  2.0121  0.7446 -2.0876
17618TIP3   OH274344   0.660   2.530   6.210 -0.1883  0.4304 -0.1227
17618TIP3    H174345   0.621   2.450   6.246 -0.2541  0.3827 -0.3015
17618TIP3    H274346   0.731   2.551   6.271  1.4550 -1.1633 -1.4285
17619TIP3   OH274347   6.814   3.786   1.192  0.0123 -0.5774  0.0927
17619TIP3    H174348   6.767   3.802   1.275 -0.1563  2.5643 -0.5518
17619TIP3    H274349   6.744   3.770   1.128  0.0907 -1.6971  0.2781
17620TIP3   OH274350   4.465   2.160  13.946 -0.2681 -0.3060 -0.5736
17620TIP3    H174351   4.538   2.222  13.951  0.1546 -0.7187 -1.4426
17620TIP3    H274352   4.490   2.088  14.004  0.4890 -0.9082 -1.6178
17621TIP3   OH274353   6.754   2.780  14.469  0.2021  0.1485 -0.6001
17621TIP3    H174354   6.830   2.830  14.499  1.0054  0.0418 -2.3925
17621TIP3    H274355   6.718   2.832  14.396  0.4976 -1.3982 -1.8749
17622TIP3   OH274356   6.214   6.610   2.511 -0.2117 -0.2070 -0.8487
17622TIP3    H174357   6.222   6.704   2.527  2.5720 -0.6155  0.5696
17622TIP3    H274358   6.164   6.603   2.430 -2.5512  2.4093  0.3279
17623TIP3   OH274359   6.191   1.713   5.026 -0.0345  0.2820 -0.0655
17623TIP3    H174360   6.252   1.754   4.966  0.0581  1.9220  1.0995
17623TIP3    H274361   6.164   1.784   5.085 -0.0648 -1.2829  1.8570
17624TIP3   OH274362   6.136   6.501  14.601 -0.6725 -0.1860  0.1581
17624TIP3    H174363   6.109   6.581  14.646  1.1817  1.0191 -0.8266
17624TIP3    H274364   6.183   6.531  14.524  1.8771 -2.2000  0.8585
17625TIP3   OH274365   1.323   5.906   6.476  0.8465  0.7484  0.1025
17625TIP3    H174366   1.387   5.862   6.420 -0.5333 -2.1455  0.7104
17625TIP3    H274367   1.366   5.916   6.560 -0.3043 -3.7264  1.3685
17626TIP3   OH274368   0.123   0.991   4.273  0.0310  0.2097  0.2904
17626TIP3    H174369   0.185   1.063   4.288  1.0680 -0.6218  0.0621
17626TIP3    H274370   0.138   0.932   4.347 -1.9025  0.9702  1.3038
17627TIP3   OH274371   0.054   2.464   3.352  0.5954 -0.5536 -0.4259
17627TIP3    H174372   0.102   2.546   3.363  1.6672 -0.9161 -2.1211
17627TIP3    H274373   0.079   2.411   3.428  1.0944  0.1240 -0.1167
17628TIP3   OH274374   2.170   2.683   5.908  0.0344  0.2162  0.1352
17628TIP3    H174375   2.171   2.776   5.931  0.0539  0.3793 -0.5098
17628TIP3    H274376   2.157   2.682   5.813 -0.0485 -0.4423  0.1512
17629TIP3   OH274377   1.795   2.804   6.133 -0.4402 -0.2994  0.3164
17629TIP3    H174378   1.859   2.736   6.113 -0.8520 -0.6416  0.1579
17629TIP3    H274379   1.848   2.877   6.165  0.0412 -0.5235  0.0452
17630TIP3   OH274380   4.471   1.150  13.870  0.3685  0.0786 -0.1619
17630TIP3    H174381   4.483   1.056  13.882  1.4905  0.4044  1.3870
17630TIP3    H274382   4.509   1.190  13.948 -0.2577  1.8177 -0.7095
17631TIP3   OH274383   5.264   5.140  10.440 -0.5343 -0.1406  0.3648
17631TIP3    H174384   5.315   5.217  10.415 -0.3371  0.1705  1.6430
17631TIP3    H274385   5.301   5.068  10.389  1.6194 -0.0508  1.7068
17632TIP3   OH274386   5.667   0.706   4.294  0.2704  0.0955 -0.3336
17632TIP3    H174387   5.657   0.627   4.348  1.3660 -0.1319 -0.4460
17632TIP3    H274388   5.743   0.751   4.332  0.5377  0.3592 -1.1666
17633TIP3   OH274389   4.366   0.712   3.973  0.3558 -0.5709 -0.4375
17633TIP3    H174390   4.326   0.640   4.021  0.8314 -0.0915  0.6929
17633TIP3    H274391   4.373   0.783   4.037 -0.0549  0.4658 -1.5198
17634TIP3   OH274392   6.195   2.375  12.042 -0.5289 -0.1355 -0.0081
17634TIP3    H174393   6.154   2.405  11.961  0.2392  0.7941 -0.0681
17634TIP3    H274394   6.122   2.355  12.100 -1.0776  0.0909 -0.6134
17635TIP3   OH274395   1.910   4.211   1.281 -0.0611  0.1471  0.1811
17635TIP3    H174396   1.923   4.132   1.229 -0.8610 -0.8862  1.5039
17635TIP3    H274397   1.929   4.283   1.221  1.4447 -1.0525 -0.8349
17636TIP3   OH274398   6.731   4.199  16.530 -0.2851 -0.6300  0.5038
17636TIP3    H174399   6.806   4.246  16.494  0.8882 -1.3143  1.9709
17636TIP3    H274400   6.695   4.258  16.597 -1.9152  0.2688 -1.1304
17637TIP3   OH274401   4.249   6.206  16.090 -0.0247  0.4367  0.2208
17637TIP3    H174402   4.214   6.235  16.174  1.0969  2.3261  0.0461
17637TIP3    H274403   4.251   6.110  16.098 -2.8767  0.4106  1.1387
17638TIP3   OH274404   3.613   1.446   4.685  0.5367  0.2312  0.3274
17638TIP3    H174405   3.655   1.375   4.636  0.4371  0.2599  0.1988
17638TIP3    H274406   3.613   1.520   4.625  1.5134  0.6264  0.8095
17639TIP3   OH274407   4.246   6.129   2.261  0.1641  0.2140 -0.1617
17639TIP3    H174408   4.243   6.120   2.356  1.8939 -0.0313 -0.1179
17639TIP3    H274409   4.251   6.224   2.247 -0.2155  0.2570 -0.0111
17640TIP3   OH274410   0.615   0.391   0.713 -0.2983 -0.8119  0.3943
17640TIP3    H174411   0.667   0.467   0.740 -0.6596 -0.3941 -0.0775
17640TIP3    H274412   0.675   0.317   0.720  0.4062 -0.3101 -0.2796
17641TIP3   OH274413   4.560   1.969  13.577  0.2211 -0.2036  0.1821
17641TIP3    H174414   4.527   1.988  13.490 -1.2180  0.4756  0.8626
17641TIP3    H274415   4.622   1.897  13.564  1.0228  0.7764 -1.5605
17642TIP3   OH274416   6.261   4.003  11.159 -0.4252  0.2499  0.6857
17642TIP3    H174417   6.330   4.065  11.139  1.2608 -2.3864 -2.0630
17642TIP3    H274418   6.301   3.940  11.219 -0.3610 -1.2644 -0.8818
17643TIP3   OH274419   2.770   2.410  11.500 -0.0766 -0.2395  0.5195
17643TIP3    H174420   2.711   2.450  11.436  0.9224 -0.1866 -0.3995
17643TIP3    H274421   2.746   2.318  11.501 -0.3902 -0.1605  0.3786
17644TIP3   OH274422   3.302   3.453  14.775 -0.7473  0.2575 -0.2435
17644TIP3    H174423   3.257   3.418  14.852 -1.8039  0.4271 -0.7761
17644TIP3    H274424   3.360   3.382  14.747 -1.0335 -0.1425  0.1718
17645TIP3   OH274425   4.600   0.841   0.888 -0.3346 -0.7154 -0.1959
17645TIP3    H174426   4.557   0.895   0.954  0.3043  1.8304 -1.8137
17645TIP3    H274427   4.535   0.832   0.818  1.2016  2.0310 -2.0567
17646TIP3   OH274428   2.132   4.259   1.951 -0.1155 -0.3637  0.2096
17646TIP3    H174429   2.074   4.243   1.876 -0.2942 -0.7489  0.4279
17646TIP3    H274430   2.220   4.241   1.918 -0.1145  0.2289 -0.1260
17647TIP3   OH274431   0.486   5.394  16.199  0.1008  0.6824  0.0483
17647TIP3    H174432   0.408   5.378  16.145  0.4361  0.1881 -0.2916
17647TIP3    H274433   0.451   5.432  16.279 -0.5566 -0.1293  0.1630
17648TIP3   OH274434   6.096   4.276  14.665 -0.1173 -0.2185  0.0168
17648TIP3    H174435   6.169   4.273  14.603 -0.1347  0.8182 -0.0582
17648TIP3    H274436   6.081   4.185  14.689  0.2715 -0.5633 -1.0536
17649TIP3   OH274437   2.516   5.757   4.360 -0.1166 -0.4613 -0.2964
17649TIP3    H174438   2.555   5.776   4.274  0.9772 -0.4131  0.2060
17649TIP3    H274439   2.572   5.801   4.423 -0.9566 -0.4406  0.4552
17650TIP3   OH274440   5.381   6.009  10.678  0.1939  0.1280 -0.1268
17650TIP3    H174441   5.300   6.019  10.628 -0.6042  0.6753  1.2604
17650TIP3    H274442   5.363   5.937  10.739  1.2791 -0.7681 -0.8535
17651TIP3   OH274443   0.724   0.355   6.618 -0.0466 -0.7573  0.2100
17651TIP3    H174444   0.818   0.358   6.640 -0.1552 -2.9266  1.1526
17651TIP3    H274445   0.721   0.310   6.534 -0.1771  0.5259 -0.4888
17652TIP3   OH274446   4.017   2.945  15.409  0.0073 -0.0299  0.2850
17652TIP3    H174447   4.076   2.904  15.472 -0.7858 -0.5630  0.6844
17652TIP3    H274448   3.995   3.029  15.449 -0.8473 -0.5571  0.9315
17653TIP3   OH274449   3.095   1.592  14.653 -0.8164 -0.4617 -0.3259
17653TIP3    H174450   3.129   1.566  14.739 -0.4465 -1.1622 -0.6779
17653TIP3    H274451   3.055   1.512  14.618 -0.4172 -0.3406 -1.0622
17654TIP3   OH274452   1.170   1.297   0.800 -0.0457 -0.5743 -0.6864
17654TIP3    H174453   1.107   1.331   0.863 -1.1976 -0.7077 -1.7564
17654TIP3    H274454   1.163   1.356   0.725  0.9464 -0.7136 -0.8940
17655TIP3   OH274455   1.533   3.001   5.451  0.3754 -0.1677  0.3574
17655TIP3    H174456   1.467   3.065   5.426  1.0614 -0.2262 -1.6257
17655TIP3    H274457   1.603   3.053   5.490 -0.4381 -0.0319  1.6894
17656TIP3   OH274458   2.823   5.355  15.007 -0.5065  0.4334 -0.1410
17656TIP3    H174459   2.773   5.317  15.078 -0.0810 -0.1747 -0.1650
17656TIP3    H274460   2.906   5.382  15.047 -0.6817  1.0459 -0.1849
17657TIP3   OH274461   1.749   0.186  14.274 -0.1792 -0.9186  0.2777
17657TIP3    H174462   1.766   0.136  14.355 -2.5566 -1.6451  0.3458
17657TIP3    H274463   1.769   0.124  14.204  0.3200 -0.7975  0.3056
17658TIP3   OH274464   3.808   4.396  10.862  0.8859  0.1331  0.5072
17658TIP3    H174465   3.822   4.302  10.859  1.0480  0.1009  1.9164
17658TIP3    H274466   3.767   4.417  10.778  0.3949 -1.2612  0.3855
17659TIP3   OH274467   5.410   5.614  15.301  0.2462  0.3144 -0.1632
17659TIP3    H174468   5.406   5.665  15.220  0.5050  1.2209  0.3909
17659TIP3    H274469   5.485   5.649  15.348 -1.3387  1.4433  1.5775
17660TIP3   OH274470   5.598   5.265  12.695  0.4146 -0.6228 -0.6217
17660TIP3    H174471   5.564   5.284  12.608  0.3038 -1.4126 -0.7495
17660TIP3    H274472   5.648   5.184  12.684 -1.1605 -1.7574  0.4321
17661TIP3   OH274473   0.669   1.847   0.551 -0.2410 -0.1690  0.1443
17661TIP3    H174474   0.725   1.863   0.475 -0.6206 -1.8505 -0.5289
17661TIP3    H274475   0.680   1.753   0.569 -1.7865 -0.2369  0.8384
17662TIP3   OH274476   6.650   6.692   5.703  0.1463 -0.9391 -1.2039
17662TIP3    H174477   6.564   6.685   5.745  0.1414 -1.4549 -1.2967
17662TIP3    H274478   6.646   6.774   5.654  0.8546  0.7188  1.4330
17663TIP3   OH274479   1.511   0.737  17.196 -0.1605 -0.0158 -0.0219
17663TIP3    H174480   1.578   0.669  17.188  0.2635  0.0072  2.9497
17663TIP3    H274481   1.428   0.688  17.198  0.0653 -0.3665  0.8516
17664TIP3   OH274482   4.761   0.284  15.045  0.2008  0.1178 -0.8928
17664TIP3    H174483   4.855   0.269  15.054 -0.0636 -0.0678  2.2839
17664TIP3    H274484   4.721   0.202  15.072 -0.9152  0.9720  0.0990
17665TIP3   OH274485   2.718   3.573   2.653  0.2398  0.1895 -0.0361
17665TIP3    H174486   2.732   3.503   2.589  0.4418  0.4333 -0.2584
17665TIP3    H274487   2.678   3.529   2.728  1.8103 -0.4311  0.4516
17666TIP3   OH274488   0.507   2.893  12.564  0.7488 -0.5295 -0.4425
17666TIP3    H174489   0.597   2.861  12.551  0.8407  0.0611 -1.3041
17666TIP3    H274490   0.511   2.986  12.542 -0.0117 -0.4378 -0.1954
17667TIP3   OH274491   2.458   5.872   3.611 -0.4493  0.1284  0.3363
17667TIP3    H174492   2.445   5.795   3.667  0.1450 -0.0712  0.2072
17667TIP3    H274493   2.429   5.844   3.524  1.8437 -0.6959 -0.2096
17668TIP3   OH274494   2.396   4.722  14.435  0.2982  0.2235  0.5319
17668TIP3    H174495   2.437   4.762  14.512 -0.3116 -0.1983  1.0752
17668TIP3    H274496   2.307   4.757  14.435  0.2077 -0.0080  0.1771
17669TIP3   OH274497   0.955   2.321  15.546 -0.2922 -0.1935  0.2593
17669TIP3    H174498   0.924   2.360  15.628  0.4174  1.5289 -0.2750
17669TIP3    H274499   0.946   2.227  15.560 -1.9515  0.1316  1.6100
17670TIP3   OH274500   3.940   6.772   1.096  0.4651 -0.1158  0.2956
17670TIP3    H174501   3.879   6.711   1.054  0.9185 -0.4906  0.1734
17670TIP3    H274502   3.943   6.847   1.037  0.9095 -0.5341 -0.2174
17671TIP3   OH274503   0.076   5.503  14.748  0.2118 -0.1310  0.1874
17671TIP3    H174504  -0.001   5.556  14.729 -0.3744 -0.9553  0.2001
17671TIP3    H274505   0.041   5.415  14.763  1.0676 -0.3287  1.0978
17672TIP3   OH274506   2.969   6.812   4.652  0.7467  0.9550  0.4522
17672TIP3    H174507   2.923   6.877   4.599  0.4975  0.4991  0.1084
17672TIP3    H274508   3.051   6.855   4.677  0.8485  1.1833 -0.2664
17673TIP3   OH274509   4.901   6.196   0.345  0.6425  0.1543 -0.0904
17673TIP3    H174510   4.989   6.221   0.373 -0.1547 -0.1153  2.8558
17673TIP3    H274511   4.897   6.102   0.360 -0.1051  0.1412 -0.3410
17674TIP3   OH274512   6.715   1.365   5.242  0.3345  0.6254 -0.2281
17674TIP3    H174513   6.677   1.352   5.155 -1.2317  0.2349  0.4910
17674TIP3    H274514   6.785   1.299   5.248 -0.0696  0.1275 -0.8915
17675TIP3   OH274515   1.411   1.466  16.313  0.8634 -0.3217  0.0577
17675TIP3    H174516   1.398   1.444  16.221  3.6136 -1.9001 -0.0096
17675TIP3    H274517   1.445   1.556  16.313 -0.4748  0.1872 -0.3612
17676TIP3   OH274518   4.542   1.873  12.746 -0.3119  0.2373 -0.2404
17676TIP3    H174519   4.480   1.824  12.692 -2.1021  0.9408  1.1151
17676TIP3    H274520   4.541   1.961  12.709 -0.6847  0.4295  0.2139
17677TIP3   OH274521   3.211   5.375  14.376 -0.0361 -0.4705  0.3684
17677TIP3    H174522   3.194   5.468  14.394  0.6533  0.0041 -1.2621
17677TIP3    H274523   3.197   5.331  14.459 -1.3115  0.9764  0.9413
17678TIP3   OH274524   1.898   1.962   2.377  0.0275  0.4060 -0.4457
17678TIP3    H174525   1.866   1.904   2.446  0.8650  0.0820 -0.3250
17678TIP3    H274526   1.842   2.040   2.383 -1.2741 -0.4814 -0.7753
17679TIP3   OH274527   0.900   5.117   5.403  0.3722  0.4673 -0.1412
17679TIP3    H174528   0.829   5.098   5.343  1.0986  0.0118 -0.8750
17679TIP3    H274529   0.959   5.174   5.353  0.7607  0.4484  0.2902
17680TIP3   OH274530   6.264   6.730  15.834  0.3968 -0.0322  0.4701
17680TIP3    H174531   6.304   6.783  15.902 -0.2588 -0.7375  1.4111
17680TIP3    H274532   6.229   6.794  15.771  3.5683  0.6093 -0.7430
17681TIP3   OH274533   4.351   0.176  12.065  0.1032 -1.1543  0.0121
17681TIP3    H174534   4.354   0.239  11.993  2.2902 -0.6130  0.5526
17681TIP3    H274535   4.326   0.228  12.142  0.3805 -1.2307  0.1546
17682TIP3   OH274536   2.669   0.465  17.157  0.2870  0.6420 -0.3696
17682TIP3    H174537   2.636   0.501  17.239  0.7963 -1.4714  0.8206
17682TIP3    H274538   2.591   0.436  17.110  0.1479 -0.6150  0.6085
17683TIP3   OH274539   2.794   5.078   6.455  0.2158 -0.7808  0.3027
17683TIP3    H174540   2.740   5.031   6.519 -1.3573 -0.9857 -1.1373
17683TIP3    H274541   2.732   5.105   6.387  1.9192 -0.9357 -1.3382
17684TIP3   OH274542   5.728   4.280   0.054 -0.6028 -0.1423 -0.3768
17684TIP3    H174543   5.737   4.185   0.050  0.4931 -0.1454  1.2845
17684TIP3    H274544   5.810   4.310   0.095 -1.8417  1.3105  1.1239
17685TIP3   OH274545   0.671   5.583   3.566 -0.3850 -0.0048 -0.8749
17685TIP3    H174546   0.688   5.497   3.526 -2.8758 -0.7293 -0.4688
17685TIP3    H274547   0.607   5.624   3.509  1.3146  1.9172 -1.4448
17686TIP3   OH274548   4.027   0.822  16.989 -0.0682  0.2553  0.1530
17686TIP3    H174549   4.119   0.833  16.967 -0.5124  0.8734 -1.4471
17686TIP3    H274550   4.027   0.764  17.065  1.5940 -0.4809 -0.3995
17687TIP3   OH274551   6.337   3.920   2.375  0.0012  0.0504  0.5838
17687TIP3    H174552   6.367   3.862   2.305  0.3403  1.3593 -0.3979
17687TIP3    H274553   6.394   3.900   2.449  1.0434  0.0915 -0.1830
17688TIP3   OH274554   1.262   3.913  16.904  0.1261 -0.0426  0.2454
17688TIP3    H174555   1.177   3.901  16.947  0.8090 -1.2184  1.3140
17688TIP3    H274556   1.241   3.947  16.818 -1.4638 -0.7642  0.3301
17689TIP3   OH274557   5.649   0.959   0.642  0.1482 -0.1137 -0.1616
17689TIP3    H174558   5.614   0.901   0.574 -0.3612 -1.5148  1.2418
17689TIP3    H274559   5.580   0.961   0.709  0.7796  0.9559  0.4621
17690TIP3   OH274560   0.029   1.514   5.429  0.4777  0.6514  0.0728
17690TIP3    H174561  -0.041   1.569   5.463  1.5013  1.0724  1.5729
17690TIP3    H274562  -0.010   1.467   5.356 -1.1438  1.4435  0.4156
17691TIP3   OH274563   2.074   1.295   2.496  0.4363  0.2037 -0.1283
17691TIP3    H174564   2.033   1.379   2.476  1.3149  0.6236 -0.2395
17691TIP3    H274565   2.115   1.268   2.413  0.3220 -0.2343 -0.0424
17692TIP3   OH274566   3.834   3.848   5.668  0.0188 -0.3788  0.4329
17692TIP3    H174567   3.761   3.834   5.606 -0.4624 -0.5651  1.0409
17692TIP3    H274568   3.795   3.896   5.740  1.1212  1.9849 -0.4955
17693TIP3   OH274569   1.004   3.540  14.192  0.0360  0.3097  0.5134
17693TIP3    H174570   1.087   3.508  14.227  0.1736 -0.5778 -0.5895
17693TIP3    H274571   1.029   3.599  14.121 -0.2703 -0.5284 -0.3067
17694TIP3   OH274572   0.716   3.781   2.041 -0.3233 -0.1589 -0.7174
17694TIP3    H174573   0.764   3.756   1.962 -0.8885  0.6652 -1.3372
17694TIP3    H274574   0.681   3.698   2.075 -0.0653 -0.5242 -1.3305
17695TIP3   OH274575   5.427   5.183  15.123  0.2664 -0.1183 -0.7105
17695TIP3    H174576   5.358   5.207  15.061  0.1011  2.1752  0.3343
17695TIP3    H274577   5.388   5.196  15.209  1.0983 -1.5366 -0.1123
17696TIP3   OH274578   5.930   3.623  11.706  0.5578 -0.6945  0.0875
17696TIP3    H174579   5.863   3.593  11.767  1.4439 -2.3656  0.2643
17696TIP3    H274580   5.982   3.686  11.757  0.2779 -0.8159  0.5271
17697TIP3   OH274581   1.472   4.984   4.629  0.0361 -0.2031  0.7808
17697TIP3    H174582   1.383   5.003   4.599 -0.6583 -0.3141  2.7267
17697TIP3    H274583   1.462   4.915   4.694  1.7739 -1.6880 -0.4791
17698TIP3   OH274584   2.653   0.472   3.373  0.3845 -0.3652  0.0137
17698TIP3    H174585   2.729   0.471   3.431  1.2066 -0.6247 -1.0545
17698TIP3    H274586   2.594   0.406   3.411  0.8977 -0.5055  0.5808
17699TIP3   OH274587   1.577   1.962  13.572  0.0230 -0.1429  0.1492
17699TIP3    H174588   1.612   2.038  13.525 -0.4682  0.1947  0.3195
17699TIP3    H274589   1.522   2.000  13.641 -0.1091 -0.6522  0.3266
17700TIP3   OH274590   5.598   5.226   4.897  0.3195  0.1051  0.0520
17700TIP3    H174591   5.648   5.255   4.820 -1.1196  0.9570 -0.5896
17700TIP3    H274592   5.507   5.250   4.877 -0.6169 -2.7553  0.5192
17701TIP3   OH274593   4.274   0.663  13.949  0.1678  0.4246 -0.1929
17701TIP3    H174594   4.197   0.659  13.893 -0.7696  0.1831  1.0898
17701TIP3    H274595   4.323   0.583  13.928 -0.4576  0.0572 -0.2543
17702TIP3   OH274596   6.559   3.809  10.630 -0.2951 -0.0311 -0.3039
17702TIP3    H174597   6.561   3.780  10.539 -2.1565 -0.1359 -0.3328
17702TIP3    H274598   6.503   3.744  10.674 -0.3568  0.6708  0.6653
17703TIP3   OH274599   0.132   2.136   6.471 -0.7920 -1.1942  0.0911
17703TIP3    H174600   0.045   2.121   6.433 -0.7797 -0.9690 -0.0285
17703TIP3    H274601   0.132   2.083   6.551 -2.4798  1.6875  2.1439
17704TIP3   OH274602   3.869   1.847  16.624  0.4915  0.1740  0.2287
17704TIP3    H174603   3.845   1.926  16.575  0.7039  1.8405  2.7004
17704TIP3    H274604   3.785   1.806  16.646  0.4227 -0.9209 -2.0414
17705TIP3   OH274605   3.229   3.375  13.357 -0.2273 -0.0648  0.0321
17705TIP3    H174606   3.264   3.286  13.349 -0.0910 -0.3148  2.8767
17705TIP3    H274607   3.260   3.405  13.442  0.0428  2.8904 -1.0416
17706TIP3   OH274608   4.383   0.857  14.755  0.0368 -0.2362 -0.2477
17706TIP3    H174609   4.395   0.844  14.661  1.8484 -0.6077  0.0122
17706TIP3    H274610   4.470   0.844  14.792  0.0045  3.0324  1.1222
17707TIP3   OH274611   0.855   5.585   2.240 -0.6590 -0.1097  0.3304
17707TIP3    H174612   0.892   5.625   2.161 -0.1613 -0.5095  0.3576
17707TIP3    H274613   0.840   5.659   2.299  2.4350 -0.1548  1.2840
17708TIP3   OH274614   2.074   2.032  15.120 -0.0755 -0.8886  0.5494
17708TIP3    H174615   2.008   2.044  15.051  0.3547 -0.8293  0.1457
17708TIP3    H274616   2.152   2.003  15.073  0.2512 -0.7393  1.0004
17709TIP3   OH274617   1.620   3.559   1.230  0.2077  0.0150 -0.7464
17709TIP3    H174618   1.615   3.466   1.211  1.3334 -0.0385 -0.8229
17709TIP3    H274619   1.609   3.565   1.325 -0.7123 -0.1178 -0.8407
17710TIP3   OH274620   2.251   1.436  12.109  0.4923  0.3250 -0.6209
17710TIP3    H174621   2.244   1.525  12.144  2.3349  0.7758 -1.3121
17710TIP3    H274622   2.178   1.428  12.048 -0.4845  0.8754  0.4417
17711TIP3   OH274623   1.454   1.715   6.124  0.0604 -0.1055  0.6765
17711TIP3    H174624   1.425   1.793   6.077 -1.6917 -0.3545  1.3380
17711TIP3    H274625   1.544   1.702   6.093 -0.2107  1.1640 -0.7430
17712TIP3   OH274626   3.127   1.024  12.322  0.1050  0.2577 -0.2146
17712TIP3    H174627   3.072   0.958  12.365  1.5756 -1.3699 -0.7899
17712TIP3    H274628   3.190   1.051  12.390 -0.9873  1.6972  0.2647
17713TIP3   OH274629   5.914   2.940   1.391  0.2882 -0.1462  0.2145
17713TIP3    H174630   5.916   2.885   1.469 -0.5789  1.6363  1.5355
17713TIP3    H274631   6.005   2.969   1.380  0.6989 -1.5930 -0.3427
17714TIP3   OH274632   3.286   4.658  13.174  0.1991 -0.7012 -0.6170
17714TIP3    H174633   3.256   4.727  13.115 -0.0313 -1.7969 -1.8263
17714TIP3    H274634   3.207   4.608  13.194  0.2290 -0.1600  0.8700
17715TIP3   OH274635   5.183   0.685  13.486  0.0387 -0.4985  0.0497
17715TIP3    H174636   5.198   0.592  13.501 -3.1646 -0.7646  2.0057
17715TIP3    H274637   5.090   0.692  13.465  0.0221  2.3562  0.8347
17716TIP3   OH274638   2.452   4.742  13.458 -0.1435 -0.2373  0.2711
17716TIP3    H174639   2.444   4.648  13.476 -1.4972  0.3788  3.1669
17716TIP3    H274640   2.508   4.775  13.528  0.1417  1.1638 -0.6012
17717TIP3   OH274641   3.636   6.795  13.373 -0.7926 -0.2896 -0.4689
17717TIP3    H174642   3.666   6.709  13.402 -1.1036  0.2502  1.5346
17717TIP3    H274643   3.654   6.853  13.448 -1.6401  1.1526 -1.3630
17718TIP3   OH274644   2.986   4.443   3.189  0.0274 -0.1181 -0.1608
17718TIP3    H174645   2.933   4.517   3.157  1.5760  1.0219 -0.1867
17718TIP3    H274646   3.048   4.426   3.118  1.3271  0.2331  0.8619
17719TIP3   OH274647   5.278   3.743  15.070  0.0547  0.1038  0.2927
17719TIP3    H174648   5.246   3.825  15.032  3.0422  1.9093  1.4792
17719TIP3    H274649   5.316   3.696  14.996 -0.5802  0.3343 -0.1848
17720TIP3   OH274650   4.446   6.139   4.712 -0.0887 -0.6590 -0.0565
17720TIP3    H174651   4.470   6.158   4.802  0.1724 -4.2019  0.6979
17720TIP3    H274652   4.350   6.136   4.712 -0.1639  1.0560 -0.3260
17721TIP3   OH274653   3.735   6.672   2.560  0.1747  0.2378  0.3864
17721TIP3    H174654   3.714   6.722   2.481  0.7599 -0.3234 -0.1381
17721TIP3    H274655   3.817   6.710   2.592  0.7666 -0.5547 -0.1700
17722TIP3   OH274656   6.320   2.857   1.652 -0.2780  0.7004 -0.3716
17722TIP3    H174657   6.283   2.798   1.719  1.1282  0.5698  0.2971
17722TIP3    H274658   6.279   2.828   1.570  0.0088 -0.8807  0.0191
17723TIP3   OH274659   5.554   0.731  15.145 -0.3153 -0.4134 -0.0048
17723TIP3    H174660   5.587   0.813  15.181 -0.5025 -0.2396 -0.2269
17723TIP3    H274661   5.601   0.663  15.193  0.5587 -0.1632 -0.4927
17724TIP3   OH274662   2.213   4.898   0.667  0.4913  0.0186 -0.3180
17724TIP3    H174663   2.300   4.935   0.681  0.9583 -0.6356 -1.4461
17724TIP3    H274664   2.172   4.956   0.603  0.4607 -0.2413 -0.5317
17725TIP3   OH274665   5.135   1.835  13.411  0.3613 -0.4516  0.3142
17725TIP3    H174666   5.061   1.840  13.350  0.1567  0.0449  0.6008
17725TIP3    H274667   5.143   1.741  13.431  0.5849 -0.6531 -0.6559
17726TIP3   OH274668   2.800   3.566   4.637  0.0676 -0.7926  0.1607
17726TIP3    H174669   2.803   3.554   4.732  1.0758 -0.0870  0.2353
17726TIP3    H274670   2.777   3.658   4.625 -0.2612 -0.9330 -0.2749
17727TIP3   OH274671   5.883   5.455   3.473 -0.2953 -0.0401  0.0421
17727TIP3    H174672   5.821   5.407   3.528 -0.8633 -0.0414 -0.5926
17727TIP3    H274673   5.967   5.443   3.517 -0.5405 -1.0625  0.2522
17728TIP3   OH274674   5.423   5.223   0.518  0.2115 -0.0638 -0.0288
17728TIP3    H174675   5.407   5.142   0.567  1.0175  0.1633  0.6262
17728TIP3    H274676   5.337   5.261   0.504 -0.2145 -1.2436 -0.6955
17729TIP3   OH274677   0.557   6.014   1.325 -0.1450  0.0527 -0.8739
17729TIP3    H174678   0.625   6.024   1.259 -0.0736  0.7214 -0.7020
17729TIP3    H274679   0.477   5.994   1.276  0.6341 -3.2265 -0.9568
17730TIP3   OH274680   1.205   3.123   3.598  0.2023  0.3383 -0.2656
17730TIP3    H174681   1.185   3.038   3.559  2.0683 -0.2077 -0.0677
17730TIP3    H274682   1.291   3.112   3.639 -0.4205  1.7292  1.5307
17731TIP3   OH274683   6.729   2.863   3.561 -0.4328 -0.0789 -0.1393
17731TIP3    H174684   6.700   2.864   3.469 -3.6817  2.0770  0.8262
17731TIP3    H274685   6.653   2.831   3.609  0.5308  0.8714  2.0457
17732TIP3   OH274686   3.636   4.150  16.324 -0.9012  0.3405 -0.6924
17732TIP3    H174687   3.600   4.238  16.317  0.4304  0.8877 -0.8972
17732TIP3    H274688   3.577   4.104  16.383 -2.6276  0.8170 -2.0279
17733TIP3   OH274689   0.290   3.287  12.627 -0.7189  0.6227  0.1431
17733TIP3    H174690   0.310   3.381  12.623 -0.4224  0.6985  2.5675
17733TIP3    H274691   0.224   3.274  12.559 -2.2731  2.9974  1.1350
17734TIP3   OH274692   2.351   2.945  14.326  0.1580 -0.0755  0.2279
17734TIP3    H174693   2.298   2.870  14.300  0.4367  0.0612 -0.7422
17734TIP3    H274694   2.410   2.911  14.394 -0.7167 -0.3768  0.8419
17735TIP3   OH274695   1.431   4.104   2.095  0.4089  0.1040  0.1852
17735TIP3    H174696   1.467   4.192   2.079  0.3206  0.5393  2.3136
17735TIP3    H274697   1.500   4.059   2.145  0.3385 -0.9593 -0.6664
17736TIP3   OH274698   4.626   6.235  11.029  0.7800  0.0322 -0.1117
17736TIP3    H174699   4.670   6.238  11.114 -1.7268  0.7311  1.2224
17736TIP3    H274700   4.654   6.315  10.985 -1.7569  2.2333  2.1144
17737TIP3   OH274701   3.917   6.474   0.711  0.2847 -0.2251 -0.0630
17737TIP3    H174702   3.906   6.510   0.623 -0.4282 -1.0437 -0.3098
17737TIP3    H274703   3.900   6.381   0.702 -0.0576 -0.2741  1.0011
17738TIP3   OH274704   1.210   2.405  13.872 -0.2469  0.8646  0.4394
17738TIP3    H174705   1.278   2.442  13.929  0.2664  0.5899  0.0012
17738TIP3    H274706   1.180   2.327  13.918  1.8820 -0.7410 -0.8118
17739TIP3   OH274707   2.957   3.493   5.583  0.3455 -0.7214  0.4348
17739TIP3    H174708   2.943   3.528   5.671 -0.6180  1.0437 -0.3842
17739TIP3    H274709   3.050   3.473   5.579  0.5122 -0.2167  1.6583
17740TIP3   OH274710   5.606   5.417  15.747 -0.8072 -0.3278  0.1338
17740TIP3    H174711   5.572   5.501  15.777 -0.6924 -0.5188  0.8139
17740TIP3    H274712   5.646   5.436  15.662 -1.1427  0.2207  0.0958
17741TIP3   OH274713   6.155   5.121  13.852 -0.5178 -0.6876 -0.1918
17741TIP3    H174714   6.129   5.041  13.899  2.0497 -1.0736  0.6619
17741TIP3    H274715   6.217   5.090  13.785  1.0966  0.6234  0.6452
17742TIP3   OH274716   2.665   1.334  15.754 -0.3761  0.8831 -0.5274
17742TIP3    H174717   2.695   1.421  15.728 -1.7563  1.1833 -1.1521
17742TIP3    H274718   2.659   1.286  15.672 -0.5761  0.4999 -0.2890
17743TIP3   OH274719   5.008   1.436   5.349 -0.0541  0.6455  0.1377
17743TIP3    H174720   5.064   1.444   5.427  0.6786 -1.3027 -0.1787
17743TIP3    H274721   4.972   1.347   5.354 -1.0309  0.9590 -1.0755
17744TIP3   OH274722   0.671   0.020  13.815  0.3313  0.2323 -0.7994
17744TIP3    H174723   0.749   0.069  13.791 -0.0843  0.6100 -1.3996
17744TIP3    H274724   0.696  -0.028  13.894  1.5888 -0.6932 -1.7324
17745TIP3   OH274725   6.601   2.965  13.595  0.2000  0.1190 -0.0293
17745TIP3    H174726   6.594   3.054  13.630  1.3640  0.0458  0.4252
17745TIP3    H274727   6.524   2.919  13.630  0.3493  0.5611  0.9035
17746TIP3   OH274728   0.110   4.770  12.571 -0.2432 -0.3413  0.0090
17746TIP3    H174729   0.174   4.725  12.626  0.7000 -2.1289 -2.4598
17746TIP3    H274730   0.159   4.840  12.528 -0.2618 -0.8530 -0.8518
17747TIP3   OH274731   4.187   1.654   3.106  0.3193  0.1819  0.0546
17747TIP3    H174732   4.110   1.712   3.105  0.5149  0.4501  0.2921
17747TIP3    H274733   4.199   1.628   3.015  0.2016  0.4832 -0.0485
17748TIP3   OH274734   4.902   6.310   3.757  0.2460  0.1785 -0.0676
17748TIP3    H174735   4.883   6.394   3.714  0.6142 -0.0061 -0.5937
17748TIP3    H274736   4.818   6.283   3.794  0.2760  1.1221  0.7136
17749TIP3   OH274737   6.146   2.614   2.911  0.1561 -0.1687 -0.0920
17749TIP3    H174738   6.203   2.667   2.968 -0.3315  1.1512 -0.7911
17749TIP3    H274739   6.063   2.609   2.958 -0.7741  2.3009 -1.3425
17750TIP3   OH274740   1.485   4.066  12.907  0.0815  0.0426  0.3256
17750TIP3    H174741   1.507   4.108  12.990 -0.0823  3.4438 -1.2594
17750TIP3    H274742   1.565   4.018  12.882  0.8275  0.6878  1.4313
17751TIP3   OH274743   6.600   4.217  13.953  0.4928 -0.0431 -0.5360
17751TIP3    H174744   6.580   4.207  14.046 -0.2089 -1.1294 -0.7963
17751TIP3    H274745   6.618   4.310  13.943 -2.3323  0.6228  0.1322
17752TIP3   OH274746   0.023   2.469  17.213  0.5726 -0.0917  0.1214
17752TIP3    H174747  -0.053   2.493  17.266  0.6877 -0.9124  0.6660
17752TIP3    H274748   0.081   2.424  17.273  0.8297 -0.7969 -0.6436
17753TIP3   OH274749   6.491   1.696  15.806  0.3209 -0.0807 -0.3581
17753TIP3    H174750   6.420   1.666  15.863  1.0080 -0.3285  0.3801
17753TIP3    H274751   6.482   1.644  15.727 -0.9513  0.6082 -0.6851
17754TIP3   OH274752   4.746   6.595  17.148 -0.0338 -0.5130 -0.1745
17754TIP3    H174753   4.806   6.662  17.116  1.4083 -0.8797  1.6495
17754TIP3    H274754   4.796   6.513  17.139 -0.3791 -0.8634  1.0358
17755TIP3   OH274755   6.311   1.242  16.383  0.5286 -0.4169 -0.1213
17755TIP3    H174756   6.322   1.148  16.397 -0.1215 -0.6521 -1.1627
17755TIP3    H274757   6.255   1.270  16.455 -0.4822 -1.1067 -0.6195
17756TIP3   OH274758   3.992   4.555   5.491 -0.2984  0.5883 -0.3868
17756TIP3    H174759   4.065   4.566   5.553 -0.9506 -0.9206  0.6699
17756TIP3    H274760   4.000   4.464   5.461 -1.1441  0.7352 -1.0611
17757TIP3   OH274761   0.185   6.742   0.600  0.1592 -0.1427 -0.6210
17757TIP3    H174762   0.243   6.769   0.671  0.3201 -2.1500  0.0299
17757TIP3    H274763   0.209   6.798   0.526 -0.3799  2.3566  1.0332
17758TIP3   OH274764   4.687   0.178   3.490 -0.2388 -0.6645 -0.2159
17758TIP3    H174765   4.704   0.272   3.476  0.3757 -0.4261  2.0318
17758TIP3    H274766   4.714   0.137   3.408  0.1394  1.0532 -0.9816
17759TIP3   OH274767   4.346   3.840  15.821 -0.0535 -0.1130  0.3936
17759TIP3    H174768   4.412   3.801  15.764 -0.4588  0.8792 -0.7672
17759TIP3    H274769   4.377   3.822  15.910  0.8731 -1.1729 -0.1417
17760TIP3   OH274770   0.771   3.411  14.716 -0.3724 -0.0963  0.1860
17760TIP3    H174771   0.843   3.395  14.655  0.1403 -0.4080  0.8574
17760TIP3    H274772   0.814   3.441  14.797 -0.9687 -0.6004  0.6992
17761TIP3   OH274773   0.084   2.328  11.285 -0.1791  0.0933  0.4507
17761TIP3    H174774   0.130   2.356  11.206  0.2195 -0.0554  0.6296
17761TIP3    H274775   0.135   2.254  11.317  1.0574  1.6724  2.2191
17762TIP3   OH274776   0.537   5.447  15.828 -0.5350  0.3670 -0.2324
17762TIP3    H174777   0.530   5.354  15.849 -0.9359  0.3612 -0.3765
17762TIP3    H274778   0.477   5.489  15.890  0.0982  0.5879  0.2337
17763TIP3   OH274779   6.107   4.636   4.975  0.2543 -0.1605 -0.7465
17763TIP3    H174780   6.047   4.710   4.986 -0.1640 -0.5013 -0.7269
17763TIP3    H274781   6.153   4.630   5.059  0.1445 -0.0495 -0.6775
17764TIP3   OH274782   5.917   4.784  14.789 -0.3911  0.4622  0.4565
17764TIP3    H174783   5.935   4.761  14.698  0.9352 -0.3092  0.9134
17764TIP3    H274784   6.003   4.800  14.828 -0.9623  1.0049  1.5243
17765TIP3   OH274785   5.267   6.589   3.931  0.4907 -0.2150 -0.1464
17765TIP3    H174786   5.292   6.664   3.985 -0.0820 -1.7447  2.3139
17765TIP3    H274787   5.198   6.623   3.874  0.1861  1.1194  0.9842
17766TIP3   OH274788   2.672   2.706   6.247 -0.1536 -0.0786 -0.1389
17766TIP3    H174789   2.713   2.650   6.181  0.7752  0.4627 -0.0245
17766TIP3    H274790   2.704   2.672   6.330 -2.8361 -2.0036  0.1858
17767TIP3   OH274791   6.651   3.277  13.862  0.6974 -0.6093  0.0281
17767TIP3    H174792   6.602   3.353  13.891  3.0711  0.6351  0.9331
17767TIP3    H274793   6.670   3.295  13.769  1.6756  0.1587  0.3687
17768TIP3   OH274794   5.892   1.647   0.469  0.7672  0.3406 -0.0672
17768TIP3    H174795   5.962   1.664   0.407  0.6095 -0.4033 -0.4486
17768TIP3    H274796   5.914   1.562   0.507  0.3160  0.3228  0.1521
17769TIP3   OH274797   2.432   3.883   6.181 -0.3447  0.1229  0.2803
17769TIP3    H174798   2.519   3.910   6.151 -0.5629 -1.1239 -1.5433
17769TIP3    H274799   2.449   3.817   6.248  0.1088  0.1475  0.1909
17770TIP3   OH274800   6.064   4.322  13.884  0.5086  0.8243  0.0750
17770TIP3    H174801   6.138   4.348  13.829  1.0928 -1.1331 -0.1188
17770TIP3    H274802   5.993   4.306  13.822  0.2114  1.7581  0.1739
17771TIP3   OH274803   6.702   3.659   5.028 -0.6672  0.1323 -0.5750
17771TIP3    H174804   6.774   3.632   4.971 -0.4335  1.1933 -0.8069
17771TIP3    H274805   6.734   3.739   5.071  0.0163 -1.7971  2.7072
17772TIP3   OH274806   5.377   3.936  16.576  0.5832  0.1878 -0.0225
17772TIP3    H174807   5.296   3.894  16.605  0.5622  0.1396 -0.1521
17772TIP3    H274808   5.350   3.995  16.506  0.2928  2.0121  1.5682
17773TIP3   OH274809   1.895   6.320   4.389 -0.2197  0.0692 -0.9409
17773TIP3    H174810   1.886   6.230   4.359  2.0917  0.1108 -1.8862
17773TIP3    H274811   1.859   6.373   4.318  0.8554 -0.0242 -1.5676
17774TIP3   OH274812   1.544   5.496   4.908 -0.3114  0.5251  0.2644
17774TIP3    H174813   1.470   5.557   4.903  0.0805  1.0672  0.9633
17774TIP3    H274814   1.608   5.532   4.846 -0.6507  0.0222 -0.3859
17775TIP3   OH274815   0.005   6.030   5.618 -0.4398 -0.4484 -0.1525
17775TIP3    H174816  -0.055   5.977   5.671  0.1349 -1.2512 -0.3020
17775TIP3    H274817   0.053   5.967   5.565 -0.0273  0.2515 -0.6248
17776TIP3   OH274818   4.522   5.182  12.635 -0.5891  0.0612  0.0469
17776TIP3    H174819   4.616   5.175  12.649 -0.5039  0.6023 -0.2705
17776TIP3    H274820   4.510   5.170  12.541 -1.0001 -1.7130  0.2933
17777TIP3   OH274821   4.384   1.183  16.059 -0.0613 -0.2064  0.0229
17777TIP3    H174822   4.431   1.266  16.049 -3.0995  1.3831 -1.7696
17777TIP3    H274823   4.403   1.135  15.979  2.1148 -1.5686  1.2784
17778TIP3   OH274824   1.289   0.457   5.164  0.1135 -0.1697 -0.4987
17778TIP3    H174825   1.213   0.487   5.113  0.6780 -1.1197 -1.9523
17778TIP3    H274826   1.257   0.449   5.253 -0.8997  1.6185 -0.6891
17779TIP3   OH274827   1.235   0.902   1.787 -0.5127  0.7737  0.9736
17779TIP3    H174828   1.319   0.861   1.770 -1.4792 -0.8151 -0.1445
17779TIP3    H274829   1.220   0.889   1.881  0.4052  0.9314  1.1464
17780TIP3   OH274830   4.107   5.660   2.414  0.9359  0.0866 -0.4868
17780TIP3    H174831   4.102   5.715   2.492 -2.6454 -0.9799  0.1226
17780TIP3    H274832   4.141   5.576   2.445  1.4075  0.2853 -0.4598
17781TIP3   OH274833   2.550   0.701   4.385 -0.2116  0.0336 -0.1329
17781TIP3    H174834   2.481   0.700   4.452  1.5180 -0.1454  1.6706
17781TIP3    H274835   2.580   0.611   4.379  0.9959  0.4034  0.2772
17782TIP3   OH274836   6.119   3.918  14.135  0.4931 -0.3024  0.4122
17782TIP3    H174837   6.074   3.920  14.050 -0.5245 -0.8547  0.9174
17782TIP3    H274838   6.144   4.008  14.151  0.3628 -0.1313 -0.3115
17783TIP3   OH274839   2.465   3.841  16.461 -0.5227 -0.1605 -0.2918
17783TIP3    H174840   2.546   3.853  16.412 -1.4096  0.1554 -1.7278
17783TIP3    H274841   2.423   3.765  16.420 -0.9389 -0.3280  0.4410
17784TIP3   OH274842   1.536   3.057  12.538  0.2676 -0.2606  0.1622
17784TIP3    H174843   1.516   3.093  12.451 -0.2622 -3.7016 -1.2078
17784TIP3    H274844   1.632   3.054  12.540  0.3629  2.3264  0.7986
17785TIP3   OH274845   4.377   3.928  10.897  0.2968 -0.5669 -0.1560
17785TIP3    H174846   4.297   3.897  10.854 -0.4765  0.8466  0.2224
17785TIP3    H274847   4.399   4.009  10.850  0.5451 -0.0510  0.8413
17786TIP3   OH274848   6.690   4.599  13.631 -0.4860 -0.6638 -0.2410
17786TIP3    H174849   6.662   4.688  13.609 -0.6675 -0.4430  0.8582
17786TIP3    H274850   6.770   4.586  13.579 -0.0639  0.4022  0.1304
17787TIP3   OH274851   5.833   5.793  14.410  0.3292  0.0853 -0.4877
17787TIP3    H174852   5.773   5.719  14.400 -0.0658  0.0353  1.8639
17787TIP3    H274853   5.778   5.871  14.396  0.4010 -0.0259 -1.3983
17788TIP3   OH274854   3.508   0.328  15.123  0.0203  0.1222  0.2257
17788TIP3    H174855   3.571   0.376  15.069  0.5460 -0.5259  0.2503
17788TIP3    H274856   3.558   0.302  15.201  0.2411 -2.0066 -0.5994
17789TIP3   OH274857   1.994   5.161  16.849  0.3908  0.0972 -0.2223
17789TIP3    H174858   2.029   5.088  16.900 -0.4898 -1.5896 -1.9838
17789TIP3    H274859   2.071   5.211  16.822  1.0534 -0.6431  0.2946
17790TIP3   OH274860   4.974   2.280  14.608 -0.3105 -0.1157 -0.1595
17790TIP3    H174861   5.067   2.295  14.629 -0.6461  1.2075  0.4322
17790TIP3    H274862   4.966   2.306  14.516  0.0075 -0.6645 -0.3411
17791TIP3   OH274863   0.177   2.224  14.796 -0.2561 -0.4540 -0.0659
17791TIP3    H174864   0.234   2.168  14.743  1.1984  0.0647  0.9232
17791TIP3    H274865   0.147   2.167  14.867  0.3415 -0.2707  0.3294
17792TIP3   OH274866   5.383   4.415   1.112  0.4826  0.2548  0.0376
17792TIP3    H174867   5.386   4.322   1.090  1.4035  0.1853  0.4515
17792TIP3    H274868   5.430   4.422   1.195  1.5186  1.2587 -0.6074
17793TIP3   OH274869   0.113   1.377  11.832 -0.4135 -0.0442  0.3708
17793TIP3    H174870   0.156   1.420  11.758 -0.5146 -1.4768 -0.5568
17793TIP3    H274871   0.163   1.296  11.845  0.9732  1.2236  3.3283
17794TIP3   OH274872   4.817   0.877   1.265  0.3266 -0.6754 -0.5040
17794TIP3    H174873   4.857   0.950   1.312 -0.5517 -1.5934  1.7607
17794TIP3    H274874   4.890   0.825   1.233  0.9458  0.4253 -0.8776
17795TIP3   OH274875   4.858   2.278  11.552  0.6047 -0.1118 -0.0746
17795TIP3    H174876   4.864   2.295  11.646 -0.9488  1.0778 -0.1734
17795TIP3    H274877   4.909   2.348  11.512 -0.2656  0.4439 -0.2024
17796TIP3   OH274878   5.268   1.104   5.145 -0.2614  0.2542 -0.2346
17796TIP3    H174879   5.193   1.055   5.178  0.2120 -1.9333 -2.3260
17796TIP3    H274880   5.296   1.057   5.067  2.8387  1.4480  0.0711
17797TIP3   OH274881   6.335   2.926  10.850 -0.2185  0.4492 -0.4276
17797TIP3    H174882   6.411   2.869  10.862 -1.5731 -1.4751 -0.7032
17797TIP3    H274883   6.371   3.005  10.810  1.6818 -0.2920 -0.2530
17798TIP3   OH274884   6.729   0.545  12.903  0.3150 -0.5851 -0.0058
17798TIP3    H174885   6.661   0.491  12.864  0.4776 -1.0192  0.3083
17798TIP3    H274886   6.691   0.577  12.984 -0.0537  0.3867 -0.5566
17799TIP3   OH274887   2.028   6.667   2.418  0.4488 -0.4926  0.4596
17799TIP3    H174888   1.997   6.729   2.352 -0.0251 -2.0826 -0.8264
17799TIP3    H274889   2.104   6.625   2.378  0.7659 -0.7603  1.3310
17800TIP3   OH274890   5.166   0.938   5.444  0.0543  0.5900 -0.2286
17800TIP3    H174891   5.119   0.939   5.527  1.7336  0.1955  0.7565
17800TIP3    H274892   5.113   0.883   5.387 -0.7851  0.3416  0.7764
17801TIP3   OH274893   5.811   1.299  14.374 -0.1516  0.4089  0.5165
17801TIP3    H174894   5.847   1.244  14.442 -1.0805  1.3503  1.8021
17801TIP3    H274895   5.725   1.326  14.408 -0.8160  0.5235 -1.2082
17802TIP3   OH274896   0.060   4.994  11.255  0.3871  0.7384  0.0749
17802TIP3    H174897   0.121   4.937  11.207  1.0283  0.5510  1.0979
17802TIP3    H274898  -0.004   5.021  11.189  1.4997  0.8329 -0.9878
17803TIP3   OH274899   1.941   0.659   3.866 -0.2932  0.2189 -0.5250
17803TIP3    H174900   1.969   0.750   3.870 -1.8958  0.6853  0.3978
17803TIP3    H274901   1.987   0.616   3.938 -0.5335  0.5820 -0.1552
17804TIP3   OH274902   4.644   6.264   0.382 -0.1728 -0.3740 -0.5780
17804TIP3    H174903   4.733   6.230   0.378  0.4369  1.0229  0.4670
17804TIP3    H274904   4.652   6.355   0.352 -1.3327 -0.3747 -0.9347
17805TIP3   OH274905   0.754   0.175  13.316  0.1432 -0.6236 -0.6731
17805TIP3    H174906   0.778   0.261  13.349  0.4511 -0.3765 -1.5349
17805TIP3    H274907   0.766   0.116  13.391  0.8754 -0.0832 -0.3676
17806TIP3   OH274908   2.085   6.281  15.494 -0.4992  0.2367  0.3672
17806TIP3    H174909   2.136   6.337  15.435 -2.1423  0.0939 -1.2146
17806TIP3    H274910   2.151   6.242  15.552  1.2683 -0.2854 -1.9089
17807TIP3   OH274911   3.524   3.512   5.675 -0.3682  0.0480 -0.5406
17807TIP3    H174912   3.587   3.563   5.725 -1.5134  0.9738 -0.0424
17807TIP3    H274913   3.499   3.440   5.733  0.5348 -0.5747 -0.9001
17808TIP3   OH274914   4.708   4.289  16.042 -0.2546  0.0188  0.0511
17808TIP3    H174915   4.710   4.352  15.970 -1.0036  1.2219  1.0610
17808TIP3    H274916   4.616   4.263  16.049 -0.3117  0.4467  1.0170
17809TIP3   OH274917   5.913   3.951  13.477 -0.1918 -0.1633 -0.5365
17809TIP3    H174918   5.958   3.869  13.456  2.6678  1.2519 -0.2059
17809TIP3    H274919   5.866   3.974  13.397 -0.5819 -1.8502 -0.7979
17810TIP3   OH274920   6.323   0.767   1.831  0.0359 -0.8813  0.2661
17810TIP3    H174921   6.378   0.688   1.840  0.5837 -0.4627  0.6270
17810TIP3    H274922   6.382   0.839   1.854  0.4615 -0.0742 -3.2011
17811TIP3   OH274923   5.338   4.708   1.738  0.4870  1.1651  0.0159
17811TIP3    H174924   5.279   4.781   1.719 -1.6539 -0.7998 -1.0880
17811TIP3    H274925   5.294   4.659   1.807  0.4467 -0.7444 -1.3537
17812TIP3   OH274926   2.004   5.191   0.157  0.2145 -0.2328 -0.3252
17812TIP3    H174927   1.937   5.157   0.216  0.5708  0.5377  0.5530
17812TIP3    H274928   1.960   5.262   0.110  0.1410 -0.3620 -0.4521
17813TIP3   OH274929   4.497   2.740   2.596 -0.1617  0.1109  0.3726
17813TIP3    H174930   4.471   2.691   2.674 -1.3338  1.1135  0.6307
17813TIP3    H274931   4.586   2.771   2.616  0.9957 -2.7099 -0.2045
17814TIP3   OH274932   3.146   0.079  17.128 -0.2705 -0.0367  0.1229
17814TIP3    H174933   3.165   0.021  17.203  1.6493  0.6072  0.1605
17814TIP3    H274934   3.111   0.158  17.168 -2.3256 -0.8887  0.1064
17815TIP3   OH274935   0.815   5.947  14.199  0.2423  0.4539 -0.4186
17815TIP3    H174936   0.890   5.896  14.171 -1.0030 -2.1874  0.9310
17815TIP3    H274937   0.853   6.028  14.233  2.4623 -0.7396  0.0612
17816TIP3   OH274938   2.990   5.188  17.127 -0.6145  0.2718  0.2898
17816TIP3    H174939   2.979   5.280  17.106 -0.8144  0.2380  0.2515
17816TIP3    H274940   3.055   5.187  17.198  2.6882  0.2126 -2.5559
17817TIP3   OH274941   3.464   2.700   2.580  0.8483 -0.0224 -0.1640
17817TIP3    H174942   3.486   2.608   2.593 -1.3782 -0.3912  1.3215
17817TIP3    H274943   3.422   2.727   2.662  0.8459  2.1291 -0.8329
17818TIP3   OH274944   6.136   2.524   6.085  0.1554  0.0608  0.6075
17818TIP3    H174945   6.211   2.575   6.114  0.9642 -0.5313 -0.4088
17818TIP3    H274946   6.073   2.531   6.157  0.4880  1.9773  0.7396
17819TIP3   OH274947   3.016   4.031  11.492 -0.2591 -0.3048  0.4399
17819TIP3    H174948   2.921   4.034  11.504 -0.4198 -1.3868 -0.4364
17819TIP3    H274949   3.052   4.041  11.580 -1.2365 -2.1280  1.0621
17820TIP3   OH274950   4.297   2.782   4.664  0.0765  0.6803  0.1941
17820TIP3    H174951   4.336   2.713   4.718 -0.8391  1.9847  2.6130
17820TIP3    H274952   4.207   2.751   4.649 -0.2297  1.1674  0.9919
17821TIP3   OH274953   5.772   2.037   1.972 -0.0185 -0.0543 -0.3314
17821TIP3    H174954   5.786   2.110   1.912 -2.4194 -0.9797 -2.1376
17821TIP3    H274955   5.794   1.959   1.921  1.7107 -0.6624  1.2974
17822TIP3   OH274956   3.061   4.217  13.563 -0.5646  0.2927 -0.1279
17822TIP3    H174957   3.090   4.303  13.593  3.4970 -0.9083 -0.3349
17822TIP3    H274958   3.053   4.165  13.642 -0.3673  0.1043 -0.2331
17823TIP3   OH274959   1.212   4.474   4.030 -0.0684 -0.0723  0.8060
17823TIP3    H174960   1.137   4.488   3.972 -0.9698  0.7051  2.1286
17823TIP3    H274961   1.254   4.560   4.036 -1.2656  0.3924  3.0288
17824TIP3   OH274962   5.233   0.078   0.526  0.1064 -0.2050  0.2773
17824TIP3    H174963   5.203   0.005   0.580 -1.2017 -1.4170 -2.0232
17824TIP3    H274964   5.277   0.137   0.588 -2.2701 -1.0216  2.8247
17825TIP3   OH274965   5.385   6.285  15.729  0.3928 -0.1976 -0.4702
17825TIP3    H174966   5.466   6.323  15.762  0.2640 -1.7363  1.6846
17825TIP3    H274967   5.319   6.355  15.740  0.5763 -0.3325  1.5603
17826TIP3   OH274968   0.355   4.709  13.309 -0.1568  0.5180 -0.6565
17826TIP3    H174969   0.351   4.619  13.279  1.4111  0.5115 -0.8715
17826TIP3    H274970   0.275   4.721  13.360 -0.2603 -1.0607 -0.4317
17827TIP3   OH274971   5.812   3.429   5.753  0.2596 -0.0175 -0.6293
17827TIP3    H174972   5.810   3.369   5.828  0.3749  0.7059 -0.0493
17827TIP3    H274973   5.900   3.418   5.716  0.6857  0.6745  0.1878
17828TIP3   OH274974   1.238   4.403  16.888 -0.1362  0.0321 -0.7186
17828TIP3    H174975   1.195   4.345  16.951  1.2143 -1.8162 -1.4758
17828TIP3    H274976   1.227   4.490  16.926 -0.2557 -0.9246  1.5622
17829TIP3   OH274977   1.538   4.508  13.087 -0.1701 -0.4839  0.2506
17829TIP3    H174978   1.575   4.425  13.057 -2.3554 -1.3415 -0.2024
17829TIP3    H274979   1.505   4.550  13.008  0.0480  0.3717  0.6099
17830TIP3   OH274980   1.004   1.102   5.354  0.3441  0.1809  0.5760
17830TIP3    H174981   1.041   1.151   5.280 -1.0288 -2.3647 -1.9027
17830TIP3    H274982   0.919   1.141   5.370  1.1881  1.6007  1.7568
17831TIP3   OH274983   6.007   1.579   3.390  0.5927 -0.9276  0.5402
17831TIP3    H174984   5.939   1.539   3.444 -1.3238  1.1924 -0.2082
17831TIP3    H274985   5.972   1.575   3.301  2.0318 -0.9633 -0.0383
17832TIP3   OH274986   1.877   6.108   0.626 -0.6497  0.2525 -0.1057
17832TIP3    H174987   1.903   6.134   0.714  0.3855 -1.3691  0.0854
17832TIP3    H274988   1.916   6.022   0.614 -2.7367 -0.5633 -1.2754
17833TIP3   OH274989   4.274   4.920   0.384 -0.0854  0.8209  0.6527
17833TIP3    H174990   4.289   4.854   0.452 -1.9787 -1.2277 -0.8450
17833TIP3    H274991   4.223   4.988   0.428  1.6738  1.1808  2.1625
17834TIP3   OH274992   2.461   0.863   1.773 -0.0452  0.1602 -0.6760
17834TIP3    H174993   2.445   0.924   1.845  0.2999  0.3434 -0.7540
17834TIP3    H274994   2.386   0.875   1.715 -1.9734 -2.2758  1.2077
17835TIP3   OH274995   4.067   1.731  16.435  0.1300 -0.3633  0.5810
17835TIP3    H174996   4.097   1.817  16.404 -1.8434 -0.0632 -0.5706
17835TIP3    H274997   4.007   1.751  16.506 -0.4043 -0.7797  0.2523
17836TIP3   OH274998   0.496   5.387   3.707 -0.7202  0.1399 -0.2541
17836TIP3    H174999   0.407   5.413   3.729 -0.4296  0.9606 -0.0326
17836TIP3    H275000   0.545   5.469   3.704 -0.3858 -0.1028 -2.2758
17837TIP3   OH275001   2.276   0.472   0.035 -0.7811 -0.0719 -0.4907
17837TIP3    H175002   2.246   0.510  -0.048 -1.6185 -1.2562 -0.7488
17837TIP3    H275003   2.266   0.378   0.023  2.0723 -0.4636 -0.1703
17838TIP3   OH275004   0.418   0.541  11.991 -0.6083  0.0331  0.4266
17838TIP3    H175005   0.431   0.567  12.082 -0.6395  2.0901 -0.1368
17838TIP3    H275006   0.331   0.574  11.969 -0.2217  0.3577 -0.6340
17839TIP3   OH275007   5.384   1.636   4.733  0.0963 -0.4378  0.3407
17839TIP3    H175008   5.312   1.699   4.724  0.6447 -0.0751 -1.6726
17839TIP3    H275009   5.353   1.573   4.798 -2.5530 -0.9988 -1.4111
17840TIP3   OH275010   1.304   0.730   2.376 -0.0465 -0.8284 -1.1077
17840TIP3    H175011   1.395   0.731   2.407 -0.0059  0.5482 -1.2420
17840TIP3    H275012   1.301   0.800   2.310 -1.9013  1.0619  0.9080
17841TIP3   OH275013   4.478   5.930  16.715 -0.2114  0.1598 -0.1244
17841TIP3    H175014   4.450   6.013  16.753 -2.5795 -1.5344  2.0458
17841TIP3    H275015   4.545   5.897  16.775 -0.2105 -0.0928 -0.2622
17842TIP3   OH275016   1.310   4.689   2.683 -0.0880 -0.1768 -0.2949
17842TIP3    H175017   1.329   4.667   2.774 -0.7064  1.4270  0.2382
17842TIP3    H275018   1.355   4.773   2.669  0.5613 -0.7353 -1.6693
17843TIP3   OH275019   4.438   6.766  15.836 -0.1767  0.1358  0.2556
17843TIP3    H175020   4.354   6.720  15.828 -0.1872  0.3427 -0.8144
17843TIP3    H275021   4.500   6.713  15.787  0.4992 -0.4222  1.6817
17844TIP3   OH275022   5.911   2.057   1.168  0.4203  0.0542  0.3080
17844TIP3    H175023   5.945   2.028   1.253 -2.1635 -0.7053  1.1429
17844TIP3    H275024   5.933   2.150   1.163  0.0960  0.2486  2.1016
17845TIP3   OH275025   1.895   4.074  15.528 -0.1238 -0.0566  0.1578
17845TIP3    H175026   1.822   4.133  15.546 -0.1082 -0.5609  1.9694
17845TIP3    H275027   1.969   4.132  15.508 -0.7597  0.4700 -0.6694
17846TIP3   OH275028   1.139   3.136  16.749 -0.5369  0.3487  0.5327
17846TIP3    H175029   1.185   3.093  16.677  0.1444 -0.3417  1.3837
17846TIP3    H275030   1.133   3.228  16.721 -1.3454 -0.1302 -0.9520
17847TIP3   OH275031   5.097   2.367   3.264 -0.7195 -0.3001 -0.4729
17847TIP3    H175032   5.167   2.398   3.206  0.2747  1.3725  1.5720
17847TIP3    H275033   5.051   2.302   3.212 -0.3029  1.6509 -3.4087
17848TIP3   OH275034   2.652   4.075   2.850 -0.1229  0.4411 -0.1464
17848TIP3    H175035   2.619   4.153   2.894 -2.8183 -0.1510 -1.0147
17848TIP3    H275036   2.673   4.105   2.761 -3.2132 -0.2248 -1.1476
17849TIP3   OH275037   1.512   4.061  13.919  0.0990  0.0231  0.5370
17849TIP3    H175038   1.534   4.005  13.994 -0.2361  1.1144  1.4543
17849TIP3    H275039   1.459   4.131  13.956  0.9269  1.2288 -0.5218
17850TIP3   OH275040   5.880   5.168  14.311  0.0078 -0.2078  0.2046
17850TIP3    H175041   5.873   5.092  14.369  1.5072  0.0986  0.8164
17850TIP3    H275042   5.937   5.138  14.239  1.4827  0.6388  0.9988
17851TIP3   OH275043   4.141   2.795   1.312 -0.4758  0.5019 -0.1153
17851TIP3    H175044   4.127   2.864   1.248 -1.8629 -0.6300 -1.0514
17851TIP3    H275045   4.090   2.822   1.388  2.0002  2.3712  0.9614
17852TIP3   OH275046   1.320   0.108   0.077  0.0569 -0.3414 -0.3068
17852TIP3    H175047   1.351   0.192   0.043 -0.2056 -0.0049  0.2729
17852TIP3    H275048   1.258   0.131   0.146 -1.0650 -1.0191 -1.0804
17853TIP3   OH275049   0.871   0.958   5.051  0.2017 -0.8334 -0.4542
17853TIP3    H175050   0.901   1.015   5.121  1.0793 -0.5132 -1.0841
17853TIP3    H275051   0.775   0.958   5.060  0.3829 -1.9138  1.5869
17854TIP3   OH275052   6.226   1.551   1.259  0.1463 -0.0746 -0.1817
17854TIP3    H175053   6.288   1.623   1.246  1.4076 -0.6339  2.4044
17854TIP3    H275054   6.253   1.486   1.194  3.1965 -0.8417  1.7186
17855TIP3   OH275055   5.352   0.353   5.583  0.3148  0.4133 -0.5418
17855TIP3    H175056   5.327   0.387   5.497 -0.0537  1.6997  0.0609
17855TIP3    H275057   5.371   0.431   5.635 -0.9819 -0.2695  1.0031
17856TIP3   OH275058   4.167   2.291  14.071 -0.1984  0.5720  0.0132
17856TIP3    H175059   4.120   2.259  13.995 -0.5772 -0.4443  0.6534
17856TIP3    H275060   4.220   2.216  14.099 -0.1129  0.9129  0.7801
17857TIP3   OH275061   6.549   0.091  12.874  0.2182 -0.2352 -0.8276
17857TIP3    H175062   6.604   0.154  12.827  2.4005 -1.2591  0.2260
17857TIP3    H275063   6.612   0.026  12.908 -1.6387 -1.3141  0.6427
17858TIP3   OH275064   0.557   2.511  16.788  0.1437 -0.3963 -0.3482
17858TIP3    H175065   0.478   2.564  16.775 -1.1308 -1.7369  1.5361
17858TIP3    H275066   0.575   2.473  16.703 -0.9262  0.3842 -0.9304
17859TIP3   OH275067   5.359   0.084   2.570 -0.1440 -0.6114  0.0940
17859TIP3    H175068   5.339   0.046   2.655  0.1556 -1.0145 -0.0137
17859TIP3    H275069   5.429   0.147   2.587 -1.0180  0.3135  0.3620
17860TIP3   OH275070   2.975   6.742   3.091 -0.6762 -0.2348  0.5845
17860TIP3    H175071   3.055   6.708   3.051  0.7251  3.2750  0.1946
17860TIP3    H275072   2.994   6.743   3.185 -0.6567 -0.3556  0.5819
17861TIP3   OH275073   6.445   0.328  13.039 -0.3945 -0.0160  0.5386
17861TIP3    H175074   6.468   0.239  13.016 -2.6157 -0.6661  0.6991
17861TIP3    H275075   6.445   0.375  12.955 -1.9562 -0.8473  0.0360
17862TIP3   OH275076   1.203   6.155  11.008 -0.3208 -0.2821  0.6401
17862TIP3    H175077   1.225   6.174  10.916 -1.6091  0.8154  0.5473
17862TIP3    H275078   1.108   6.145  11.008 -0.2228 -1.2421  1.6966
17863TIP3   OH275079   4.113   5.019  15.128  0.5855  0.0676 -0.3084
17863TIP3    H175080   4.200   4.984  15.108  0.1540  0.0985 -2.4124
17863TIP3    H275081   4.119   5.112  15.104 -0.0041  0.0881 -0.3805
17864TIP3   OH275082   4.230   2.672  14.962 -0.0594  0.0258 -0.0196
17864TIP3    H175083   4.299   2.622  14.920  0.1266  0.2245  0.0505
17864TIP3    H275084   4.153   2.658  14.907 -0.2506 -1.1272  0.5281
17865TIP3   OH275085   6.441   6.660   2.848 -0.3593 -0.1726 -0.5262
17865TIP3    H175086   6.520   6.705   2.819 -0.7500 -0.6010 -2.3726
17865TIP3    H275087   6.472   6.578   2.887  0.2719  1.0809  1.6294
17866TIP3   OH275088   4.242   3.081   1.736  0.1636 -0.2739 -0.4681
17866TIP3    H175089   4.271   2.993   1.714  0.5413 -0.8682  2.2455
17866TIP3    H275090   4.319   3.136   1.724  0.6150 -0.7399  0.2659
17867TIP3   OH275091   3.263   3.795   1.612  0.4922  0.7020 -0.3263
17867TIP3    H175092   3.289   3.791   1.704 -1.5500 -0.4859  0.2315
17867TIP3    H275093   3.251   3.703   1.587 -0.5901  1.0997 -1.3017
17868TIP3   OH275094   0.701   6.487   6.191 -1.0510  0.1861  0.2259
17868TIP3    H175095   0.615   6.500   6.229 -0.4045  1.0865  1.4274
17868TIP3    H275096   0.755   6.454   6.264 -0.5689 -1.1042 -0.6926
17869TIP3   OH275097   3.448   3.699  17.080  0.3549 -0.1134  0.6618
17869TIP3    H175098   3.422   3.786  17.050  1.8958  0.6819  1.6087
17869TIP3    H275099   3.388   3.680  17.153  0.5793  0.5185  1.0118
17870TIP3   OH275100   6.157   6.804   6.350  0.7751 -0.5042  0.3478
17870TIP3    H175101   6.081   6.861   6.342  1.7100  0.7225  0.0068
17870TIP3    H275102   6.172   6.797   6.444 -0.7736 -2.1492  0.4946
17871TIP3   OH275103   3.075   0.993  11.108 -0.2834 -0.0503 -0.4079
17871TIP3    H175104   3.064   0.942  11.189 -0.0696 -1.1395 -1.0563
17871TIP3    H275105   2.990   1.032  11.092 -0.1149  0.8340  0.7846
17872TIP3   OH275106   4.047   5.398   1.786  0.9039 -0.5497  0.2214
17872TIP3    H175107   4.121   5.338   1.794  0.5412 -1.5621 -3.1885
17872TIP3    H275108   3.970   5.341   1.779  0.2554  0.3666 -0.2876
17873TIP3   OH275109   6.816   5.124  11.500  0.4100  0.5215  0.2075
17873TIP3    H175110   6.900   5.116  11.545  0.3529 -0.1498  0.1919
17873TIP3    H275111   6.827   5.073  11.420 -0.6966 -1.2759  1.1718
17874TIP3   OH275112   3.926   1.170   4.245 -0.6892 -0.3205  0.3912
17874TIP3    H175113   3.901   1.080   4.221  0.3375  0.0218 -2.1129
17874TIP3    H275114   3.860   1.225   4.205 -0.6573  0.1125  0.9309
17875TIP3   OH275115   2.040   0.323   5.289  0.4654 -0.1283 -0.1434
17875TIP3    H175116   2.105   0.286   5.349 -0.9527  0.7247  1.9623
17875TIP3    H275117   1.977   0.252   5.275  1.1073 -0.5200 -1.1332
17876TIP3   OH275118   0.716   1.594  14.257 -0.5739 -0.2678  0.2693
17876TIP3    H175119   0.657   1.641  14.317 -2.1183 -1.0701 -0.5953
17876TIP3    H275120   0.768   1.663  14.216 -2.2120  0.6406 -0.3357
17877TIP3   OH275121   5.365   3.808   5.378 -0.6007 -0.6686 -0.4784
17877TIP3    H175122   5.386   3.826   5.470  2.5650 -0.0490 -1.2517
17877TIP3    H275123   5.374   3.893   5.335 -0.5592 -1.2497 -1.6316
17878TIP3   OH275124   4.640   4.717  10.628 -0.2141 -0.1769  0.2590
17878TIP3    H175125   4.639   4.665  10.547 -1.2033  2.4533 -1.5083
17878TIP3    H275126   4.560   4.691  10.674 -2.0480  1.5377 -1.8431
17879TIP3   OH275127   1.712   0.368   0.916  0.0738 -0.0103  0.3973
17879TIP3    H175128   1.654   0.291   0.917  0.7634 -0.5295  1.7712
17879TIP3    H275129   1.784   0.344   0.975 -0.1933  2.0806  1.5988
17880TIP3   OH275130   2.050   6.685   4.145 -0.2527 -0.2762 -0.4977
17880TIP3    H175131   1.982   6.753   4.152  0.2227  0.2580 -1.0588
17880TIP3    H275132   2.103   6.711   4.070 -0.1022 -1.3083 -0.7569
17881TIP3   OH275133   2.540   6.103  17.097 -0.0393 -0.3423 -0.0858
17881TIP3    H175134   2.605   6.174  17.092  0.1651 -0.2917  2.3274
17881TIP3    H275135   2.470   6.139  17.152 -0.0165 -1.9365  1.0325
17882TIP3   OH275136   0.587   3.027   1.231  0.3018 -0.4880  0.0983
17882TIP3    H175137   0.536   3.001   1.155  1.3492 -0.6017 -0.5776
17882TIP3    H275138   0.556   2.971   1.302 -2.0477  0.9464  0.2410
17883TIP3   OH275139   0.450   2.169   2.860 -0.6188  0.2255  0.1392
17883TIP3    H175140   0.383   2.224   2.900  1.6541  2.1307  1.5293
17883TIP3    H275141   0.462   2.206   2.773 -0.5999  0.6093  0.3016
17884TIP3   OH275142   4.714   3.413   1.253 -0.2781  0.2452 -0.7088
17884TIP3    H175143   4.682   3.335   1.208 -0.1324 -1.5026  2.1150
17884TIP3    H275144   4.635   3.465   1.269 -1.3151 -2.1911  2.7005
17885TIP3   OH275145   0.342   0.520  13.191 -0.3358  0.2226  0.5361
17885TIP3    H175146   0.280   0.575  13.144  1.3307 -0.2875 -2.4206
17885TIP3    H275147   0.424   0.570  13.192  0.0819 -0.4593  1.4833
17886TIP3   OH275148   3.623   2.578  15.527 -0.3933  0.4040  0.3033
17886TIP3    H175149   3.599   2.624  15.447  2.8234 -2.3103 -2.3918
17886TIP3    H275150   3.718   2.568  15.521  0.0291  0.5700  4.7748
17887TIP3   OH275151   5.555   0.959  13.239  0.2005 -0.2651  0.1839
17887TIP3    H175152   5.478   0.903  13.248 -0.5630  0.9442  1.3346
17887TIP3    H275153   5.523   1.047  13.260  1.4686  0.5437 -1.2089
17888TIP3   OH275154   4.553   4.979   4.942 -0.1670 -0.1321 -0.5359
17888TIP3    H175155   4.553   5.067   4.905 -0.9043 -0.6478 -1.7890
17888TIP3    H275156   4.575   4.992   5.034  1.3959  1.1978 -1.0785
17889TIP3   OH275157   4.564   2.555  14.609 -0.0293 -0.3494  0.1768
17889TIP3    H175158   4.600   2.480  14.657 -0.0782 -0.7702 -0.4388
17889TIP3    H275159   4.524   2.517  14.531  1.9736  0.5046 -1.3306
17890TIP3   OH275160   5.039   3.988  15.786  0.5087 -0.5984  0.2103
17890TIP3    H175161   5.098   3.996  15.712 -0.5722 -0.6301 -0.6809
17890TIP3    H275162   4.962   4.040  15.761 -0.1397 -1.1487  1.0093
17891TIP3   OH275163   5.635   1.026  10.867  0.1063 -0.3133 -0.1378
17891TIP3    H175164   5.650   1.007  10.774 -0.3123 -1.2241 -0.0187
17891TIP3    H275165   5.636   1.122  10.871 -3.3444 -0.1252 -1.6989
17892TIP3   OH275166   2.139   6.713   3.876 -0.1366 -0.0461  0.1726
17892TIP3    H175167   2.133   6.673   3.789 -1.5809 -0.6664  0.5421
17892TIP3    H275168   2.185   6.796   3.861  1.4828 -1.1096 -0.8503
17893TIP3   OH275169   2.581   1.755  15.616 -0.2149 -0.3876 -0.0622
17893TIP3    H175170   2.504   1.779  15.667 -1.0950 -0.9543 -1.0912
17893TIP3    H275171   2.546   1.704  15.543  1.0535 -0.0130 -0.9551
17894TIP3   OH275172   1.683   2.227   1.375 -0.5148 -0.5730 -0.5218
17894TIP3    H175173   1.609   2.175   1.344  0.2265 -0.4057 -2.6572
17894TIP3    H275174   1.643   2.294   1.432 -1.6983 -2.0628  0.4409
17895TIP3   OH275175   0.424   6.465   5.451  0.3379  0.2651 -0.1931
17895TIP3    H175176   0.463   6.544   5.415  1.5803 -0.0394  0.4802
17895TIP3    H275177   0.338   6.493   5.483 -1.2777  0.3332 -4.2892
17896TIP3   OH275178   1.205   2.991   4.729  0.2724 -0.1407 -0.5062
17896TIP3    H175179   1.226   3.065   4.785 -1.7072 -1.9390  2.7276
17896TIP3    H275180   1.289   2.967   4.688  1.2678  2.6750 -0.2133
17897TIP3   OH275181   4.557   3.585   0.714 -0.2764 -0.3977 -0.3308
17897TIP3    H175182   4.593   3.673   0.700 -1.2767 -0.1544 -1.4234
17897TIP3    H275183   4.541   3.552   0.625 -1.1375 -1.1709  0.1136
17898TIP3   OH275184   0.557   5.709   4.145  0.1224  0.7532 -0.0933
17898TIP3    H175185   0.597   5.708   4.232 -0.2403  0.0352  0.0636
17898TIP3    H275186   0.627   5.681   4.086  0.6539  2.1765 -0.1579
17899TIP3   OH275187   4.918   0.651  13.422 -0.4138 -0.2386  0.1776
17899TIP3    H175188   4.838   0.624  13.376 -0.5039 -0.3942  0.4269
17899TIP3    H275189   4.930   0.743  13.396  0.4602 -0.8061 -1.4692
17900TIP3   OH275190   3.386   3.150  10.578 -0.0702 -0.3289 -0.1583
17900TIP3    H175191   3.386   3.099  10.660  0.9482  2.4986  1.6824
17900TIP3    H275192   3.473   3.135  10.541  0.3539  0.2637  0.5583
17901TIP3   OH275193   1.658   3.512  14.922 -0.4058 -0.5732  0.9140
17901TIP3    H175194   1.686   3.574  14.855 -0.9567 -2.2858 -0.9715
17901TIP3    H275195   1.715   3.529  14.997  0.0399  1.5721  0.1216
17902TIP3   OH275196   4.291   5.339  12.720 -0.1664 -0.1300 -0.2670
17902TIP3    H175197   4.363   5.288  12.684 -0.6046 -3.3837  3.2026
17902TIP3    H275198   4.332   5.418  12.755  1.4738 -1.0924  0.0381
17903TIP3   OH275199   5.847   6.511  10.659  0.0734  0.2955 -0.9145
17903TIP3    H175200   5.844   6.605  10.675  0.0272  0.0179  0.7654
17903TIP3    H275201   5.755   6.484  10.663  0.2057 -0.0284 -0.1302
17904TIP3   OH275202   5.712   1.477  13.750  0.6028  0.1991  0.0999
17904TIP3    H175203   5.694   1.400  13.805 -1.4982 -0.8358 -1.9343
17904TIP3    H275204   5.627   1.517  13.736  1.1820  0.8165 -1.8426
17905TIP3   OH275205   4.794   6.694  15.822  0.2739  0.1624  0.1636
17905TIP3    H175206   4.770   6.692  15.730  0.5978 -0.6213  0.0909
17905TIP3    H275207   4.826   6.783  15.837 -0.4710  0.5111 -0.2947
17906TIP3   OH275208   3.882   4.644  16.602 -0.3127  0.0795 -0.6191
17906TIP3    H175209   3.819   4.667  16.533 -0.1736 -0.6279 -0.9945
17906TIP3    H275210   3.964   4.684  16.574  0.1298 -1.5138 -1.6939
17907TIP3   OH275211   0.894   0.141   4.686  0.0242  0.1467  0.1212
17907TIP3    H175212   0.930   0.222   4.648  1.4221  0.5815  2.3083
17907TIP3    H275213   0.814   0.126   4.636 -0.6736  3.3304  0.1653
17908TIP3   OH275214   6.389   5.390  10.681 -0.6773  0.9457 -0.1888
17908TIP3    H175215   6.461   5.330  10.700  1.2836  2.9887 -0.9461
17908TIP3    H275216   6.381   5.389  10.586 -1.9040  0.4586 -0.0828
17909TIP3   OH275217   5.580   0.353   2.023 -0.0406  0.4224  0.2732
17909TIP3    H175218   5.631   0.337   2.103  0.8528 -1.7431 -0.7102
17909TIP3    H275219   5.538   0.269   2.004 -2.2824  1.6008 -0.1467
17910TIP3   OH275220   5.441   0.750   5.050 -0.1587 -0.1155 -0.3137
17910TIP3    H175221   5.493   0.701   5.113 -0.2244 -0.3317 -0.4257
17910TIP3    H275222   5.350   0.727   5.071 -0.1849 -0.1252 -0.4324
17911TIP3   OH275223   3.686   4.471   3.243  0.4237 -0.1722  0.3552
17911TIP3    H175224   3.734   4.553   3.233  0.9138 -0.4999  0.0724
17911TIP3    H275225   3.617   4.476   3.177 -0.7800  0.9027  1.6431
17912TIP3   OH275226   1.138   2.116  16.979 -0.2070 -0.1040 -0.1173
17912TIP3    H175227   1.088   2.105  16.898  1.2733  1.0590 -1.2337
17912TIP3    H275228   1.147   2.027  17.014 -4.0962 -0.2294  0.8260
17913TIP3   OH275229   3.375   2.350  10.558  0.0412 -0.1033 -0.0577
17913TIP3    H175230   3.291   2.334  10.515  0.4105 -1.7719 -0.1950
17913TIP3    H275231   3.389   2.444  10.549 -1.9621  0.2507  0.2533
17914TIP3   OH275232   0.300   0.079   0.824 -0.5371  0.1550 -0.1158
17914TIP3    H175233   0.215   0.124   0.822 -0.4535  0.5008  2.6739
17914TIP3    H275234   0.292   0.015   0.895  1.4602  0.0511  0.0345
17915TIP3   OH275235   0.363   2.155   3.909  0.2211  0.3010  0.0514
17915TIP3    H175236   0.302   2.134   3.839  0.1995  0.1333  0.1212
17915TIP3    H275237   0.449   2.146   3.869  0.2304 -0.5675  0.2618
17916TIP3   OH275238   0.831   6.217  13.219 -0.2052 -0.7422  0.0793
17916TIP3    H175239   0.774   6.281  13.176  1.0021  0.5629  0.4136
17916TIP3    H275240   0.909   6.212  13.164  0.2536 -0.9841  0.7442
17917TIP3   OH275241   0.876   5.315  13.793  0.4590  0.0438 -0.5756
17917TIP3    H175242   0.941   5.289  13.728 -1.6446  2.1047 -3.6483
17917TIP3    H275243   0.914   5.392  13.836  2.4758 -2.1596  1.7684
17918TIP3   OH275244   4.157   0.321  16.267 -0.6074 -0.2214  0.0505
17918TIP3    H175245   4.183   0.335  16.176 -0.4297 -2.5710 -0.2728
17918TIP3    H275246   4.237   0.292  16.310 -0.6462  1.0721  1.0322
17919TIP3   OH275247   3.365   2.729   6.876  0.1378  0.0125  0.1893
17919TIP3    H175248   3.341   2.813   6.915 -2.3508 -0.0448 -1.1270
17919TIP3    H275249   3.411   2.751   6.795  1.1876  0.1108  0.8118
17920TIP3   OH275250   6.246   5.907  10.302 -0.2207 -0.2117 -0.4385
17920TIP3    H175251   6.192   5.832  10.280 -0.6003 -0.3754  0.9709
17920TIP3    H275252   6.335   5.880  10.280 -0.3330 -1.1653  0.2406
17921TIP3   OH275253   2.757   6.717  10.617 -0.1400  0.0957 -0.0841
17921TIP3    H175254   2.851   6.735  10.622  0.0121 -0.5046 -0.7185
17921TIP3    H275255   2.744   6.641  10.674 -0.4280  0.8670  0.8863
17922TIP3   OH275256   4.344   2.971  11.973  0.3596 -0.0625  0.4900
17922TIP3    H175257   4.384   3.056  11.953  1.4182 -1.4000 -3.5086
17922TIP3    H275258   4.384   2.945  12.056  1.9314  2.1801  0.4830
17923TIP3   OH275259   2.571   0.789   0.468 -0.2904  0.2843  0.0529
17923TIP3    H175260   2.562   0.829   0.381 -1.9774  2.3601  1.1323
17923TIP3    H275261   2.662   0.807   0.493  0.5545 -1.3146 -1.7103
17924TIP3   OH275262   1.809   5.435   4.339  0.7649  0.3316  0.0748
17924TIP3    H175263   1.732   5.461   4.388  1.0429  1.2688  0.0202
17924TIP3    H275264   1.783   5.441   4.247  1.4348  2.4197 -0.0105
17925TIP3   OH275265   0.662   6.105  15.763 -0.4609  0.4558  0.5963
17925TIP3    H175266   0.692   6.111  15.672  0.0741 -1.2635  0.6463
17925TIP3    H275267   0.573   6.072  15.757 -0.0319 -0.7786  0.7160
17926TIP3   OH275268   4.199   6.318  11.461  0.2241  0.1046  0.1414
17926TIP3    H175269   4.224   6.236  11.418 -0.7403  0.6029 -1.3814
17926TIP3    H275270   4.104   6.318  11.460  0.2152  1.2826  0.0503
17927TIP3   OH275271   0.278   2.837   3.268 -0.0053 -0.3749 -0.6919
17927TIP3    H175272   0.224   2.786   3.328  0.1227 -0.0234 -0.2749
17927TIP3    H275273   0.294   2.919   3.314  3.2300 -1.5524  0.4131
17928TIP3   OH275274   1.945   2.601   3.659 -0.6809 -0.2042 -1.0925
17928TIP3    H175275   1.986   2.643   3.583  1.6941 -2.1094 -0.9211
17928TIP3    H275276   1.879   2.664   3.688  1.6103  2.6867 -1.8603
17929TIP3   OH275277   2.281   1.008  13.682 -0.3145 -0.0980  0.0949
17929TIP3    H175278   2.294   0.959  13.601 -0.9221  1.5023 -1.0092
17929TIP3    H275279   2.187   1.008  13.696 -0.2194 -0.2647  0.7272
17930TIP3   OH275280   1.394   2.199  12.329  0.6607  0.0777 -0.5442
17930TIP3    H175281   1.383   2.292  12.345 -0.0085  0.0511 -0.8512
17930TIP3    H275282   1.305   2.165  12.322  0.8700 -0.8064  0.8828
17931TIP3   OH275283   5.608   5.994   0.822 -1.1388 -0.7231  0.0248
17931TIP3    H175284   5.624   6.085   0.846  0.7972 -1.4212  1.5511
17931TIP3    H275285   5.519   5.976   0.852 -1.1988  0.4061  0.5259
17932TIP3   OH275286   1.658   3.792  15.889 -0.2771  0.1969  0.1989
17932TIP3    H175287   1.710   3.726  15.935 -1.8383  0.1514  2.0047
17932TIP3    H275288   1.700   3.802  15.804  1.9184 -0.7233  1.1417
17933TIP3   OH275289   4.947   4.446  14.193 -0.1031  0.2387  0.2560
17933TIP3    H175290   4.960   4.491  14.277  0.6512  1.3475 -0.4434
17933TIP3    H275291   5.035   4.434  14.158 -0.4505  0.3383 -0.6622
17934TIP3   OH275292   4.719   0.744  12.167 -0.8862  0.0062  0.2552
17934TIP3    H175293   4.767   0.793  12.234  0.1385 -1.8152  0.8708
17934TIP3    H275294   4.703   0.659  12.206 -1.5233 -0.5977 -1.2874
17935TIP3   OH275295   4.197   1.575   1.751  0.1709  0.4850 -0.4061
17935TIP3    H175296   4.227   1.540   1.835  0.4637 -0.5294 -0.9423
17935TIP3    H275297   4.112   1.533   1.736  0.7482 -0.3636 -1.2868
17936TIP3   OH275298   1.309   2.621  11.109 -0.3317  0.0449  0.2069
17936TIP3    H175299   1.357   2.623  11.192 -0.8812  1.0422  0.5012
17936TIP3    H275300   1.284   2.529  11.098  1.1848 -0.3843  0.3136
17937TIP3   OH275301   4.008   1.710   0.087 -0.5513  0.0128  0.3391
17937TIP3    H175302   3.992   1.654   0.163 -0.9735  1.6524  1.4773
17937TIP3    H275303   4.015   1.799   0.123  2.1709  0.4697 -1.1666
17938TIP3   OH275304   3.532   5.044  15.645  0.1196 -0.0459  0.8193
17938TIP3    H175305   3.591   5.022  15.574  0.7909  0.8445  1.0964
17938TIP3    H275306   3.523   4.963  15.695  1.9831  0.0797  1.4004
17939TIP3   OH275307   1.799   5.831  12.027 -0.2649 -0.1961 -0.3299
17939TIP3    H175308   1.881   5.840  11.979 -0.7379  1.3734 -0.8895
17939TIP3    H275309   1.734   5.810  11.961 -0.7559  1.0734 -0.2675
17940TIP3   OH275310   0.388   0.703  14.646 -0.3194 -0.5009  0.0183
17940TIP3    H175311   0.432   0.783  14.676  0.3339 -1.1987  0.9798
17940TIP3    H275312   0.362   0.721  14.556  3.5700 -0.6882 -1.2236
17941TIP3   OH275313   2.909   5.333  13.935  0.5582 -0.5540  0.5349
17941TIP3    H175314   2.896   5.400  14.001 -1.4520 -1.9573  1.5863
17941TIP3    H275315   2.879   5.252  13.975 -1.3898 -1.3335 -2.3327
17942TIP3   OH275316   4.090   4.235  14.136  0.0615  0.4006 -0.0153
17942TIP3    H175317   4.118   4.327  14.138  0.4267  0.2744  2.2356
17942TIP3    H275318   4.157   4.191  14.084 -0.3019  1.4438 -1.4114
17943TIP3   OH275319   1.445   5.225   2.101 -1.1733  0.0904  0.2411
17943TIP3    H175320   1.368   5.180   2.066 -1.9738 -0.6671  2.8172
17943TIP3    H275321   1.408   5.296   2.155  0.0101  1.3760 -0.6116
17944TIP3   OH275322   3.018   5.862  16.233  0.3161  0.8090 -0.1916
17944TIP3    H175323   3.073   5.794  16.274 -1.4398  1.8681  4.1824
17944TIP3    H275324   2.942   5.814  16.201  0.2004  0.3892  0.7000
17945TIP3   OH275325   2.957   2.209  11.644  0.1200  0.4475 -0.0763
17945TIP3    H175326   2.941   2.124  11.684  1.9777  0.1653  0.0912
17945TIP3    H275327   2.903   2.270  11.695 -0.4967 -0.4897  0.3884
17946TIP3   OH275328   1.315   4.366  15.581  0.5339 -0.3729  0.0170
17946TIP3    H175329   1.404   4.374  15.546  0.4527 -0.8416 -0.3019
17946TIP3    H275330   1.261   4.350  15.504  0.1991 -0.3043  0.2376
17947TIP3   OH275331   6.151   0.455   6.621 -0.3207  0.1937 -0.2769
17947TIP3    H175332   6.057   0.470   6.636  0.0337  0.5251  1.7053
17947TIP3    H275333   6.181   0.536   6.579 -0.7379  0.4259 -0.1333
17948TIP3   OH275334   3.508   2.630   2.979 -0.3937  0.1932 -0.9706
17948TIP3    H175335   3.488   2.537   2.985 -1.6931  0.5099 -0.2435
17948TIP3    H275336   3.577   2.635   2.912  1.6186 -1.5454  0.8962
17949TIP3   OH275337   5.811   4.262  12.298 -0.1403  0.5976 -0.0863
17949TIP3    H175338   5.850   4.232  12.216  0.4417  2.9207 -0.6812
17949TIP3    H275339   5.871   4.232  12.366 -0.6021 -1.2952 -0.4774
17950TIP3   OH275340   3.344   4.410  13.728 -0.1034  0.2003 -0.8142
17950TIP3    H175341   3.421   4.431  13.781  1.4513 -0.1102 -2.9309
17950TIP3    H275342   3.272   4.455  13.773  1.3159  0.6691  1.0725
17951TIP3   OH275343   4.731   4.818  11.732  0.3686 -0.5333 -0.3405
17951TIP3    H175344   4.694   4.844  11.648  0.6272 -0.7353 -0.5174
17951TIP3    H275345   4.671   4.751  11.765 -1.7153  2.0362  1.2781
17952TIP3   OH275346   1.451   0.637   0.431 -0.1689  0.5480 -0.8137
17952TIP3    H175347   1.485   0.726   0.421  1.6045  0.1696  1.2460
17952TIP3    H275348   1.450   0.601   0.343  1.6147  1.7452 -1.3463
17953TIP3   OH275349   4.761   2.876   4.243 -0.4055 -0.2098  0.4152
17953TIP3    H175350   4.734   2.874   4.335  0.1855 -1.9304  0.5561
17953TIP3    H275351   4.834   2.938   4.241 -1.0141  0.5427  0.9269
17954TIP3   OH275352   1.410   5.976   0.052  0.1826  0.1790  0.0347
17954TIP3    H175353   1.455   5.915   0.110 -0.9076  1.5478  2.4348
17954TIP3    H275354   1.325   5.935   0.034 -0.1381  0.4932  0.7992
17955TIP3   OH275355   6.665   0.201   3.003  0.9065  0.8460 -0.3555
17955TIP3    H175356   6.604   0.245   2.945  0.3556 -0.6543 -0.9461
17955TIP3    H275357   6.647   0.237   3.090  0.3776  1.6547 -0.7983
17956TIP3   OH275358   6.197   1.129  11.439 -0.0568  0.4898  0.6506
17956TIP3    H175359   6.138   1.140  11.514 -1.8636 -0.1967 -0.6180
17956TIP3    H275360   6.279   1.097  11.477 -0.9299  0.1882  2.3321
17957TIP3   OH275361   2.339   2.812  14.720  0.2567  0.6823 -0.3941
17957TIP3    H175362   2.347   2.722  14.752  0.9685  0.1974 -1.9074
17957TIP3    H275363   2.396   2.815  14.643  1.2896  2.8014  0.4155
17958TIP3   OH275364   3.893   6.712   1.793 -0.7384  0.3549 -0.0600
17958TIP3    H175365   3.866   6.621   1.797  1.0221 -0.1915 -0.1626
17958TIP3    H275366   3.957   6.722   1.864  1.1169  0.7868 -1.7509
17959TIP3   OH275367   6.233   5.084   3.001  0.0714 -0.1184 -0.9311
17959TIP3    H175368   6.200   5.074   3.091  2.1006  1.8886  0.0944
17959TIP3    H275369   6.235   4.995   2.967  0.4769 -1.0938  1.4858
17960TIP3   OH275370   4.553   3.383  14.029 -0.2840 -0.0632 -0.4237
17960TIP3    H175371   4.580   3.323  14.098  0.5021 -1.1178 -1.6345
17960TIP3    H275372   4.572   3.337  13.948 -0.0443  1.6618 -1.3695
17961TIP3   OH275373   3.410   0.613   0.385 -0.2537  0.3671  0.4800
17961TIP3    H175374   3.326   0.586   0.423 -1.0330  0.6601 -0.9858
17961TIP3    H275375   3.397   0.705   0.363  1.0828  0.9178  1.9115
17962TIP3   OH275376   1.017   6.386  13.548 -0.2544 -0.2037 -0.1257
17962TIP3    H175377   1.070   6.450  13.500 -0.4742  0.3253  0.3392
17962TIP3    H275378   1.064   6.303  13.536  0.3965  0.1661 -0.1586
17963TIP3   OH275379   2.787   6.572   0.213 -0.8501 -0.1631 -0.1722
17963TIP3    H175380   2.770   6.522   0.292  0.9428 -1.6854 -0.7215
17963TIP3    H275381   2.734   6.530   0.145  0.0941 -0.8724 -0.4748
17964TIP3   OH275382   0.453   1.894  17.058  0.4911 -0.1982  0.0059
17964TIP3    H175383   0.547   1.890  17.078  0.4419 -1.9365  0.0212
17964TIP3    H275384   0.432   1.805  17.029 -1.0082  0.3700 -0.6596
17965TIP3   OH275385   1.976   2.719  16.686  0.5416  0.5098 -0.3824
17965TIP3    H175386   2.044   2.716  16.752 -0.4926  0.3418  0.6799
17965TIP3    H275387   1.895   2.736  16.734  0.1230  2.8984 -1.8310
17966TIP3   OH275388   0.016   0.408  12.023  0.0092 -0.1846  0.1595
17966TIP3    H175389   0.087   0.419  12.087 -0.4506  1.8550  0.3375
17966TIP3    H275390   0.011   0.313  12.010  2.0822 -0.4308  0.9145
17967TIP3   OH275391   0.443   5.161  10.577  0.2060  0.2067  0.2049
17967TIP3    H175392   0.356   5.134  10.550 -0.1353  0.3656  1.1250
17967TIP3    H275393   0.435   5.179  10.671  0.7362  2.1874 -0.1066
17968TIP3   OH275394   5.275   3.763  14.162  0.8222 -0.0351  0.1707
17968TIP3    H175395   5.194   3.808  14.140 -0.3158 -0.9026  2.4326
17968TIP3    H275396   5.344   3.819  14.127 -0.5960  2.7958  1.7066
17969TIP3   OH275397   3.725   6.389   0.180  0.8021  0.0465  0.4930
17969TIP3    H175398   3.710   6.458   0.245 -0.0139 -0.3843  0.7506
17969TIP3    H275399   3.774   6.434   0.110  0.5865  0.8026  0.8193
17970TIP3   OH275400   3.826   3.186  15.664 -0.4605  0.2851  0.2666
17970TIP3    H175401   3.894   3.199  15.730  0.3025 -0.8567 -0.2801
17970TIP3    H275402   3.787   3.102  15.687 -1.1745  0.5795  0.1271
17971TIP3   OH275403   6.667   4.581   2.979 -0.1282 -0.3101  0.3206
17971TIP3    H175404   6.581   4.562   2.943 -0.4337  0.1946  0.7702
17971TIP3    H275405   6.663   4.550   3.069  0.0895 -0.0951  0.4061
17972TIP3   OH275406   4.930   2.450  13.088 -0.0670  0.1378 -0.6366
17972TIP3    H175407   4.941   2.494  13.172  1.5051 -1.3311 -0.0394
17972TIP3    H275408   5.019   2.426  13.062 -0.5741  0.2265 -2.5411
17973TIP3   OH275409   2.167   6.071   6.463 -0.1376 -0.1231 -0.1713
17973TIP3    H175410   2.120   6.021   6.530 -0.5144  0.8336  0.2849
17973TIP3    H275411   2.259   6.051   6.477 -0.1560  0.6346  1.1037
17974TIP3   OH275412   0.556   3.554  11.990 -0.2360  0.2577  0.0756
17974TIP3    H175413   0.484   3.511  12.035 -1.1821  2.3780  0.6854
17974TIP3    H275414   0.535   3.546  11.897  0.1054 -1.4027  0.1346
17975TIP3   OH275415   3.461   2.463   0.069  0.5464 -0.5634 -0.2992
17975TIP3    H175416   3.505   2.547   0.056  0.0739 -0.3838 -0.7901
17975TIP3    H275417   3.406   2.477   0.146  0.5786 -0.4672 -0.2932
17976TIP3   OH275418   2.647   2.504   6.043 -0.3176 -0.5407 -0.2509
17976TIP3    H175419   2.654   2.523   5.949 -0.2108  1.7815  0.2010
17976TIP3    H275420   2.555   2.484   6.057 -0.5461  0.2395 -0.6506
17977TIP3   OH275421   3.733   2.874  15.100 -0.1101 -0.2572  0.4818
17977TIP3    H175422   3.702   2.786  15.115  0.1426 -0.5994 -0.8989
17977TIP3    H275423   3.829   2.866  15.098 -0.0832  0.0463  0.4211
17978TIP3   OH275424   0.262   3.552  14.848 -0.5935 -0.8783 -0.8196
17978TIP3    H175425   0.345   3.578  14.887 -0.8255 -1.4480  0.0570
17978TIP3    H275426   0.286   3.513  14.764 -0.0795  0.1563 -1.1604
17979TIP3   OH275427   2.017   1.237  13.872 -0.1113  0.0650  0.3824
17979TIP3    H175428   2.076   1.304  13.907 -0.6695  0.9989 -0.4348
17979TIP3    H275429   2.051   1.154  13.907  1.2346  0.6616  0.5157
17980TIP3   OH275430   3.212   2.941  14.032  0.3492 -0.3855 -0.4445
17980TIP3    H175431   3.189   2.875  13.967 -1.1564  0.1022 -0.4270
17980TIP3    H275432   3.193   3.025  13.989 -1.3584 -0.0659  0.8483
17981TIP3   OH275433   4.534   0.188   1.085  0.0956  0.2411  0.2018
17981TIP3    H175434   4.466   0.150   1.030 -0.8508 -1.3607  2.4244
17981TIP3    H275435   4.494   0.270   1.118  0.2406  0.6294 -0.5789
17982TIP3   OH275436   5.497   2.060  16.965 -0.1890  0.0309  0.2474
17982TIP3    H175437   5.494   1.991  17.031  1.7908  0.8672  1.2721
17982TIP3    H275438   5.575   2.040  16.914 -1.8792 -0.7922 -2.0948
17983TIP3   OH275439   2.113   3.199   1.453  0.3744 -0.0312 -0.6084
17983TIP3    H175440   2.172   3.269   1.481  0.6888 -1.0596  1.4344
17983TIP3    H275441   2.026   3.237   1.459  0.4735 -0.0709  1.3907
17984TIP3   OH275442   3.010   1.531   6.042  0.0728  0.0591 -0.2355
17984TIP3    H175443   2.969   1.445   6.034  0.4788 -0.1403 -0.1799
17984TIP3    H275444   2.969   1.571   6.119  0.3235 -0.3309  0.1023
17985TIP3   OH275445   2.914   5.180   2.927 -0.4287  0.5183  0.1585
17985TIP3    H175446   2.860   5.242   2.879 -0.3940  0.6399  0.2749
17985TIP3    H275447   2.952   5.232   2.999  0.2461  0.5590 -0.2216
17986TIP3   OH275448   0.009   0.052   0.859  0.6554  0.2097  0.3117
17986TIP3    H175449   0.004  -0.038   0.890 -0.6337  0.3644  0.5831
17986TIP3    H275450  -0.031   0.050   0.772  0.1742  0.6156  0.5236
17987TIP3   OH275451   1.431   2.278   3.532  0.2141  0.4349  0.1574
17987TIP3    H175452   1.345   2.296   3.495  0.0524  0.1825  0.4088
17987TIP3    H275453   1.423   2.191   3.571  1.0294 -0.2904 -1.2291
17988TIP3   OH275454   0.120   6.604  16.590  0.7373 -0.1843  0.3622
17988TIP3    H175455   0.170   6.536  16.634  0.8861 -1.1165 -1.1932
17988TIP3    H275456   0.053   6.630  16.653 -0.5986 -3.1978  0.2856
17989TIP3   OH275457   1.592   4.859  13.162  0.0993  0.1059  0.3660
17989TIP3    H175458   1.674   4.817  13.186 -0.7035 -1.1995  0.9202
17989TIP3    H275459   1.567   4.818  13.079 -0.5692 -0.3846  0.7946
17990TIP3   OH275460   1.454   6.141  11.922 -0.0423  0.5598  0.0749
17990TIP3    H175461   1.454   6.096  12.007 -0.0952 -0.8590 -0.6517
17990TIP3    H275462   1.377   6.106  11.877  0.1579  1.0813 -0.6789
17991TIP3   OH275463   1.503   6.491  12.769  0.6117 -0.6055 -0.1612
17991TIP3    H175464   1.436   6.558  12.755 -1.1297 -2.6449 -1.9768
17991TIP3    H275465   1.486   6.458  12.857 -1.2168 -1.5268 -0.8302
17992TIP3   OH275466   2.014   5.989   4.030  0.0730 -0.1314 -0.4215
17992TIP3    H175467   2.080   5.974   4.098  1.6798 -0.7645 -2.0585
17992TIP3    H275468   2.003   5.903   3.988 -0.1275  0.4689 -1.6228
17993TIP3   OH275469   6.593   4.818  14.281  0.0008 -0.8427 -0.1056
17993TIP3    H175470   6.613   4.884  14.215  0.1240 -1.0400 -0.2644
17993TIP3    H275471   6.531   4.759  14.239 -2.7858  1.0521  1.1127
17994TIP3   OH275472   5.767   0.572   6.399 -0.8038 -0.3900  0.5711
17994TIP3    H175473   5.717   0.500   6.363 -2.1674  0.3834  0.8793
17994TIP3    H275474   5.702   0.627   6.443 -0.2621  2.5805 -2.1346
17995TIP3   OH275475   2.477   0.230  12.469  0.5664  0.7021 -0.1346
17995TIP3    H175476   2.415   0.160  12.450  1.0298  0.5822 -1.2055
17995TIP3    H275477   2.489   0.225  12.564 -0.7980  0.5160  0.0492
17996TIP3   OH275478   6.465   6.056  12.171 -0.2657 -0.1154 -0.3398
17996TIP3    H175479   6.464   6.147  12.141 -0.0840  0.1579  0.4508
17996TIP3    H275480   6.472   6.004  12.091 -1.3899  0.5267 -0.8733
17997TIP3   OH275481   6.660   3.946   1.417 -0.3335  0.0364 -0.6502
17997TIP3    H175482   6.669   3.955   1.512  0.8639 -0.5986 -0.6891
17997TIP3    H275483   6.567   3.963   1.400 -0.7444 -0.7518  0.7307
17998TIP3   OH275484   0.603   5.857   2.997  1.2149 -0.1908 -0.6072
17998TIP3    H175485   0.549   5.902   2.932 -1.1319 -0.4427  1.0988
17998TIP3    H275486   0.591   5.907   3.078  1.1842 -1.9640  0.5139
17999TIP3   OH275487   1.705   0.307  12.336 -0.3056 -0.1892 -0.0020
17999TIP3    H175488   1.739   0.388  12.374  0.4446 -0.2952 -0.4323
17999TIP3    H275489   1.680   0.253  12.411 -0.4995  0.3100  0.2903
18000TIP3   OH275490   4.686   2.296  14.669 -0.1810 -0.9654 -0.3462
18000TIP3    H175491   4.639   2.214  14.684  0.0521 -1.3266 -1.4920
18000TIP3    H275492   4.776   2.269  14.655 -0.1602 -0.5499 -1.0410
18001TIP3   OH275493   4.610   3.600  17.083  0.2086  0.2719 -0.6476
18001TIP3    H175494   4.701   3.628  17.069 -0.1741  2.3110  0.6410
18001TIP3    H275495   4.615   3.541  17.159  0.4390  0.4520 -0.5236
18002TIP3   OH275496   6.378   3.365   5.433  0.2832 -0.4575 -0.2421
18002TIP3    H175497   6.299   3.378   5.380 -0.1637 -0.1086  0.4938
18002TIP3    H275498   6.404   3.454   5.458  0.9070 -0.5731 -0.4737
18003TIP3   OH275499   5.279   1.963   5.549  0.0898 -0.2527 -0.0955
18003TIP3    H175500   5.311   1.933   5.634  1.9640 -0.1406 -0.7390
18003TIP3    H275501   5.234   1.886   5.512  2.0827 -1.3425 -0.3572
18004TIP3   OH275502   2.085   2.679   1.161 -0.8170  0.0105  0.1515
18004TIP3    H175503   2.075   2.764   1.204 -1.2750  0.6574 -1.2269
18004TIP3    H275504   2.164   2.642   1.200 -1.2406  0.5688  1.5733
18005TIP3   OH275505   4.688   5.984   0.140 -0.3752  0.6680  0.1695
18005TIP3    H175506   4.635   6.064   0.151  0.0274  0.8611  0.7544
18005TIP3    H275507   4.630   5.923   0.095 -0.6989  1.2840 -0.2539
18006TIP3   OH275508   2.497   3.688  15.169  0.9985 -0.1935 -0.5873
18006TIP3    H175509   2.555   3.625  15.212  0.3288  0.4560  1.3573
18006TIP3    H275510   2.409   3.655  15.187  0.7256 -0.2578 -2.0392
18007TIP3   OH275511   0.309   1.291   6.284 -0.2064  0.8838 -0.2548
18007TIP3    H175512   0.370   1.338   6.340 -0.2972  1.2209 -0.4387
18007TIP3    H275513   0.324   1.199   6.305 -0.9008  1.0510  1.0045
18008TIP3   OH275514   3.569   3.519  14.016  0.0446  0.5524  0.1418
18008TIP3    H175515   3.655   3.556  14.036 -0.2495  1.0406  0.5004
18008TIP3    H275516   3.517   3.535  14.095  0.4215 -2.1425  1.0027
18009TIP3   OH275517   1.924   4.013   5.175  0.1063  0.6207 -0.4847
18009TIP3    H175518   1.894   4.102   5.190  0.7278  0.5778  1.1240
18009TIP3    H275519   1.866   3.959   5.230  1.5118  0.3090  0.7215
18010TIP3   OH275520   1.698   2.346   0.431  0.0739  0.2102  0.3217
18010TIP3    H175521   1.612   2.356   0.389 -0.1590 -1.5825  0.3048
18010TIP3    H275522   1.684   2.373   0.522 -0.6455 -0.5708  0.4492
18011TIP3   OH275523   3.331   0.021  16.113  0.1659 -0.2156  0.4469
18011TIP3    H175524   3.276   0.089  16.076  0.9883  1.2568  1.8664
18011TIP3    H275525   3.332   0.039  16.207  0.0486 -2.4497  0.8979
18012TIP3   OH275526   3.554   6.081  12.539  0.6849  0.0586 -0.5619
18012TIP3    H175527   3.630   6.095  12.596 -1.7283 -1.0825  3.1099
18012TIP3    H275528   3.530   6.169  12.509  2.7519  0.5379 -0.8779
18013TIP3   OH275529   1.119   0.631  14.524 -0.2907 -0.2651  0.0854
18013TIP3    H175530   1.189   0.575  14.491  0.9182  1.1107  0.2582
18013TIP3    H275531   1.081   0.672  14.446 -1.1043 -1.2232 -0.0333
18014TIP3   OH275532   4.676   5.722   6.188 -0.4704 -0.2839  0.1089
18014TIP3    H175533   4.617   5.649   6.168  0.0744 -0.4601 -0.9128
18014TIP3    H275534   4.638   5.763   6.265 -2.0537 -0.2573 -0.6621
18015TIP3   OH275535   0.358   5.631   2.679 -0.0812 -0.5455 -0.0423
18015TIP3    H175536   0.312   5.557   2.717  1.5917 -1.5967 -0.0234
18015TIP3    H275537   0.445   5.629   2.719  0.0058  1.4043 -0.0718
18016TIP3   OH275538   6.492   5.586  16.531  0.6590 -0.1596  0.6039
18016TIP3    H175539   6.510   5.636  16.451 -0.0511  0.9925  1.1532
18016TIP3    H275540   6.397   5.591  16.542  0.4498 -2.6063  0.0474
18017TIP3   OH275541   6.066   6.653  12.434  0.2388 -0.7123 -0.3226
18017TIP3    H175542   6.039   6.669  12.524 -0.1570  2.2513 -0.8955
18017TIP3    H275543   6.004   6.588  12.401  1.3712 -3.0535  1.9651
18018TIP3   OH275544   0.200   4.326  13.414  0.0474 -0.1598  0.9705
18018TIP3    H175545   0.144   4.265  13.367  0.0357  1.0562 -0.6557
18018TIP3    H275546   0.289   4.294  13.399 -0.0342 -0.4846  1.1792
18019TIP3   OH275547   3.292   0.778  14.685  0.1207  0.5384  0.4417
18019TIP3    H175548   3.385   0.798  14.673  0.3438 -0.6757  0.1382
18019TIP3    H275549   3.281   0.771  14.780  0.2531  1.0694  0.4977
18020TIP3   OH275550   6.742   0.990  16.534 -0.1731  0.7175  0.3031
18020TIP3    H175551   6.796   0.917  16.502 -1.1539  0.0635  0.0955
18020TIP3    H275552   6.777   1.009  16.621  0.9604  0.8941 -0.1754
18021TIP3   OH275553   6.478   3.873  14.315 -0.2444  0.2052 -0.4280
18021TIP3    H175554   6.429   3.955  14.316  0.9073  0.8964  0.7235
18021TIP3    H275555   6.443   3.823  14.389 -0.1435  0.1371 -0.4258
18022TIP3   OH275556   3.808   3.869   0.327 -0.0902 -0.4065  0.2177
18022TIP3    H175557   3.828   3.791   0.276 -3.1877 -0.5171 -0.9141
18022TIP3    H275558   3.820   3.841   0.418  3.1419 -0.8763 -0.2887
18023TIP3   OH275559   3.760   0.607   4.872 -0.2323 -0.4593  0.1268
18023TIP3    H175560   3.823   0.583   4.940 -0.2090 -1.7870 -0.3499
18023TIP3    H275561   3.811   0.614   4.792 -0.2173  1.3773  0.2697
18024TIP3   OH275562   3.298   6.615   4.874  0.2498 -0.0616  0.4064
18024TIP3    H175563   3.386   6.631   4.841  1.0639 -3.7102  0.5560
18024TIP3    H275564   3.280   6.524   4.850 -3.1618  0.3659  1.0980
18025TIP3   OH275565   5.818   5.076   0.376 -0.5014 -0.1478  0.0517
18025TIP3    H175566   5.764   5.000   0.398 -3.5322  1.3872 -1.8110
18025TIP3    H275567   5.865   5.096   0.457  0.5604 -4.1246  0.4876
18026TIP3   OH275568   6.172   4.671  10.529 -0.1017 -0.1291  0.2354
18026TIP3    H175569   6.224   4.724  10.589 -1.6353  0.1529  1.3647
18026TIP3    H275570   6.208   4.583  10.537 -0.0681 -0.0297  1.3575
18027TIP3   OH275571   4.996   3.623  15.901 -0.8253 -0.2186 -0.1120
18027TIP3    H175572   5.029   3.678  15.972 -0.7212  0.2318 -0.5044
18027TIP3    H275573   4.903   3.645  15.896 -1.0395 -0.9672  0.5280
18028TIP3   OH275574   5.366   2.771  11.656 -0.0671  0.5113  0.6901
18028TIP3    H175575   5.296   2.749  11.717 -0.7708 -0.0463 -0.2998
18028TIP3    H275576   5.352   2.864  11.637 -2.2391 -0.2280 -1.5995
18029TIP3   OH275577   3.459   6.097   0.606 -0.1542  0.1892  0.3997
18029TIP3    H175578   3.375   6.136   0.579 -0.5387 -0.4970  0.6010
18029TIP3    H275579   3.498   6.162   0.664 -0.7932  0.2896  0.7249
18030TIP3   OH275580   3.134   4.605   1.601  0.3249  0.3092 -0.5376
18030TIP3    H175581   3.155   4.631   1.512  1.8377  1.9452  0.2634
18030TIP3    H275582   3.116   4.688   1.646 -2.2391 -0.6261  0.2352
18031TIP3   OH275583   5.951   3.990  11.475 -0.1371  0.2539  0.5159
18031TIP3    H175584   5.969   3.922  11.410  0.9150  0.2869  0.7540
18031TIP3    H275585   5.918   4.064  11.424  0.1530  0.0865  0.0799
18032TIP3   OH275586   4.570   4.763  11.479  0.0221  0.0304  0.0955
18032TIP3    H175587   4.623   4.714  11.416 -1.7956 -0.2810 -1.2067
18032TIP3    H275588   4.543   4.698  11.543 -2.0142 -0.6149 -1.3852
18033TIP3   OH275589   2.981   3.049   3.461 -0.6736 -0.3463 -0.2954
18033TIP3    H175590   3.071   3.079   3.460 -0.4214 -1.1064 -0.9655
18033TIP3    H275591   2.987   2.953   3.456 -1.5147 -0.3841 -0.6686
18034TIP3   OH275592   6.194   6.311   0.593  0.6275  0.2329  0.0528
18034TIP3    H175593   6.192   6.392   0.645  1.6456  1.5539 -1.8935
18034TIP3    H275594   6.110   6.310   0.547  0.5570  0.1166  0.1868
18035TIP3   OH275595   4.889   6.501   2.599 -0.1535 -0.9725 -0.3231
18035TIP3    H175596   4.964   6.549   2.567 -1.3609 -0.7109 -2.8850
18035TIP3    H275597   4.878   6.530   2.689  2.3049 -0.4337 -0.1777
18036TIP3   OH275598   6.608   6.112  12.391 -0.0013 -0.2810  0.3887
18036TIP3    H175599   6.604   6.204  12.418  3.6042 -0.3544  1.5147
18036TIP3    H275600   6.538   6.102  12.327 -0.2491  3.3365  0.0057
18037TIP3   OH275601   4.378   0.289  14.743 -0.6363  0.7203  0.2243
18037TIP3    H175602   4.355   0.325  14.657  0.7411 -1.7720 -1.2497
18037TIP3    H275603   4.312   0.221  14.758 -0.1692  0.3510  0.5872
18038TIP3   OH275604   6.590   4.815  16.663  0.1375 -0.5796  0.0780
18038TIP3    H175605   6.504   4.774  16.671 -0.1202 -0.0551 -0.0221
18038TIP3    H275606   6.617   4.832  16.754 -1.3442  2.3378  0.0317
18039TIP3   OH275607   3.863   5.450   4.426  0.3192 -0.1555 -0.3078
18039TIP3    H175608   3.826   5.538   4.422  0.6435  0.1027  1.7794
18039TIP3    H275609   3.788   5.393   4.440  0.3009 -0.0184  0.1603
18040TIP3   OH275610   0.903   5.005   0.267 -0.0557  0.3748  0.5213
18040TIP3    H175611   0.983   4.961   0.295 -0.0103  0.9881  1.3638
18040TIP3    H275612   0.932   5.087   0.229 -0.3272  1.0059  1.6359
18041TIP3   OH275613   5.613   6.040   1.656  0.3166  1.0006 -0.1326
18041TIP3    H175614   5.649   6.086   1.580  2.1666  1.0525  0.7455
18041TIP3    H275615   5.656   6.081   1.731  0.7506 -1.0337  0.7699
18042TIP3   OH275616   5.066   2.665  13.960 -0.2940 -0.5477  0.3856
18042TIP3    H175617   4.971   2.665  13.973 -0.1518 -0.8869  1.4560
18042TIP3    H275618   5.083   2.588  13.905 -0.7171 -0.0407 -0.4700
18043TIP3   OH275619   2.295   6.355  12.084  0.1420  0.0696  0.0037
18043TIP3    H175620   2.322   6.406  12.008 -0.4401 -1.9777 -1.6197
18043TIP3    H275621   2.200   6.370  12.090 -0.2080 -1.5618 -1.0912
18044TIP3   OH275622   3.192   4.035   0.914 -0.4078 -0.1720  0.1640
18044TIP3    H175623   3.280   4.071   0.916 -0.0592 -0.9805 -0.4964
18044TIP3    H275624   3.154   4.069   0.833 -0.3996 -0.5346  0.0081
18045TIP3   OH275625   2.611   5.939   2.021 -0.1669  0.7529 -0.1267
18045TIP3    H175626   2.687   5.920   1.967 -0.7268 -1.9208 -0.0655
18045TIP3    H275627   2.645   5.945   2.110  0.1523  0.8009 -0.2519
18046TIP3   OH275628   5.657   3.746  15.950  0.4193  0.1241 -0.0398
18046TIP3    H175629   5.749   3.762  15.971  0.4545 -0.5191  0.2912
18046TIP3    H275630   5.656   3.739  15.854  0.8704 -0.8496  0.0256
18047TIP3   OH275631   0.427   5.619  16.389 -0.3841 -0.2585  0.5247
18047TIP3    H175632   0.340   5.656  16.371  0.0149  0.1635 -0.5603
18047TIP3    H275633   0.480   5.695  16.414  0.2062 -0.2287 -0.8263
18048TIP3   OH275634   1.382   2.738   2.226  0.7283 -0.0668 -0.0735
18048TIP3    H175635   1.363   2.821   2.183  2.0611  0.6122  0.6158
18048TIP3    H275636   1.342   2.747   2.313  0.5157 -0.3082 -0.1470
18049TIP3   OH275637   3.265   6.459  12.737 -0.1355 -0.2483 -1.0648
18049TIP3    H175638   3.191   6.405  12.765 -0.3061  0.5425  0.0666
18049TIP3    H275639   3.224   6.540  12.706  0.3081  1.1455  1.7431
18050TIP3   OH275640   3.801   4.663  11.373 -0.2236  0.1472 -0.0715
18050TIP3    H175641   3.827   4.622  11.291  0.9258  0.2039  0.2545
18050TIP3    H275642   3.748   4.737  11.347 -2.4313 -1.5957 -0.6717
18051TIP3   OH275643   0.225   2.241   2.608 -0.2249 -0.0241  0.4331
18051TIP3    H175644   0.256   2.311   2.664 -0.6435  1.0262 -0.6200
18051TIP3    H275645   0.144   2.275   2.570  0.5328 -0.3388 -1.5195
18052TIP3   OH275646   5.866   3.841   5.206  0.4613 -0.0469 -0.4994
18052TIP3    H175647   5.918   3.919   5.185  0.9355 -0.0676  0.5752
18052TIP3    H275648   5.913   3.769   5.165  1.7964 -0.1868  1.2282
18053TIP3   OH275649   0.355   1.677  15.793 -0.3087 -0.7744 -0.4146
18053TIP3    H175650   0.272   1.645  15.827 -0.7130  2.5379  1.9724
18053TIP3    H275651   0.413   1.680  15.869  0.2399  2.2048 -0.8790
18054TIP3   OH275652   5.105   4.957   1.122 -0.6152  0.2613 -0.6933
18054TIP3    H175653   5.074   4.953   1.212 -0.7924 -1.6298 -0.8098
18054TIP3    H275654   5.117   4.865   1.097 -1.2868  0.7381 -2.8374
18055TIP3   OH275655   5.050   1.199   0.163  0.0207 -0.0845  0.1817
18055TIP3    H175656   5.069   1.291   0.142  0.8956 -0.1335  0.7397
18055TIP3    H275657   4.960   1.201   0.197 -0.0827  0.5178 -0.1128
18056TIP3   OH275658   2.296   3.802   0.925  0.2006  0.1509 -0.1064
18056TIP3    H175659   2.252   3.864   0.866  0.4268 -1.2661 -1.8016
18056TIP3    H275660   2.281   3.838   1.013 -0.8057  1.8901 -0.9624
18057TIP3   OH275661   4.960   5.800  13.732  0.4816  0.3062  0.2487
18057TIP3    H175662   4.886   5.820  13.789  0.4891  1.8118 -0.2433
18057TIP3    H275663   5.037   5.811  13.789  0.4235  0.6466  0.2648
18058TIP3   OH275664   2.963   3.395   2.336  0.1333  0.7303 -0.2196
18058TIP3    H175665   2.957   3.326   2.403  0.3587 -0.4682 -1.4228
18058TIP3    H275666   3.049   3.434   2.350  0.0553  0.7005  0.3879
18059TIP3   OH275667   0.279   3.353   1.866 -1.0724  0.2649  0.7852
18059TIP3    H175668   0.371   3.379   1.854 -0.9860 -0.2253  0.3286
18059TIP3    H275669   0.258   3.380   1.955 -0.6357  0.8370  0.7215
18060TIP3   OH275670   5.026   2.889  14.688 -0.0449  0.1407 -0.0274
18060TIP3    H175671   5.106   2.941  14.677  1.0383 -1.5960 -0.6086
18060TIP3    H275672   5.022   2.835  14.609 -0.7337 -1.2175  0.9202
18061TIP3   OH275673   3.070   6.037   3.124  0.1569  0.0624  0.6580
18061TIP3    H175674   3.122   5.961   3.149  1.8239  1.1337  0.5081
18061TIP3    H275675   3.000   6.001   3.070  0.4474 -1.4562  1.2634
18062TIP3   OH275676   0.501   0.257  11.656  0.0073  0.2800  0.3691
18062TIP3    H175677   0.496   0.260  11.751 -0.9294  0.2645  0.3273
18062TIP3    H275678   0.435   0.319  11.626  0.8533  0.8928 -0.2710
18063TIP3   OH275679   1.521   0.692   3.338 -0.0448 -0.1778 -0.0148
18063TIP3    H175680   1.468   0.755   3.387  0.1393  0.2326 -0.3381
18063TIP3    H275681   1.463   0.616   3.327 -1.3737  1.0770 -2.2226
18064TIP3   OH275682   6.094   2.019   4.782  0.4545 -0.4543 -0.2949
18064TIP3    H175683   6.127   2.018   4.872 -0.6304 -1.8350  0.1022
18064TIP3    H275684   6.014   1.967   4.785 -0.2444  0.4857 -1.8250
18065TIP3   OH275685   3.047   1.586   1.019 -0.0674  0.1619 -0.0969
18065TIP3    H175686   3.028   1.674   1.052  2.1058  0.8177 -0.5024
18065TIP3    H275687   3.129   1.561   1.063 -0.6817 -1.6799  0.0372
18066TIP3   OH275688   3.368   5.816   1.064  0.0948  0.0373 -0.1995
18066TIP3    H175689   3.328   5.842   0.982 -0.9380 -0.0636  0.2650
18066TIP3    H275690   3.456   5.855   1.062 -1.0158  2.6312 -0.0093
18067TIP3   OH275691   1.782   3.691  11.646 -0.2972  0.2258  0.6967
18067TIP3    H175692   1.727   3.633  11.594  0.2854  0.6970 -0.4577
18067TIP3    H275693   1.849   3.634  11.683  0.6090  0.2404 -0.8891
18068TIP3   OH275694   3.748   3.114   0.830 -0.0220  0.1199  0.0573
18068TIP3    H175695   3.811   3.042   0.826 -0.4429 -0.2602  0.2391
18068TIP3    H275696   3.676   3.087   0.773  0.4722  1.0474 -1.0278
18069TIP3   OH275697   4.022   3.978  16.933  0.3528 -0.2745 -0.0842
18069TIP3    H175698   4.101   3.979  16.988  0.6088 -0.8902 -0.4369
18069TIP3    H275699   4.041   4.041  16.863  0.3218 -0.0405  0.1169
18070TIP3   OH275700   4.325   1.145  11.356 -0.1980  0.5621  0.1207
18070TIP3    H175701   4.306   1.054  11.336  0.4871  0.2041  1.0411
18070TIP3    H275702   4.420   1.148  11.366 -0.4507  0.7340  3.0344
18071TIP3   OH275703   1.873   2.729  14.670 -0.2260  0.3727  0.1273
18071TIP3    H175704   1.902   2.659  14.728 -0.5328 -0.6707 -0.9481
18071TIP3    H275705   1.852   2.802  14.728  0.6681 -0.2264  1.2203
18072TIP3   OH275706   2.939   4.478   1.937 -0.0203 -0.4006 -0.2761
18072TIP3    H175707   2.946   4.423   1.859  0.3629 -1.6939  0.6599
18072TIP3    H275708   3.029   4.496   1.962 -0.1331  1.1228 -0.8720
18073TIP3   OH275709   4.340   4.798   6.593  0.1297 -0.1710  0.3124
18073TIP3    H175710   4.431   4.827   6.591  0.0393  0.0852 -0.2735
18073TIP3    H275711   4.303   4.832   6.512 -0.1231 -1.4920 -0.1347
18074TIP3   OH275712   2.006   3.664   5.102  0.6680 -0.2721 -0.1998
18074TIP3    H175713   2.078   3.723   5.125  0.9841 -0.1866 -1.3776
18074TIP3    H275714   1.959   3.710   5.033 -0.3397 -0.4678  0.3556
18075TIP3   OH275715   0.073   2.268   5.318 -0.1305 -0.1538 -0.6224
18075TIP3    H175716   0.049   2.265   5.410  2.0402 -1.9209 -0.0678
18075TIP3    H275717   0.139   2.199   5.308  0.9263  1.1559 -3.1338
18076TIP3   OH275718   0.803   3.126  13.251  0.7345 -0.2596 -0.2506
18076TIP3    H175719   0.753   3.048  13.274  0.1233  0.3023  0.3453
18076TIP3    H275720   0.793   3.134  13.156 -0.5559  0.0062 -0.1003
18077TIP3   OH275721   4.752   5.364  13.738  0.3837  0.4005 -0.4699
18077TIP3    H175722   4.719   5.415  13.812  1.9893 -0.4378  0.8450
18077TIP3    H275723   4.673   5.336  13.692 -0.6044  1.7984  0.3230
18078TIP3   OH275724   0.619   4.522  15.305  0.1776  0.6477 -0.1895
18078TIP3    H175725   0.541   4.531  15.359 -0.2445  0.6275 -0.7972
18078TIP3    H275726   0.677   4.593  15.335 -0.1146  0.7314  0.1757
18079TIP3   OH275727   3.773   4.422  16.710  0.8655  0.2613  0.4450
18079TIP3    H175728   3.693   4.457  16.747 -0.1282 -0.5316 -0.8973
18079TIP3    H275729   3.807   4.493  16.655 -0.5190 -0.4086 -1.3383
18080TIP3   OH275730   4.972   5.408  14.935  0.5311  0.7359 -0.0679
18080TIP3    H175731   4.948   5.501  14.939  2.0494  1.1304  0.0662
18080TIP3    H275732   5.065   5.408  14.913  0.5845 -0.7605  0.1182
18081TIP3   OH275733   4.900   6.442  13.968 -0.1292 -0.4850  0.3919
18081TIP3    H175734   4.948   6.479  14.043 -1.4187 -0.3244  1.1648
18081TIP3    H275735   4.949   6.363  13.945 -1.0143 -1.8627  2.9574
18082TIP3   OH275736   1.551   4.327  16.580  0.4317 -0.1210  0.5338
18082TIP3    H175737   1.496   4.301  16.653  0.5805 -0.9982  0.3361
18082TIP3    H275738   1.528   4.267  16.509  0.1857  0.8107 -0.1891
18083TIP3   OH275739   2.079   1.999   0.503 -0.0362 -0.8836 -0.1483
18083TIP3    H175740   2.173   1.983   0.495 -0.0542 -1.4221  0.6630
18083TIP3    H275741   2.070   2.094   0.504  0.5244 -0.8348  0.0528
18084TIP3   OH275742   2.376   2.583  15.402  0.2115  0.2547  0.5810
18084TIP3    H175743   2.458   2.563  15.357  0.1796 -1.4080  1.2012
18084TIP3    H275744   2.396   2.660  15.455  1.6059 -0.5622  1.2846
18085TIP3   OH275745   6.092   2.479  13.805  0.2237  0.4705  0.3005
18085TIP3    H175746   6.140   2.449  13.728 -1.3380  0.1885 -0.5945
18085TIP3    H275747   6.119   2.419  13.875  0.1407 -0.5281 -0.5086
18086TIP3   OH275748   5.094   5.406   3.874  0.0248 -0.0408  0.1312
18086TIP3    H175749   5.061   5.435   3.789 -0.8010 -0.9733  0.1360
18086TIP3    H275750   5.189   5.404   3.862 -0.2149 -3.4973 -1.8680
18087TIP3   OH275751   1.003   4.693   5.080 -0.3304  0.0762  0.1084
18087TIP3    H175752   0.991   4.655   5.167 -0.1896 -0.3286 -0.0450
18087TIP3    H275753   0.976   4.784   5.089 -1.2549 -0.2085  0.3482
18088TIP3   OH275754   6.056   1.463   2.334  0.1141 -0.6321 -0.6024
18088TIP3    H175755   5.985   1.414   2.293  0.8836 -1.4638 -0.9443
18088TIP3    H275756   6.013   1.541   2.370 -1.5053 -2.5826  1.8734
18089TIP3   OH275757   0.330   6.040  14.397 -0.4375  0.4649 -0.5902
18089TIP3    H175758   0.263   6.001  14.453  0.1719 -0.2299 -0.3432
18089TIP3    H275759   0.403   6.059  14.456  0.1887 -0.2294 -1.1262
18090TIP3   OH275760   3.598   5.137   3.202  0.1016  0.1003 -0.0454
18090TIP3    H175761   3.671   5.175   3.153  0.3676 -1.0741 -0.5734
18090TIP3    H275762   3.618   5.159   3.293  0.2405  1.2329 -0.3395
18091TIP3   OH275763   5.496   5.769  14.631 -0.3407  0.0513 -0.3096
18091TIP3    H175764   5.490   5.848  14.685 -0.1340 -0.2624  0.1763
18091TIP3    H275765   5.434   5.785  14.559 -1.5156 -0.0223  0.6583
18092TIP3   OH275766   5.624   1.516  16.713  0.3253  0.1404 -0.1758
18092TIP3    H175767   5.646   1.423  16.712  1.0868  0.3244 -2.4031
18092TIP3    H275768   5.709   1.560  16.722  0.0295  0.6425  0.2049
18093TIP3   OH275769   5.922   4.887  12.523  0.3567  0.1069  0.0730
18093TIP3    H175770   5.997   4.856  12.574  0.9036 -1.6438 -1.7302
18093TIP3    H275771   5.890   4.809  12.478 -1.8880  1.0531 -0.0317
18094TIP3   OH275772   5.664   3.669  12.336 -0.5488  0.1996  0.6927
18094TIP3    H175773   5.690   3.581  12.307  0.0753  0.4341  0.5559
18094TIP3    H275774   5.574   3.678  12.305 -0.4857 -0.2422  0.3753
18095TIP3   OH275775   0.830   6.331   5.405 -0.0665  0.2498  0.4964
18095TIP3    H175776   0.788   6.417   5.408  1.1135  0.8419  0.2627
18095TIP3    H275777   0.905   6.339   5.465 -1.2686 -1.3455  2.2799
18096TIP3   OH275778   5.695   5.118  11.213 -0.0658  0.6059  0.0892
18096TIP3    H175779   5.743   5.189  11.170 -0.9057  3.2774  3.4278
18096TIP3    H275780   5.603   5.143  11.207 -0.1721  1.3666  3.8923
18097TIP3   OH275781   0.132   4.340  16.398 -0.8294  0.9344 -1.1388
18097TIP3    H175782   0.186   4.303  16.329 -1.0556 -1.2213 -0.1846
18097TIP3    H275783   0.178   4.420  16.424  0.4080  0.5939 -2.2457
18098TIP3   OH275784   2.313   0.180   5.518 -0.1242  0.1328  0.5696
18098TIP3    H175785   2.316   0.103   5.461  0.6600  0.9230 -0.4677
18098TIP3    H275786   2.380   0.238   5.483 -1.4780  1.7724  0.6676
18099TIP3   OH275787   0.000   3.811  12.100 -0.1357  0.4638 -0.2091
18099TIP3    H175788  -0.011   3.901  12.069  0.8058  0.1887 -1.3857
18099TIP3    H275789  -0.069   3.762  12.056  0.1516  0.3804 -0.5692
18100TIP3   OH275790   4.915   0.152  11.678  0.0081  0.0780  0.3551
18100TIP3    H175791   4.918   0.058  11.698  2.5837 -0.0038 -0.2234
18100TIP3    H275792   4.937   0.156  11.585  1.7487  1.3831  0.8191
18101TIP3   OH275793   1.820   5.771   2.896 -0.7709  0.0042 -0.0175
18101TIP3    H175794   1.902   5.795   2.940 -0.1000 -1.4627 -0.4488
18101TIP3    H275795   1.771   5.723   2.962 -1.0909  0.4807  0.0934
18102TIP3   OH275796   1.860   4.456   1.129  0.5906  0.0384 -0.1398
18102TIP3    H175797   1.851   4.491   1.040  0.2856 -2.7996 -1.2966
18102TIP3    H275798   1.781   4.485   1.174  1.0815  2.1156 -0.5398
18103TIP3   OH275799   2.109   6.078   5.440 -0.2036 -0.0651 -0.6229
18103TIP3    H175800   2.115   6.094   5.346 -2.0792 -0.2920 -0.7990
18103TIP3    H275801   2.180   6.017   5.459 -0.6378 -1.0613 -2.1231
18104TIP3   OH275802   0.565   1.697   6.187 -0.3911  0.0480 -0.2851
18104TIP3    H175803   0.507   1.678   6.260  0.2084  1.6270  0.6246
18104TIP3    H275804   0.628   1.760   6.222  0.0555  0.6342 -2.0821
18105TIP3   OH275805   6.450   0.724   1.086 -0.0356  0.6059 -0.1662
18105TIP3    H175806   6.371   0.670   1.083 -0.1264  0.7706 -0.8188
18105TIP3    H275807   6.471   0.741   0.994  1.2342 -0.1239 -0.0175
18106TIP3   OH275808   1.827   6.456  16.830 -0.5308 -0.5727  0.0849
18106TIP3    H175809   1.884   6.517  16.876 -0.5539  0.3205 -1.0621
18106TIP3    H275810   1.803   6.391  16.896  0.7328 -0.2022  0.9082
18107TIP3   OH275811   5.336   1.085  15.654  0.0152 -0.2967  0.2093
18107TIP3    H175812   5.249   1.120  15.672 -0.5932 -2.0924  0.8003
18107TIP3    H275813   5.394   1.161  15.660 -1.7074  1.2573 -1.9866
18108TIP3   OH275814   1.079   5.211  16.605  0.1759 -0.7981  0.2863
18108TIP3    H175815   1.015   5.212  16.534 -0.5497 -0.5875  0.9343
18108TIP3    H275816   1.119   5.125  16.600 -1.4561 -1.6221  1.0197
18109TIP3   OH275817   0.142   2.480  14.867  0.8429  0.0938  0.7553
18109TIP3    H175818   0.197   2.461  14.943  0.6620 -1.4310  0.5267
18109TIP3    H275819   0.130   2.395  14.824  1.4422  1.0257 -1.3255
18110TIP3   OH275820   3.265   0.994   2.418 -0.1801  0.4778  0.0316
18110TIP3    H175821   3.199   0.957   2.476 -0.7404 -0.0392 -0.9190
18110TIP3    H275822   3.247   0.954   2.333  0.7579  1.0646 -0.4496
18111TIP3   OH275823   1.736   3.535  16.610 -0.2541 -0.0831  0.0209
18111TIP3    H175824   1.675   3.475  16.567 -0.4437  0.7285 -0.8601
18111TIP3    H275825   1.822   3.502  16.587 -0.3490 -0.9490  0.8680
18112TIP3   OH275826   5.473   4.587  14.437  0.1324 -0.1322  0.0057
18112TIP3    H175827   5.566   4.570  14.456 -0.4353 -2.2200  1.0591
18112TIP3    H275828   5.433   4.594  14.524 -0.5225  1.8861 -0.4411
18113TIP3   OH275829   5.400   5.253  12.916  0.9694 -0.0601  0.2294
18113TIP3    H175830   5.326   5.311  12.899  0.3710 -0.7036  0.6167
18113TIP3    H275831   5.457   5.265  12.840  0.6459  0.7034  0.0934
18114TIP3   OH275832   5.623   1.120   2.183 -0.5758  0.0469  0.6963
18114TIP3    H175833   5.679   1.196   2.170 -1.1925  0.4128  0.1701
18114TIP3    H275834   5.549   1.153   2.234 -0.6858 -0.2701  0.7411
18115TIP3   OH275835   5.312   0.127   3.795  0.5812 -0.0370  0.1411
18115TIP3    H175836   5.259   0.206   3.786  1.1368  0.1142 -2.0815
18115TIP3    H275837   5.401   0.158   3.807  0.5117 -0.3219  1.4915
18116TIP3   OH275838   2.157   4.509  13.810 -0.4912  0.1020 -0.4262
18116TIP3    H175839   2.211   4.434  13.836  1.3004  1.5011  0.0045
18116TIP3    H275840   2.094   4.472  13.748 -1.2788 -2.2241  1.6781
18117TIP3   OH275841   1.957   5.675  10.975 -0.5875 -0.9805  0.1849
18117TIP3    H175842   2.048   5.675  10.946 -0.2611 -1.7170  1.1970
18117TIP3    H275843   1.911   5.728  10.909  0.4883 -0.9602 -0.5616
18118TIP3   OH275844   3.976   0.056  14.664  0.3826  0.2594 -0.1763
18118TIP3    H175845   3.881   0.059  14.676  0.4031  1.4364 -0.3044
18118TIP3    H275846   3.989  -0.008  14.593 -0.3440  0.4480 -0.4829
18119TIP3   OH275847   0.814   0.185   2.065  0.1075 -0.0139  0.6218
18119TIP3    H175848   0.902   0.214   2.087  0.6603 -1.5169  0.4072
18119TIP3    H275849   0.757   0.243   2.116  1.2424 -0.0907  2.0138
18120TIP3   OH275850   3.101   3.911  16.203  0.4691 -0.4707 -0.1852
18120TIP3    H175851   3.169   3.976  16.184 -1.0375  1.3954  0.6636
18120TIP3    H275852   3.078   3.875  16.118 -0.0745  1.5505 -0.9142
18121TIP3   OH275853   0.841   4.954   2.586  0.0671  0.4392 -0.0258
18121TIP3    H175854   0.905   4.889   2.558  1.3421  1.4207  0.5380
18121TIP3    H275855   0.757   4.918   2.558  1.1484  1.0011 -4.5402
18122TIP3   OH275856   2.133   5.425  13.584  0.9137 -0.3513  0.1745
18122TIP3    H175857   2.154   5.486  13.655 -1.9237 -0.0488  0.7986
18122TIP3    H275858   2.114   5.481  13.509 -0.9589 -0.4684  0.5447
18123TIP3   OH275859   6.021   0.570  14.903 -0.3690  0.2119 -0.4369
18123TIP3    H175860   6.040   0.596  14.813  1.3212 -0.2895 -0.2461
18123TIP3    H275861   6.015   0.653  14.951 -3.1186  0.5721 -1.3167
18124TIP3   OH275862   6.048   0.598  12.803  0.1360  0.1351 -0.5695
18124TIP3    H175863   6.083   0.675  12.848 -0.1589  0.9195 -1.6420
18124TIP3    H275864   5.977   0.633  12.749  1.1603 -0.5866 -2.4462
18125TIP3   OH275865   2.322   1.510   5.321 -0.1347 -0.4026 -0.0197
18125TIP3    H175866   2.397   1.524   5.264 -1.4997  0.1181 -1.7104
18125TIP3    H275867   2.257   1.466   5.266 -1.1446 -0.7062  1.3772
18126TIP3   OH275868   3.366   6.277  15.018 -0.1781 -0.2396 -0.4031
18126TIP3    H175869   3.383   6.363  14.980  0.4799  0.2735  0.9934
18126TIP3    H275870   3.277   6.284  15.053  0.1611  0.1536  0.4065
18127TIP3   OH275871   3.853   0.515  12.930 -0.0851  0.0378 -0.4254
18127TIP3    H175872   3.773   0.485  12.888 -0.8379 -1.9760  2.2387
18127TIP3    H275873   3.871   0.448  12.996  3.1042  1.1102 -0.1254
18128TIP3   OH275874   1.272   6.134  15.375  0.7860 -0.5104  0.1229
18128TIP3    H175875   1.252   6.208  15.317 -1.4564 -1.3529 -0.2484
18128TIP3    H275876   1.300   6.174  15.457  0.7630  0.7331 -0.4664
18129TIP3   OH275877   3.432   3.523   0.978  0.2017  0.1153  0.2130
18129TIP3    H175878   3.374   3.576   0.923 -0.5543 -1.4454 -0.4971
18129TIP3    H275879   3.407   3.545   1.068 -0.4311  0.5941 -0.0765
18130TIP3   OH275880   6.263   5.161   2.211  0.0724  0.4480  0.3236
18130TIP3    H175881   6.191   5.108   2.247  1.1299 -1.0733  0.2414
18130TIP3    H275882   6.341   5.130   2.256  0.7118  2.0314  0.3371
18131TIP3   OH275883   4.310   5.316  14.390  0.8529 -0.0854  0.4978
18131TIP3    H175884   4.292   5.374  14.316  2.1140  1.3283  1.2651
18131TIP3    H275885   4.255   5.240  14.375 -1.7209  1.7986  0.0387
18132TIP3   OH275886   5.212   6.312   4.241 -0.0571  0.4229 -0.4015
18132TIP3    H175887   5.184   6.313   4.149  0.2531  0.3857 -0.4957
18132TIP3    H275888   5.134   6.281   4.289 -0.0208 -0.1601 -0.7189
18133TIP3   OH275889   1.531   4.688  15.818  0.2918 -0.3517  0.5318
18133TIP3    H175890   1.475   4.662  15.891  1.0750  0.4624  1.4279
18133TIP3    H275891   1.618   4.698  15.856  0.4658  1.3107 -0.2304
18134TIP3   OH275892   0.171   2.404  15.545 -0.6070  0.1203 -0.5188
18134TIP3    H175893   0.176   2.310  15.562 -0.9775  0.0375 -0.8628
18134TIP3    H275894   0.083   2.429  15.572  0.3715  0.8805  2.0937
18135TIP3   OH275895   0.419   3.674  13.662 -0.8030  0.2450  0.5257
18135TIP3    H175896   0.442   3.687  13.754 -0.0322 -2.1480  0.7004
18135TIP3    H275897   0.415   3.579  13.652 -1.0046  0.4903 -1.8936
18136TIP3   OH275898   0.115   5.236   3.675  0.0569  0.3553  0.6620
18136TIP3    H175899   0.033   5.225   3.627 -0.7391  0.6770  1.9131
18136TIP3    H275900   0.103   5.182   3.754  1.1344  0.2386  0.7495
18137TIP3   OH275901   4.213   5.013   4.269 -0.0854  0.2389  0.2654
18137TIP3    H175902   4.199   4.963   4.189 -1.3039  1.0584 -0.0531
18137TIP3    H275903   4.278   4.963   4.318 -2.5687 -2.6137  0.7878
18138TIP3   OH275904   1.599   1.699  13.501 -0.2271 -0.3266  0.3320
18138TIP3    H175905   1.597   1.792  13.524 -0.7918  0.2489 -1.9243
18138TIP3    H275906   1.618   1.655  13.584  1.4936  1.8764  1.1647
18139TIP3   OH275907   4.642   0.502  12.507  0.7483 -0.2396 -0.3575
18139TIP3    H175908   4.581   0.575  12.501 -0.6344 -1.4226 -1.1479
18139TIP3    H275909   4.632   0.456  12.423  0.8670 -1.8940  0.5173
18140TIP3   OH275910   6.048   2.627   5.554  0.2228 -0.2572  0.3145
18140TIP3    H175911   6.134   2.643   5.593  0.1397  0.4156  0.2399
18140TIP3    H275912   6.065   2.623   5.460  0.2912 -0.9531  0.3579
18141TIP3   OH275913   0.032   3.981   3.729 -0.0295 -0.0698  0.3348
18141TIP3    H175914   0.039   3.933   3.812 -0.0090 -1.1411 -0.2754
18141TIP3    H275915  -0.016   4.060   3.751 -1.5741 -1.1774  1.0303
18142TIP3   OH275916   5.139   5.837  14.276 -0.9965 -0.3141 -0.0662
18142TIP3    H175917   5.064   5.780  14.264 -2.0317  1.0060 -0.0557
18142TIP3    H275918   5.158   5.833  14.370  1.4532 -3.6912 -0.6348
18143TIP3   OH275919   3.412   2.469   6.607  0.1637  0.1264  0.3933
18143TIP3    H175920   3.382   2.557   6.584 -1.1968 -0.5678 -0.5433
18143TIP3    H275921   3.398   2.463   6.702 -1.4853  0.2619  0.1663
18144TIP3   OH275922   0.040   0.068  15.254 -0.2106 -0.2830 -0.1962
18144TIP3    H175923   0.036  -0.007  15.312  0.6524 -0.3504 -0.2204
18144TIP3    H275924   0.013   0.142  15.308  1.1218 -0.2554  0.4516
18145TIP3   OH275925   1.788   4.438  14.893 -0.1531  0.7110 -0.2868
18145TIP3    H175926   1.768   4.348  14.871 -0.5608 -0.0707  2.9991
18145TIP3    H275927   1.884   4.443  14.891 -0.1231  0.1230 -0.1946
18146TIP3   OH275928   4.887   4.235   4.547  0.5705  0.4693  0.4258
18146TIP3    H175929   4.854   4.321   4.521  0.1233  0.1902  0.0656
18146TIP3    H275930   4.815   4.195   4.596  0.6018  0.1212  0.1958
18147TIP3   OH275931   2.650   6.614   0.520 -0.5242 -0.4020  0.3539
18147TIP3    H175932   2.613   6.534   0.483 -1.1162  0.9135 -1.9637
18147TIP3    H275933   2.626   6.611   0.613 -3.4906 -1.2792 -0.3835
18148TIP3   OH275934   0.837   5.789  12.233  0.8104 -0.2466  0.0162
18148TIP3    H175935   0.842   5.809  12.140 -0.8840  0.2638  0.0042
18148TIP3    H275936   0.833   5.694  12.237  3.9525 -0.4250 -0.2306
18149TIP3   OH275937   2.964   1.823   1.128  0.0871  0.3152  0.4163
18149TIP3    H175938   2.878   1.865   1.124 -0.6042 -0.8362  2.4804
18149TIP3    H275939   2.997   1.846   1.215  0.5583 -1.7345  0.7803
18150TIP3   OH275940   2.365   3.963  16.828  0.2651 -0.4684 -0.0333
18150TIP3    H175941   2.428   4.018  16.783 -0.8649  1.8968  1.1889
18150TIP3    H275942   2.395   3.961  16.919 -0.9451  0.0209  0.3887
18151TIP3   OH275943   6.294   3.996  16.666  0.0035  0.6964  0.4475
18151TIP3    H175944   6.285   4.090  16.650  0.3987  0.8829  1.2812
18151TIP3    H275945   6.259   3.984  16.754 -0.8800 -0.0891 -0.0044
18152TIP3   OH275946   1.463   0.675  13.116 -0.2920  0.3217 -0.8863
18152TIP3    H175947   1.530   0.669  13.184 -0.7596  3.3032 -0.1132
18152TIP3    H275948   1.484   0.754  13.067 -2.1547  0.2693 -1.8393
18153TIP3   OH275949   6.786   2.337   3.145 -0.4031  0.2316 -0.1877
18153TIP3    H175950   6.847   2.377   3.207 -0.5183  0.5129 -0.2534
18153TIP3    H275951   6.792   2.393   3.067 -0.9884  0.4485 -0.0765
18154TIP3   OH275952   0.143   2.794   6.675 -0.6170 -0.6540  0.2119
18154TIP3    H175953   0.191   2.871   6.702 -1.4681 -0.4145  1.0685
18154TIP3    H275954   0.178   2.723   6.729 -1.6189 -0.3667  1.2601
18155TIP3   OH275955   3.069   0.411   1.967 -0.2272 -0.0170  0.6080
18155TIP3    H175956   3.158   0.385   1.992 -0.2562 -0.4235  0.2896
18155TIP3    H275957   3.012   0.367   2.030 -0.3856 -2.0912 -0.9307
18156TIP3   OH275958   5.369   4.166  15.277  0.2454  0.3171  0.4019
18156TIP3    H175959   5.378   4.074  15.300  2.1927 -0.1866 -2.1730
18156TIP3    H275960   5.372   4.212  15.361 -0.7604 -1.9392  1.7156
18157TIP3   OH275961   1.175   2.992   0.829 -0.3866  0.0722  0.2776
18157TIP3    H175962   1.141   2.904   0.814 -1.2830  0.1435  1.8043
18157TIP3    H275963   1.098   3.049   0.825  0.0521  0.6721  0.2458
18158TIP3   OH275964   5.649   2.178  16.022 -0.1908  0.1913  0.2680
18158TIP3    H175965   5.685   2.118  16.088 -0.5660 -1.1097 -0.7014
18158TIP3    H275966   5.557   2.187  16.046 -0.4907 -0.8357 -0.4807
18159TIP3   OH275967   5.584   2.372  14.713  0.3770  0.5730 -0.1413
18159TIP3    H175968   5.528   2.313  14.663  0.0450 -1.0681  2.0978
18159TIP3    H275969   5.666   2.376  14.664  0.1078 -1.0934 -0.7573
18160TIP3   OH275970   4.799   6.217   2.672  0.3363  0.0683 -0.0173
18160TIP3    H175971   4.791   6.292   2.613  0.5201  0.3459  0.3097
18160TIP3    H275972   4.888   6.185   2.659 -0.9936 -2.6693 -3.2419
18161TIP3   OH275973   6.337   2.891   5.485 -0.1572  0.3742 -0.4034
18161TIP3    H175974   6.369   2.976   5.515 -1.3965  1.1288 -1.1918
18161TIP3    H275975   6.259   2.911   5.434  0.2960 -1.1247 -1.7415
18162TIP3   OH275976   3.372   6.071  15.322  0.3180  0.0148 -0.2054
18162TIP3    H175977   3.360   5.991  15.373  0.2386  0.7342  0.9045
18162TIP3    H275978   3.308   6.133  15.358  1.4453  1.0836 -0.0327
18163TIP3   OH275979   1.897   0.430  16.999 -0.2786  0.1339  0.0587
18163TIP3    H175980   1.916   0.354  16.944 -1.3098  1.1573 -1.7497
18163TIP3    H275981   1.981   0.476  17.006 -0.0525 -0.2185 -0.3178
18164TIP3   OH275982   5.455   4.810   2.591 -0.5259  0.2994  0.6253
18164TIP3    H175983   5.381   4.783   2.536  0.0211 -1.5390  0.7545
18164TIP3    H275984   5.521   4.840   2.529 -0.6323  0.0612  0.3948
18165TIP3   OH275985   0.945   1.577   1.338  0.3064  0.0976 -0.2361
18165TIP3    H175986   0.984   1.564   1.425 -1.0095 -0.0687  0.3419
18165TIP3    H275987   1.013   1.622   1.288  0.9554  0.5038  0.9829
18166TIP3   OH275988   1.375   1.326  13.777  0.3952 -0.3564  0.6127
18166TIP3    H175989   1.408   1.410  13.744  1.7566 -0.8699  0.6179
18166TIP3    H275990   1.418   1.260  13.722  0.0151 -1.0788  1.1768
18167TIP3   OH275991   5.858   5.166  12.885 -0.1614  0.7671 -0.0884
18167TIP3    H175992   5.939   5.167  12.834  0.0573 -0.9492  0.1781
18167TIP3    H275993   5.793   5.128  12.826  0.2041 -1.6720  1.0025
18168TIP3   OH275994   5.401   3.440   1.143 -0.0078  0.2987 -0.4046
18168TIP3    H175995   5.437   3.522   1.178  0.8843 -0.0309 -0.5428
18168TIP3    H275996   5.460   3.416   1.072  0.9939 -1.5709  0.9984
18169TIP3   OH275997   1.927   1.805   0.621 -0.2167 -0.5285  0.2117
18169TIP3    H175998   1.961   1.874   0.564  0.4799  0.6723  2.0422
18169TIP3    H275999   2.000   1.743   0.628 -0.1957 -0.5240  0.0539
18170TIP3   OH276000   0.869   0.897   1.363 -0.1582  0.2401 -0.4061
18170TIP3    H176001   0.805   0.860   1.302 -0.1356  0.1239 -0.3605
18170TIP3    H276002   0.898   0.822   1.414  1.0862  0.0388 -1.3991
18171TIP3   OH276003   3.076   6.394  17.163 -0.0510 -0.9618 -0.0064
18171TIP3    H176004   3.104   6.421  17.075 -0.9049 -0.9204 -0.2721
18171TIP3    H276005   3.077   6.475  17.214 -0.7362 -0.7585 -0.3027
18172TIP3   OH276006   3.417   0.235  16.970 -0.4143 -0.1218 -0.0328
18172TIP3    H176007   3.374   0.305  16.921 -0.7350  0.4375  1.0290
18172TIP3    H276008   3.510   0.248  16.953 -0.3352  1.7680  1.7114
18173TIP3   OH276009   6.080   0.619  15.721  0.1590  0.5132 -0.3863
18173TIP3    H176010   6.029   0.628  15.801  0.2612 -1.4698 -0.0761
18173TIP3    H276011   6.060   0.698  15.671 -1.0430  1.0772  0.9463
18174TIP3   OH276012   2.672   4.599   3.922 -0.3040 -0.1871 -0.5665
18174TIP3    H176013   2.594   4.609   3.867 -0.3643 -1.3321 -0.7194
18174TIP3    H276014   2.743   4.636   3.871 -1.0305  2.5876  0.3463
18175TIP3   OH276015   3.715   3.800   5.342  0.1464 -0.0610 -0.4797
18175TIP3    H176016   3.685   3.791   5.433  1.4305  2.0770  0.1841
18175TIP3    H276017   3.793   3.744   5.338  0.8723  0.8858  0.1343
18176TIP3   OH276018   5.032   5.673   0.715  0.1684  0.1124 -0.1338
18176TIP3    H176019   5.026   5.632   0.628  1.4162  1.3614 -0.8175
18176TIP3    H276020   4.955   5.639   0.762 -0.6117 -0.4552 -1.7644
18177TIP3   OH276021   5.823   0.168  11.771  0.4280  0.3648 -0.0544
18177TIP3    H176022   5.765   0.157  11.846  0.4805  2.3047  0.3185
18177TIP3    H276023   5.841   0.263  11.769  0.9632  0.2370 -2.1083
18178TIP3   OH276024   0.100   5.475   5.210 -0.4937  0.0485 -0.1447
18178TIP3    H176025   0.017   5.429   5.225 -1.0707  0.4719 -1.9989
18178TIP3    H276026   0.157   5.409   5.171 -0.9507  0.5659 -1.7194
18179TIP3   OH276027   2.705   2.455  12.131 -0.1385  0.2028 -0.0009
18179TIP3    H176028   2.686   2.387  12.067  0.7131 -0.4615  0.4504
18179TIP3    H276029   2.780   2.423  12.180 -0.1669  1.1465  0.6901
18180TIP3   OH276030   1.246   6.192   3.009  0.2771  0.1806  0.1560
18180TIP3    H176031   1.203   6.171   3.092 -0.7029  0.8568 -0.1762
18180TIP3    H276032   1.248   6.108   2.962  1.9920 -0.4840  1.3688
18181TIP3   OH276033   2.640   6.219   4.701  0.3795 -0.1358  0.2863
18181TIP3    H176034   2.635   6.305   4.660 -0.7695  0.8360  2.3788
18181TIP3    H276035   2.732   6.194   4.693  0.4432  0.6106 -1.6221
18182TIP3   OH276036   1.930   0.914   5.594 -0.1579 -0.1161 -0.1758
18182TIP3    H176037   1.941   1.009   5.591 -3.1381  0.2703 -0.7702
18182TIP3    H276038   1.842   0.901   5.628 -0.4660 -2.6235 -1.7844
18183TIP3   OH276039   6.748   5.183  12.022 -0.1785  0.0343 -0.4952
18183TIP3    H176040   6.754   5.259  11.964  1.5232  0.4260  0.1634
18183TIP3    H276041   6.765   5.218  12.110 -0.5105 -0.9201 -0.0424
18184TIP3   OH276042   4.674   0.255  10.235  0.4050  0.6138  0.2325
18184TIP3    H176043   4.671   0.336  10.286 -0.4997  0.8275 -0.1515
18184TIP3    H276044   4.600   0.203  10.269  1.3324 -0.3076  0.8919
18185TIP3   OH276045   5.893   3.701   0.254 -0.6163  0.0312 -0.0014
18185TIP3    H176046   5.885   3.637   0.184 -0.6231 -0.0622  0.0842
18185TIP3    H276047   5.947   3.771   0.217  1.1083 -0.9588  0.5811
18186TIP3   OH276048   2.950   6.270  15.633 -0.1592  0.1632 -0.5794
18186TIP3    H176049   2.961   6.345  15.574 -3.4510  0.1147 -1.3415
18186TIP3    H276050   2.988   6.299  15.716 -0.4339  2.2567 -1.1601
18187TIP3   OH276051   5.356   6.769   1.158  0.0777  0.0586  0.0429
18187TIP3    H176052   5.326   6.691   1.205 -0.4206 -0.5792 -1.2967
18187TIP3    H276053   5.312   6.842   1.203  0.7648 -0.3976  1.4720
18188TIP3   OH276054   0.519   0.285   2.108 -0.6317 -0.1599  0.1645
18188TIP3    H176055   0.460   0.353   2.141  0.3385  0.0999  1.3884
18188TIP3    H276056   0.524   0.302   2.014 -2.9517 -0.5368 -0.0738
18189TIP3   OH276057   5.439   0.341  15.384 -0.7635  0.0897  0.2399
18189TIP3    H176058   5.430   0.360  15.477 -0.5871 -0.6504  0.4065
18189TIP3    H276059   5.378   0.402  15.342 -0.4357  0.8044  0.7953
18190TIP3   OH276060   2.801   4.957  10.886 -0.3901  0.2549 -0.0234
18190TIP3    H176061   2.718   5.003  10.878 -1.2015 -0.7628  2.2237
18190TIP3    H276062   2.787   4.873  10.843  0.0930  0.8272 -1.3196
18191TIP3   OH276063   1.311   5.286  14.914 -0.6189 -0.2867  0.3287
18191TIP3    H176064   1.302   5.273  15.009 -0.3315  1.0502  0.5544
18191TIP3    H276065   1.223   5.309  14.884 -0.7227 -0.7716  0.2532
18192TIP3   OH276066   2.171   6.462   1.406 -0.4418  0.6708  0.1131
18192TIP3    H176067   2.166   6.468   1.501  1.0353 -1.9118  0.3951
18192TIP3    H276068   2.263   6.481   1.385 -0.6942  0.9444 -0.7866
18193TIP3   OH276069   5.910   6.209   2.598 -0.3233 -0.2040  0.3571
18193TIP3    H176070   5.959   6.168   2.527 -0.3950 -0.5705  0.5167
18193TIP3    H276071   5.829   6.239   2.557 -0.4345 -0.5550  0.3158
18194TIP3   OH276072   6.389   6.787  14.215  0.0127 -0.2280 -0.2969
18194TIP3    H176073   6.413   6.878  14.234 -1.5139 -0.2163  1.7348
18194TIP3    H276074   6.358   6.752  14.299  2.9063 -3.4187 -0.4450
18195TIP3   OH276075   2.350   4.926   1.682  0.2886  0.1648  0.2019
18195TIP3    H176076   2.385   4.938   1.770  0.9709 -1.1399  0.1146
18195TIP3    H276077   2.298   5.005   1.666 -0.9722 -0.2176  2.2954
18196TIP3   OH276078   1.309   6.101  14.761 -0.4832 -0.5131 -0.0812
18196TIP3    H176079   1.269   6.159  14.696 -1.6862  0.4034  1.4369
18196TIP3    H276080   1.320   6.018  14.716 -1.1419  0.1590 -1.5081
18197TIP3   OH276081   2.194   1.152   0.597  0.6837  0.0080 -0.9251
18197TIP3    H176082   2.126   1.134   0.533 -0.1093 -1.0204  0.1851
18197TIP3    H276083   2.252   1.076   0.593  0.6441 -0.0487 -0.4422
18198TIP3   OH276084   4.477   5.579   1.563  0.8857 -0.2366 -0.2607
18198TIP3    H176085   4.433   5.516   1.506  1.2565 -0.5720 -0.1841
18198TIP3    H276086   4.459   5.664   1.523 -1.4928 -0.1736  0.8691
18199TIP3   OH276087   1.964   1.900  16.083  0.5643  0.2302  0.2176
18199TIP3    H176088   2.004   1.937  16.162  2.0234 -0.7597 -0.0472
18199TIP3    H276089   1.894   1.962  16.060  1.4405  1.5727  1.1286
18200TIP3   OH276090   6.069   5.370   2.978 -0.2147  0.2999 -0.2258
18200TIP3    H176091   6.047   5.448   2.927  0.9083  0.5942 -0.2693
18200TIP3    H276092   6.098   5.404   3.062 -0.9788 -0.1349  0.2145
18201TIP3   OH276093   0.409   6.695   4.044  0.2322  0.3059 -0.4363
18201TIP3    H176094   0.396   6.761   3.976  0.7565 -0.1190 -0.9545
18201TIP3    H276095   0.386   6.613   4.001 -3.0093  0.3897  0.9697
18202TIP3   OH276096   2.791   1.541  15.635  0.3370 -0.2691  0.3734
18202TIP3    H176097   2.738   1.614  15.603  0.3790 -0.6453 -0.5799
18202TIP3    H276098   2.881   1.573  15.632  0.2125  0.1949  1.5057
18203TIP3   OH276099   4.063   3.879   0.952  0.1949 -0.0119 -0.3517
18203TIP3    H176100   4.157   3.896   0.942  0.2488 -1.3971 -2.5745
18203TIP3    H276101   4.056   3.829   1.033  1.6078 -1.5423 -1.1415
18204TIP3   OH276102   2.958   1.997  12.172 -0.5722 -0.2811  0.4860
18204TIP3    H176103   2.935   1.905  12.159 -1.6258  0.1960 -1.1218
18204TIP3    H276104   2.877   2.045  12.157  0.1618  0.9712  0.4457
18205TIP3   OH276105   3.110   6.665   5.512 -0.1149 -0.0666 -0.3206
18205TIP3    H176106   3.073   6.577   5.508 -1.4691  0.3189  2.4459
18205TIP3    H276107   3.130   6.687   5.421 -1.2328 -2.5957 -1.2177
18206TIP3   OH276108   5.788   3.880   0.647  0.1183  0.1020 -0.1193
18206TIP3    H176109   5.708   3.926   0.675  0.0241 -0.6622  0.8880
18206TIP3    H276110   5.759   3.790   0.630  0.4701  0.1974 -1.2489
18207TIP3   OH276111   4.913   3.574   1.635 -0.0036  0.1421  0.1702
18207TIP3    H176112   4.836   3.624   1.662 -0.0043  0.3626 -0.2324
18207TIP3    H276113   4.986   3.633   1.651  0.0828 -0.0760  0.5721
18208TIP3   OH276114   6.201   1.695  14.233  0.3530  0.2811  0.7791
18208TIP3    H176115   6.182   1.726  14.321 -1.0815  1.0459  0.2092
18208TIP3    H276116   6.144   1.745  14.176  0.5223 -0.9299 -0.5083
18209TIP3   OH276117   6.094   3.445   0.619 -0.6105  0.2702 -0.2194
18209TIP3    H176118   6.186   3.473   0.615 -0.5254  0.2824  1.5425
18209TIP3    H276119   6.084   3.408   0.706 -1.8598 -1.2937 -1.0081
18210TIP3   OH276120   5.287   0.771   1.075 -0.1412  0.2970  0.0062
18210TIP3    H176121   5.362   0.800   1.023 -0.5136  2.4810  0.6467
18210TIP3    H276122   5.320   0.695   1.124  1.3180  0.5503 -0.5489
18211TIP3   OH276123   1.107   0.191  13.579  0.1221  0.0046  0.1290
18211TIP3    H176124   1.193   0.233  13.571  0.4300 -1.1875 -3.3140
18211TIP3    H276125   1.046   0.254  13.541  0.2546 -1.4851 -2.6674
18212TIP3   OH276126   0.957   6.345  15.683 -0.2532  0.0702 -0.8184
18212TIP3    H176127   0.931   6.304  15.765 -0.5171 -0.1420 -1.0076
18212TIP3    H276128   0.875   6.370  15.641 -0.0819  1.0332 -0.5838
18213TIP3   OH276129   2.897   0.278   1.771  0.4486 -0.2143 -0.6217
18213TIP3    H176130   2.934   0.235   1.693 -0.1505 -1.3365 -0.2961
18213TIP3    H276131   2.956   0.253   1.842  0.2480 -0.2824 -0.4792
18214TIP3   OH276132   2.035   6.026   2.219  0.6925  0.4092  0.7083
18214TIP3    H176133   2.031   5.963   2.147  0.2198  1.3205 -0.0751
18214TIP3    H276134   1.949   6.020   2.262  1.1474 -0.4876  1.5106
18215TIP3   OH276135   4.727   2.026  13.802 -0.2792  0.5531  0.1118
18215TIP3    H176136   4.682   2.009  13.885 -0.7671  1.5111  0.0402
18215TIP3    H276137   4.663   2.001  13.735  1.0662 -2.8305 -0.0092
18216TIP3   OH276138   3.565   2.027  11.351 -0.1382 -0.0699  0.9695
18216TIP3    H176139   3.551   2.122  11.353  0.6760  0.0338  1.7357
18216TIP3    H276140   3.527   2.000  11.267 -1.4766  0.7490  1.2861
18217TIP3   OH276141   6.296   4.823  10.705  0.3521 -0.1293 -0.1642
18217TIP3    H176142   6.381   4.857  10.677 -0.8301  1.7393 -1.6390
18217TIP3    H276143   6.251   4.900  10.741 -0.5511 -1.1965  1.0176
18218TIP3   OH276144   1.920   0.477  11.808  0.3314 -0.5895 -0.4902
18218TIP3    H176145   1.949   0.390  11.781 -0.3551 -0.9388 -0.1104
18218TIP3    H276146   1.832   0.463  11.844  0.4123  0.1824  0.0166
18219TIP3   OH276147   0.869   2.799   0.908  0.4422  0.5373 -0.0718
18219TIP3    H176148   0.929   2.737   0.950 -0.8198 -0.6202  0.0838
18219TIP3    H276149   0.795   2.744   0.881  0.9530  1.3603 -3.2611
18220TIP3   OH276150   4.202   1.552   5.874  0.3291 -0.3247 -0.3240
18220TIP3    H176151   4.273   1.578   5.933  2.2348 -0.3473 -2.4883
18220TIP3    H276152   4.203   1.456   5.877 -0.1614 -0.3155  0.2504
18221TIP3   OH276153   5.954   1.332  12.832  0.6642  0.1234 -0.2603
18221TIP3    H176154   5.901   1.327  12.912  1.1044 -0.9500 -0.0253
18221TIP3    H276155   5.928   1.255  12.782  1.4349  0.0115 -0.4945
18222TIP3   OH276156   0.284   3.489   3.309  0.2858 -0.0724 -0.7505
18222TIP3    H176157   0.366   3.451   3.280 -1.8182 -2.8884 -3.3350
18222TIP3    H276158   0.261   3.552   3.241 -0.3665 -0.3310 -0.7777
18223TIP3   OH276159   3.106   6.816  14.508  0.1658  0.1293 -0.2513
18223TIP3    H176160   3.055   6.773  14.577  0.7334 -1.5532 -0.8614
18223TIP3    H276161   3.048   6.883  14.473 -0.1630  0.9518  1.8029
18224TIP3   OH276162   4.114   4.514  17.124  0.0785  0.1096 -0.9959
18224TIP3    H176163   4.208   4.518  17.103 -0.1945  0.0147 -2.2792
18224TIP3    H276164   4.103   4.576  17.196  0.9609  0.8554 -1.4874
18225TIP3   OH276165   4.747   3.388  12.764 -0.1577 -0.0492 -0.1282
18225TIP3    H176166   4.671   3.382  12.822 -1.3657  0.2847 -1.6372
18225TIP3    H276167   4.715   3.436  12.688  1.8818  1.0696 -0.3058
18226TIP3   OH276168   0.325   3.846  11.580 -0.8018  0.3874  0.0157
18226TIP3    H176169   0.359   3.885  11.499 -1.7424  0.5013 -0.3298
18226TIP3    H276170   0.365   3.760  11.584 -0.5969  0.4570 -0.4703
18227TIP3   OH276171   4.711   1.992   5.262  0.3354  0.1110 -0.0885
18227TIP3    H176172   4.662   1.916   5.293  0.7850 -0.5335 -0.9289
18227TIP3    H276173   4.653   2.033   5.198  0.8118 -0.5458 -0.9466
18228TIP3   OH276174   4.828   1.712  16.595 -0.5865  0.3496 -0.2441
18228TIP3    H176175   4.909   1.689  16.640 -1.2220 -0.5705  0.4579
18228TIP3    H276176   4.827   1.655  16.518 -0.5737  0.3460 -0.2418
18229TIP3   OH276177   2.847   1.340  12.725 -0.1698 -0.5707 -0.7187
18229TIP3    H176178   2.943   1.346  12.721 -0.0161 -1.2502  1.5185
18229TIP3    H276179   2.821   1.405  12.790 -0.9588 -2.4274  0.8817
18230TIP3   OH276180   4.652   6.338   0.653 -0.0544  0.0746 -0.5280
18230TIP3    H176181   4.584   6.350   0.587 -1.1745 -0.0630  0.5882
18230TIP3    H276182   4.685   6.249   0.637  1.5662  0.9916 -2.6061
18231TIP3   OH276183   6.010   0.769   3.027  0.4397 -0.3964  0.3788
18231TIP3    H176184   6.094   0.814   3.027  0.6657 -0.7889 -1.2839
18231TIP3    H276185   6.026   0.687   2.981 -0.1493 -1.8934  2.7774
18232TIP3   OH276186   4.360   3.383  12.541 -0.3280 -0.2146  0.8288
18232TIP3    H176187   4.322   3.442  12.476 -0.3048 -1.5211 -0.3822
18232TIP3    H276188   4.449   3.414  12.552 -0.1620 -0.3146 -0.1800
18233TIP3   OH276189   2.795   1.461   0.476 -0.6007 -0.3193  0.2199
18233TIP3    H176190   2.819   1.372   0.501  1.5925  0.8980  2.7335
18233TIP3    H276191   2.709   1.474   0.515  0.2497 -0.4523  2.2147
18234TIP3   OH276192   3.851   6.151   1.634  0.2901 -0.1916 -0.2587
18234TIP3    H176193   3.901   6.071   1.621  1.8714  1.1460 -2.8603
18234TIP3    H276194   3.794   6.157   1.557 -0.3198  0.8313  0.2582
18235TIP3   OH276195   3.361   3.333   0.277  0.0559 -0.2687 -0.0176
18235TIP3    H176196   3.319   3.270   0.218  0.1150 -0.6077  0.3051
18235TIP3    H276197   3.352   3.295   0.364 -1.0696  0.7994  0.3409
18236TIP3   OH276198   4.910   2.949  16.792 -0.2808 -0.2637 -0.1958
18236TIP3    H176199   4.854   2.873  16.810 -2.1072  0.7855 -1.2595
18236TIP3    H276200   4.949   2.931  16.707 -0.8185  0.0293 -0.5089
18237TIP3   OH276201   1.977   2.411   4.002 -0.3108 -0.0510  0.7594
18237TIP3    H176202   2.043   2.342   3.996  1.2136  1.3972  0.3953
18237TIP3    H276203   1.964   2.423   4.096 -2.5254 -2.5911  0.8361
18238TIP3   OH276204   4.139   3.380   6.606  0.1434  0.1986 -0.0292
18238TIP3    H176205   4.233   3.392   6.618  0.1943 -1.0895  0.9439
18238TIP3    H276206   4.101   3.467   6.619  1.4209  1.2617 -2.9643
18239TIP3   OH276207   3.361   6.179   3.550 -0.1489 -0.0850 -0.0886
18239TIP3    H176208   3.426   6.207   3.614  0.4571  0.2326 -0.8353
18239TIP3    H276209   3.389   6.091   3.524  1.2933  0.9286 -2.0896
18240TIP3   OH276210   2.943   5.827   1.617 -0.0575  0.0161  0.5157
18240TIP3    H176211   2.921   5.788   1.532  2.2239  0.7942 -0.4550
18240TIP3    H276212   3.005   5.766   1.656  1.6622  1.4338  0.0437
18241TIP3   OH276213   3.881   2.682  12.679 -0.5026  0.0964  0.0716
18241TIP3    H176214   3.816   2.611  12.672 -0.5136  0.1809 -0.6397
18241TIP3    H276215   3.908   2.700  12.589  0.2673  0.2957  0.3377
18242TIP3   OH276216   4.991   6.059  14.239  0.1150 -0.5021  0.3502
18242TIP3    H176217   5.042   5.978  14.234 -0.3561 -0.7831  0.1062
18242TIP3    H276218   4.923   6.041  14.304  1.8973  0.7577  2.6515
18243TIP3   OH276219   0.113   4.838  15.016 -0.1375 -0.1436  0.1234
18243TIP3    H176220   0.106   4.746  15.043 -1.4614  0.3334  1.4654
18243TIP3    H276221   0.117   4.834  14.920  0.1272 -1.6143  0.1804
18244TIP3   OH276222   6.426   5.100  13.670  0.0292  0.1536 -0.0584
18244TIP3    H176223   6.488   5.173  13.668 -0.6872  0.7805  0.1409
18244TIP3    H276224   6.358   5.124  13.606  0.0094 -0.5389 -0.3030
18245TIP3   OH276225   5.937   4.870   3.864  0.3895  0.2714  0.0985
18245TIP3    H176226   5.996   4.937   3.899  0.4119 -0.4077  1.3791
18245TIP3    H276227   5.986   4.789   3.871 -0.5328 -0.2359  0.7664
18246TIP3   OH276228   6.617   5.493   4.937 -0.1651 -0.4508 -0.0375
18246TIP3    H176229   6.661   5.567   4.979 -1.0347  0.5861 -0.9319
18246TIP3    H276230   6.653   5.416   4.981 -0.2212  0.5570  1.8417
18247TIP3   OH276231   5.189   1.384  12.361  0.2611  0.3479 -0.0899
18247TIP3    H176232   5.207   1.478  12.366 -0.7025  0.5319 -0.0103
18247TIP3    H276233   5.094   1.377  12.363  0.3061 -0.6043 -0.7004
18248TIP3   OH276234   0.904   6.194   4.529  0.4194  0.1475 -0.1056
18248TIP3    H176235   0.997   6.217   4.535  0.5401  0.2004 -1.8639
18248TIP3    H276236   0.902   6.116   4.474 -0.6190  0.4450 -0.5078
18249TIP3   OH276237   5.465   3.772   3.970 -0.0404  0.2541 -0.3626
18249TIP3    H176238   5.527   3.700   3.984 -1.2946 -0.7508  0.1140
18249TIP3    H276239   5.454   3.811   4.057  0.0674  0.5445 -0.4797
18250TIP3   OH276240   5.385   5.386  16.794  0.0760 -0.7339 -0.2255
18250TIP3    H176241   5.361   5.374  16.703  2.3178  1.0037 -1.0975
18250TIP3    H276242   5.469   5.342  16.803 -0.1032 -0.8617  1.0078
18251TIP3   OH276243   0.456   0.728  12.243 -0.4499 -0.4832 -0.1033
18251TIP3    H176244   0.538   0.728  12.293 -1.0255  0.4970  0.8718
18251TIP3    H276245   0.445   0.819  12.215 -1.7437 -0.3809  0.6972
18252TIP3   OH276246   4.928   0.122  15.759  0.6541 -0.4454  0.2042
18252TIP3    H176247   4.956   0.210  15.786  0.0155  0.2631 -1.4204
18252TIP3    H276248   4.857   0.137  15.698  1.1963 -2.0726 -0.8496
18253TIP3   OH276249   1.228   2.799   1.729 -0.5689  0.2230 -0.9244
18253TIP3    H176250   1.316   2.762   1.739 -0.6480 -0.3426 -2.2876
18253TIP3    H276251   1.172   2.742   1.782  0.1412  1.6623  1.4460
18254TIP3   OH276252   5.678   0.060  15.171 -0.2122 -0.0649  0.7811
18254TIP3    H176253   5.605   0.006  15.141 -0.5299  0.1484  1.1748
18254TIP3    H276254   5.663   0.145  15.128  2.1580 -1.2554 -2.6473
18255TIP3   OH276255   6.008   0.663  11.653  0.0935  0.3902  0.0022
18255TIP3    H176256   5.958   0.704  11.724  2.6414  2.7763  0.5067
18255TIP3    H276257   5.971   0.699  11.573  1.6387  3.0387  0.4064
18256TIP3   OH276258   2.434   0.618   3.601  0.0140 -0.3025  0.7582
18256TIP3    H176259   2.484   0.536   3.595 -0.1164 -0.3168 -0.3258
18256TIP3    H276260   2.363   0.598   3.662  1.6459 -0.1089  2.7726
18257TIP3   OH276261   4.574   2.355   4.865  0.2584 -0.0172 -0.4893
18257TIP3    H176262   4.653   2.330   4.818  1.5036  0.1322  1.4681
18257TIP3    H276263   4.605   2.387   4.950 -1.7708  1.6045 -0.2962
18258TIP3   OH276264   3.996   6.597   3.233  0.0297 -0.8661  0.0838
18258TIP3    H176265   4.075   6.638   3.198 -1.1874  1.1352 -0.4132
18258TIP3    H276266   4.027   6.542   3.305  1.8694 -0.0955 -0.0894
18259TIP3   OH276267   4.322   3.502  15.841  0.3104 -0.0382 -0.3338
18259TIP3    H176268   4.358   3.591  15.836 -1.2057  0.6528  0.7256
18259TIP3    H276269   4.394   3.450  15.878  0.3626  1.2693  1.4919
18260TIP3   OH276270   4.499   2.933   5.618  0.6763  0.3729  0.4767
18260TIP3    H176271   4.439   2.951   5.691  0.2047  0.8558 -0.0227
18260TIP3    H276272   4.443   2.934   5.540  1.1060 -0.5425  0.1405
18261TIP3   OH276273   0.484   6.377  12.012 -0.0486  0.4370  0.2116
18261TIP3    H176274   0.552   6.325  12.056 -0.9292 -0.2428  0.8005
18261TIP3    H276275   0.529   6.455  11.980  0.9292  0.1758  0.9447
18262TIP3   OH276276   0.835   1.238   4.832  0.2623 -0.3343  0.1811
18262TIP3    H176277   0.818   1.151   4.796  0.2007 -0.3784  0.3152
18262TIP3    H276278   0.921   1.262   4.796  0.3968 -0.5599  0.3451
18263TIP3   OH276279   2.889   0.076  14.338 -1.0470  0.5875  0.2561
18263TIP3    H176280   2.868   0.011  14.405  0.4419 -0.2228 -0.0449
18263TIP3    H276281   2.843   0.156  14.366 -3.2474 -0.6915  0.3941
18264TIP3   OH276282   3.594   2.742  12.082  0.4692  0.1113  0.6381
18264TIP3    H176283   3.525   2.675  12.086  0.7182 -0.2064 -0.3532
18264TIP3    H276284   3.672   2.699  12.117  0.8457 -0.3968 -0.8074
18265TIP3   OH276285   3.147   2.374  12.550  0.1626 -0.0207  0.1340
18265TIP3    H176286   3.241   2.354  12.556  0.3433 -0.3072 -2.8155
18265TIP3    H276287   3.142   2.469  12.558  0.9413  0.1903 -1.6268
18266TIP3   OH276288   6.323   5.234  14.838  0.5077  0.5156  0.5538
18266TIP3    H176289   6.361   5.289  14.907  2.9289  0.9800 -1.1190
18266TIP3    H276290   6.329   5.287  14.759 -1.4905 -0.3462 -0.1974
18267TIP3   OH276291   3.211   5.252  12.375  0.2355 -0.2805 -0.4403
18267TIP3    H176292   3.254   5.301  12.445 -0.5241  0.5207 -0.5197
18267TIP3    H276293   3.242   5.162  12.385  1.9195  0.2816 -0.5088
18268TIP3   OH276294   6.116   0.472   0.399 -0.0693  0.2792 -0.0007
18268TIP3    H176295   6.136   0.540   0.334 -0.0536 -0.4100 -0.7271
18268TIP3    H276296   6.021   0.471   0.405 -0.1253 -0.4681 -0.9001
18269TIP3   OH276297   4.867   6.063  16.560 -0.4127 -0.2437  0.2674
18269TIP3    H176298   4.895   5.991  16.503  1.9173  0.6398  0.2292
18269TIP3    H276299   4.869   6.026  16.648  0.2806 -0.3711  0.1990
18270TIP3   OH276300   6.033   5.677   3.714  0.0581  0.4697 -0.0936
18270TIP3    H176301   6.126   5.694   3.727 -0.0084 -0.9061  2.5579
18270TIP3    H276302   6.029   5.584   3.692 -0.8041  0.0065  1.8899
18271TIP3   OH276303   5.868   0.553   1.631 -0.4867  0.3887  0.2276
18271TIP3    H176304   5.776   0.547   1.658 -1.3004  2.7596 -1.8342
18271TIP3    H276305   5.902   0.627   1.681 -0.4358  1.1518 -0.9205
18272TIP3   OH276306   0.560   1.971   4.873  0.7181 -0.5055  0.4639
18272TIP3    H176307   0.537   2.003   4.786  1.7335  0.1125  0.4099
18272TIP3    H276308   0.654   1.951   4.867  1.0637  0.6855  1.7391
18273TIP3   OH276309   2.672   0.575  13.590  0.1492  0.2121 -0.4731
18273TIP3    H176310   2.628   0.505  13.542 -0.9257  1.5863 -1.5728
18273TIP3    H276311   2.721   0.531  13.659 -1.0408 -1.5575 -0.7305
18274TIP3   OH276312   2.011   5.803   3.481 -0.0849  0.2052  0.5647
18274TIP3    H176313   1.962   5.721   3.480 -0.2034  0.2844 -0.3163
18274TIP3    H276314   1.960   5.862   3.427  2.0543 -0.3454 -2.1344
18275TIP3   OH276315   1.406   5.638  11.378 -0.2641  0.0513  0.4308
18275TIP3    H176316   1.393   5.731  11.357 -0.4554 -0.4771 -1.9547
18275TIP3    H276317   1.328   5.595  11.342  0.5368 -1.2067  0.1867
18276TIP3   OH276318   5.418   0.231   1.440 -0.1605 -0.1896  0.2968
18276TIP3    H176319   5.392   0.142   1.466  3.6043 -1.0724  1.3573
18276TIP3    H276320   5.481   0.218   1.370  0.0450  1.6756  0.1151
18277TIP3   OH276321   4.953   4.808   2.083 -0.0365  0.9641  0.2378
18277TIP3    H176322   5.007   4.752   2.028 -0.1995 -0.4397  1.4778
18277TIP3    H276323   4.867   4.766   2.085  0.2753  0.3487  2.4652
18278TIP3   OH276324   0.983   2.802  17.286 -0.2018  0.1731 -0.0736
18278TIP3    H176325   1.016   2.713  17.289 -3.4092 -1.0069  3.0467
18278TIP3    H276326   1.056   2.856  17.318  0.8646 -1.6280  0.5982
18279TIP3   OH276327   3.462   3.584  13.763  0.2307 -1.2360  0.4356
18279TIP3    H176328   3.535   3.565  13.704  0.8276  0.6093  0.5408
18279TIP3    H276329   3.494   3.557  13.849  0.5027 -1.1785  0.3540
18280TIP3   OH276330   4.315   4.113   5.615  0.1490 -0.3677 -0.1160
18280TIP3    H176331   4.233   4.064   5.620 -0.0938  0.0844  0.3441
18280TIP3    H276332   4.363   4.087   5.695  0.7731 -1.1958 -0.7438
18281TIP3   OH276333   0.555   6.158   0.514 -0.0944  0.2034  0.1206
18281TIP3    H176334   0.627   6.164   0.450  1.0811  0.1278  1.4147
18281TIP3    H276335   0.547   6.247   0.548  0.7889 -0.2194  1.4731
18282TIP3   OH276336   0.270   4.769   3.921 -0.0500 -0.0827  0.1450
18282TIP3    H176337   0.268   4.864   3.920  1.2952 -0.0534 -0.8727
18282TIP3    H276338   0.348   4.747   3.973  0.7844 -0.5896 -1.2801
18283TIP3   OH276339   2.675   4.018  14.152  0.0373  0.4471 -0.0573
18283TIP3    H176340   2.749   3.962  14.175 -1.1347 -0.0627  2.6257
18283TIP3    H276341   2.605   3.957  14.128 -0.7021  0.7937  1.1730
18284TIP3   OH276342   6.737   6.113  11.881  0.4450  0.4404 -0.2601
18284TIP3    H176343   6.814   6.111  11.824  0.5231 -1.6936 -0.1014
18284TIP3    H276344   6.665   6.085  11.824 -0.0083  1.2363 -0.0829
18285TIP3   OH276345   1.452   1.641  15.849 -0.1865  0.1252 -0.3775
18285TIP3    H176346   1.362   1.611  15.836  0.0860 -0.8342 -0.1455
18285TIP3    H276347   1.504   1.560  15.847  0.6685  0.6801 -0.5526
18286TIP3   OH276348   3.226   5.317  12.844  0.2896 -0.0677 -0.0975
18286TIP3    H176349   3.211   5.249  12.909  0.6809  0.4548  0.5472
18286TIP3    H276350   3.291   5.280  12.784  0.5342 -0.2375  0.2768
18287TIP3   OH276351   1.352   1.600  11.097  0.4658 -0.0207 -0.3522
18287TIP3    H176352   1.356   1.672  11.159 -2.4289 -0.3841  0.3151
18287TIP3    H276353   1.286   1.627  11.033 -0.7574 -2.1260 -0.0142
18288TIP3   OH276354   6.382   1.528  12.617 -0.3326  0.5833  0.0292
18288TIP3    H176355   6.373   1.623  12.618 -0.5205  0.5928 -1.1655
18288TIP3    H276356   6.450   1.509  12.682 -0.7574  1.4717  0.7496
18289TIP3   OH276357   4.961   0.040   1.529 -0.1222  0.0115  0.5113
18289TIP3    H176358   4.885   0.085   1.566 -0.5762 -0.3537  0.0497
18289TIP3    H276359   4.941   0.034   1.435  0.7464  0.4243  0.3034
18290TIP3   OH276360   6.159   2.111  11.679 -0.2917  0.0784  0.0417
18290TIP3    H176361   6.253   2.100  11.695 -0.2376  0.1549 -0.2295
18290TIP3    H276362   6.128   2.022  11.660 -0.8778 -0.4673  3.3285
18291TIP3   OH276363   5.292   1.550   1.424 -0.0283 -0.3717  0.6554
18291TIP3    H176364   5.238   1.520   1.497  1.1312  0.2924  1.8224
18291TIP3    H276365   5.382   1.536   1.454  0.4756  0.7981 -0.2617
18292TIP3   OH276366   3.869   2.747   5.197  0.4339  0.2955 -0.1328
18292TIP3    H176367   3.819   2.793   5.264 -1.7120 -1.9358 -0.1225
18292TIP3    H276368   3.923   2.814   5.156  0.8394  1.9474  2.9546
18293TIP3   OH276369   3.026   0.360   4.150  0.3448  0.2241 -0.7235
18293TIP3    H176370   3.112   0.398   4.167 -0.6710  1.5923  1.5354
18293TIP3    H276371   2.968   0.435   4.134 -0.3793 -0.6983 -2.6362
18294TIP3   OH276372   0.347   4.147   0.279  0.2708 -0.3740 -0.8105
18294TIP3    H176373   0.275   4.195   0.320  0.6223  0.9813 -1.7550
18294TIP3    H276374   0.426   4.187   0.315  0.5649 -0.2948 -1.5392
18295TIP3   OH276375   6.710   6.640   6.174 -0.2198 -0.8382  0.2783
18295TIP3    H176376   6.651   6.708   6.205  0.0192 -0.5680  0.1406
18295TIP3    H276377   6.706   6.572   6.241 -0.0516 -0.4524  0.6834
18296TIP3   OH276378   4.127   2.329   3.075 -0.3058 -0.2517  0.3838
18296TIP3    H176379   4.072   2.261   3.113 -1.0319 -0.8078 -1.6040
18296TIP3    H276380   4.213   2.316   3.116 -1.3103 -0.1251  2.6110
18297TIP3   OH276381   2.437   0.431  14.336  0.1246 -0.3650  0.1216
18297TIP3    H176382   2.496   0.505  14.344 -2.3076  1.7152 -0.4143
18297TIP3    H276383   2.419   0.405  14.427 -0.8530  1.2614  0.4194
18298TIP3   OH276384   6.721   2.207  17.126  0.0343 -0.0181  0.5064
18298TIP3    H176385   6.680   2.281  17.082 -0.2400 -0.1939  0.4632
18298TIP3    H276386   6.805   2.241  17.157 -0.3051  0.4495  0.9176
18299TIP3   OH276387   5.420   3.928  11.969 -0.0755  0.2207  0.6233
18299TIP3    H176388   5.462   4.003  11.929  1.0567 -0.4517  0.5418
18299TIP3    H276389   5.491   3.876  12.006 -0.7312 -1.3697 -0.2599
18300TIP3   OH276390   2.071   3.705   6.807  0.6834  0.2485  0.3837
18300TIP3    H176391   2.052   3.728   6.898  0.5387 -0.2806  0.4887
18300TIP3    H276392   2.095   3.613   6.810 -2.5456 -0.7037 -0.5449
18301TIP3   OH276393   1.292   5.533   5.670  0.0407  0.0302  0.2233
18301TIP3    H176394   1.326   5.605   5.617 -2.5765 -0.3634 -2.1265
18301TIP3    H276395   1.266   5.574   5.753  0.8016  1.3507 -0.1767
18302TIP3   OH276396   3.784   6.156  16.048  0.0257 -0.6732 -0.4896
18302TIP3    H176397   3.767   6.248  16.067  1.3092 -0.9188  2.1392
18302TIP3    H276398   3.702   6.124  16.010 -1.1864  1.0433  0.5835
18303TIP3   OH276399   2.288   1.457   1.726 -0.1130 -0.1387 -0.3002
18303TIP3    H176400   2.220   1.484   1.788  0.2790 -0.4840  0.2921
18303TIP3    H276401   2.288   1.524   1.658  0.2900  0.9126  0.7275
18304TIP3   OH276402   3.035   2.635  11.323 -0.1317 -0.2432  0.2748
18304TIP3    H176403   3.046   2.721  11.281 -0.6537  0.2632  1.1551
18304TIP3    H276404   2.994   2.581  11.256  1.2647 -0.1473 -0.6803
18305TIP3   OH276405   5.614   0.309  14.202  0.5211  0.6314 -0.3182
18305TIP3    H176406   5.527   0.312  14.162 -0.1571 -1.0406  0.9886
18305TIP3    H276407   5.599   0.323  14.295  1.3964 -1.8180  0.2251
18306TIP3   OH276408   5.981   0.719   6.467 -0.4052 -0.1999 -0.2220
18306TIP3    H176409   5.900   0.671   6.450 -1.4306  0.6565  2.1143
18306TIP3    H276410   5.957   0.811   6.458  0.7601  0.0115 -1.3503
18307TIP3   OH276411   1.865   1.502   5.174  0.4234  0.0515 -0.4532
18307TIP3    H176412   1.810   1.433   5.137 -0.4425  0.6036 -0.2332
18307TIP3    H276413   1.936   1.513   5.112  1.2344 -1.8786  0.1165
18308TIP3   OH276414   5.243   1.638  16.280  0.0375  0.3517 -0.0119
18308TIP3    H176415   5.332   1.613  16.253 -0.0059 -0.2703  0.4052
18308TIP3    H276416   5.251   1.730  16.306  0.1562  0.8454 -1.7821
18309TIP3   OH276417   0.817   3.635   3.198  0.4405  0.3135 -0.0586
18309TIP3    H176418   0.780   3.721   3.214  1.1749  0.5991  0.1144
18309TIP3    H276419   0.902   3.652   3.157  0.3333 -0.3354 -0.5603
18310TIP3   OH276420   0.877   0.667   3.246  0.3309 -0.2909 -0.1798
18310TIP3    H176421   0.967   0.684   3.217  0.8985 -0.8305  1.2297
18310TIP3    H276422   0.878   0.683   3.340 -0.8983 -0.9054 -0.0469
18311TIP3   OH276423   6.221   6.236  14.677  0.0484  0.3096  0.0456
18311TIP3    H176424   6.189   6.318  14.638  0.4800  0.4757  0.0431
18311TIP3    H276425   6.211   6.171  14.607 -1.0689  0.1836  0.3135
18312TIP3   OH276426   5.960   2.883  15.349  0.5478  0.2309  0.2424
18312TIP3    H176427   6.034   2.823  15.357 -0.0463 -0.4934  0.3721
18312TIP3    H276428   5.903   2.861  15.423 -0.6710 -0.4723 -0.8760
18313TIP3   OH276429   0.229   2.956  10.587 -0.3861 -0.0127  0.4930
18313TIP3    H176430   0.308   3.006  10.568 -0.2234  0.4241  2.1809
18313TIP3    H276431   0.192   2.935  10.502  3.1883 -2.9045 -0.4993
18314TIP3   OH276432   0.161   3.729  10.230  0.6326  0.0544 -0.0891
18314TIP3    H176433   0.141   3.662  10.296  0.5234  1.0691  0.9380
18314TIP3    H276434   0.255   3.746  10.242  1.0516 -1.1355 -1.5220
18315TIP3   OH276435   2.993   3.723   6.067 -1.0402 -0.5808 -0.2454
18315TIP3    H176436   2.966   3.737   6.158 -2.6850 -1.8898 -0.4918
18315TIP3    H276437   2.964   3.801   6.021 -2.5115 -1.0161 -0.0940
18316TIP3   OH276438   0.256   2.074   3.639 -0.1243  0.3018  0.4135
18316TIP3    H176439   0.339   2.118   3.618 -0.1476  0.4646  0.6561
18316TIP3    H276440   0.270   1.983   3.613 -0.1265  0.4815 -0.2208
18317TIP3   OH276441   1.072   3.205  12.054 -0.1361 -0.3751 -0.5862
18317TIP3    H176442   1.109   3.276  12.003  1.4037 -0.5963  0.2014
18317TIP3    H276443   1.027   3.149  11.990  1.1819 -0.2871 -1.6015
18318TIP3   OH276444   0.461   4.147  17.015 -0.6164  0.2640 -0.3269
18318TIP3    H176445   0.472   4.119  17.106 -2.5600  2.9376  0.8150
18318TIP3    H276446   0.509   4.083  16.964  0.6068 -1.2475  2.6032
18319TIP3   OH276447   4.836   5.049   1.042  0.6131  0.0572  0.0001
18319TIP3    H176448   4.874   5.015   1.123  0.3899 -2.3569 -0.8733
18319TIP3    H276449   4.891   5.012   0.972  0.4447  1.6199 -0.9885
18320TIP3   OH276450   3.815   3.466   4.113  0.0597 -0.0725  0.5508
18320TIP3    H176451   3.752   3.483   4.183 -2.2451  0.6823 -1.6241
18320TIP3    H276452   3.835   3.373   4.121 -3.0426 -0.8459 -0.0317
18321TIP3   OH276453   3.862   2.265   0.701 -0.0432 -0.2470 -0.4193
18321TIP3    H176454   3.946   2.223   0.718  0.7179  1.7386  0.9123
18321TIP3    H276455   3.823   2.275   0.788 -1.3785 -0.5591 -0.9734
18322TIP3   OH276456   5.808   6.195  15.602 -0.3049  0.1042  0.5908
18322TIP3    H176457   5.785   6.208  15.694  2.5927 -0.1826  1.3928
18322TIP3    H276458   5.865   6.269  15.580 -0.7719  0.0363 -0.9119
18323TIP3   OH276459   4.195   0.873   3.047 -0.3920  0.2730 -0.1454
18323TIP3    H176460   4.229   0.831   3.126  2.0073  2.1551 -0.0888
18323TIP3    H276461   4.272   0.917   3.010 -2.4763  3.3701 -0.9277
18324TIP3   OH276462   3.046   0.611  14.773 -0.0343  0.2491  0.3017
18324TIP3    H176463   3.004   0.553  14.710  1.5875 -1.1701  0.4929
18324TIP3    H276464   3.048   0.696  14.731 -0.7354 -0.2510 -0.7545
18325TIP3   OH276465   6.119   5.484   4.851 -0.2982 -0.0103 -0.1777
18325TIP3    H176466   6.048   5.460   4.910 -1.4409 -0.7679 -1.8289
18325TIP3    H276467   6.164   5.556   4.896 -0.0195 -1.7704  2.4206
18326TIP3   OH276468   6.175   0.669   5.767  0.0364 -0.1668 -0.0229
18326TIP3    H176469   6.117   0.662   5.692 -0.0302 -1.2468  0.1183
18326TIP3    H276470   6.211   0.758   5.762 -2.9675  1.1664  0.8670
18327TIP3   OH276471   2.426   4.014   1.478  0.2868 -0.1652 -0.5158
18327TIP3    H176472   2.444   3.991   1.569  0.1063  0.5248 -0.3086
18327TIP3    H276473   2.335   4.044   1.478  0.3787  0.1112 -0.8779
18328TIP3   OH276474   6.738   2.101   1.305  0.7101  0.7023  0.3860
18328TIP3    H176475   6.794   2.048   1.363 -0.3902  0.9079  1.6593
18328TIP3    H276476   6.658   2.049   1.295  0.1090  1.5723  0.6505
18329TIP3   OH276477   4.614   3.989   6.437 -0.0172 -0.5688 -0.3842
18329TIP3    H176478   4.545   3.923   6.433 -0.3958 -0.3386  1.8189
18329TIP3    H276479   4.666   3.974   6.358 -1.3339 -2.1108 -0.9894
18330TIP3   OH276480   3.060   1.623  12.692 -0.0454  0.0853  0.2787
18330TIP3    H176481   3.058   1.548  12.751  1.3583 -0.6975 -0.6536
18330TIP3    H276482   3.152   1.635  12.670 -0.2044  2.2609  0.6083
18331TIP3   OH276483   2.700   6.263   2.129  0.4587  0.6777  0.1012
18331TIP3    H176484   2.758   6.324   2.176  1.1869  0.3935 -0.4189
18331TIP3    H276485   2.733   6.176   2.153  0.0354  0.5057  0.0630
18332TIP3   OH276486   1.761   5.338   2.549 -0.4169  0.5478 -0.5979
18332TIP3    H176487   1.781   5.380   2.464  1.6917  1.2177  0.1982
18332TIP3    H276488   1.807   5.255   2.546  0.8041  1.1838  0.4445
18333TIP3   OH276489   4.003   3.340  14.103 -0.4682 -0.2721 -0.0524
18333TIP3    H176490   3.911   3.364  14.117 -0.8635 -1.4409 -0.5958
18333TIP3    H276491   4.022   3.277  14.172 -1.3580 -3.3001 -2.4772
18334TIP3   OH276492   3.110   2.445   6.451 -0.3967  0.0631 -0.0590
18334TIP3    H176493   3.180   2.465   6.514 -1.0680  0.6389  0.5209
18334TIP3    H276494   3.071   2.364   6.483  2.3107 -2.2511 -2.3968
18335TIP3   OH276495   5.378   3.423  15.425 -0.1346 -0.0383 -0.0173
18335TIP3    H176496   5.347   3.337  15.452  0.5568 -0.2401  0.1555
18335TIP3    H276497   5.408   3.411  15.335  1.0797 -0.2673  0.4133
18336TIP3   OH276498   1.733   6.044  15.804 -0.2642 -1.1586  0.5040
18336TIP3    H176499   1.791   5.997  15.863  1.6664  1.1487  0.5345
18336TIP3    H276500   1.785   6.057  15.725 -1.1839 -0.1652  0.0482
18337TIP3   OH276501   1.923   4.348  13.345 -0.0109 -0.0530 -0.0260
18337TIP3    H176502   1.908   4.254  13.339 -1.2790  0.1483 -0.1002
18337TIP3    H276503   1.962   4.372  13.261  1.4508 -0.6982  0.4372
18338TIP3   OH276504   0.326   1.343  12.355  0.4218 -0.1758 -0.2241
18338TIP3    H176505   0.361   1.400  12.424  0.5648  1.2151 -1.4112
18338TIP3    H276506   0.306   1.403  12.283 -3.3984 -1.0285 -0.0062
18339TIP3   OH276507   2.853   0.849   1.340 -0.7531  0.0548 -0.0508
18339TIP3    H176508   2.863   0.915   1.408  0.5537  0.9157 -1.0727
18339TIP3    H276509   2.898   0.885   1.264 -1.8231 -1.0882 -1.2560
18340TIP3   OH276510   6.043   5.138   5.319  0.5579 -0.6546  0.1626
18340TIP3    H176511   6.025   5.044   5.327 -0.2662 -0.3385  2.4935
18340TIP3    H276512   6.103   5.156   5.391 -1.4277  1.0948  1.4349
18341TIP3   OH276513   0.812   6.217  13.793  0.0357 -0.3376  0.0878
18341TIP3    H176514   0.788   6.158  13.722 -1.1640 -0.4461  0.5642
18341TIP3    H276515   0.867   6.165  13.851  2.3795  0.2176 -1.5582
18342TIP3   OH276516   3.894   2.295  12.553 -0.3842  0.2624  0.5258
18342TIP3    H176517   3.980   2.272  12.587 -1.3904 -3.8181  0.5410
18342TIP3    H276518   3.912   2.356  12.482  2.6061 -1.2603 -0.1008
18343TIP3   OH276519   4.688   3.143   4.766 -0.0797  0.1810 -0.0530
18343TIP3    H176520   4.649   3.177   4.686  0.0097 -0.1303 -0.2295
18343TIP3    H276521   4.646   3.058   4.779  0.8392 -0.3465 -0.4757
18344TIP3   OH276522   1.669   0.961   5.701  0.5134 -0.7244  0.0204
18344TIP3    H176523   1.633   0.945   5.788  0.6767 -0.0866  0.2046
18344TIP3    H276524   1.652   1.054   5.684  1.9866 -0.4416  0.0678
18345TIP3   OH276525   6.104   2.314   4.898  0.0538  0.4673 -0.2534
18345TIP3    H176526   6.145   2.265   4.969  0.6486 -0.6686 -1.3412
18345TIP3    H276527   6.010   2.308   4.915  0.0505 -2.0619 -0.9755
18346TIP3   OH276528   1.346   2.984  13.974  0.5550 -0.6142 -0.0465
18346TIP3    H176529   1.388   3.025  14.049  3.2626 -0.6563 -1.4419
18346TIP3    H276530   1.277   2.929  14.011 -0.0539  1.5691  2.1636
18347TIP3   OH276531   2.236   6.157  12.957  0.2901  0.2206 -0.2759
18347TIP3    H176532   2.153   6.191  12.922  0.8592  0.0458 -1.8200
18347TIP3    H276533   2.222   6.063  12.963 -0.3664  0.4027  1.5356
18348TIP3   OH276534   6.103   4.171  16.084 -0.0386 -0.2481 -0.3614
18348TIP3    H176535   6.158   4.092  16.079  0.7230  0.3351 -1.3407
18348TIP3    H276536   6.164   4.242  16.105 -0.5114  0.2962 -0.8172
18349TIP3   OH276537   2.040   1.909   6.165 -0.7074 -0.6776  0.2883
18349TIP3    H176538   2.045   1.824   6.210 -0.9645 -0.6293  0.4100
18349TIP3    H276539   2.126   1.949   6.179 -0.9659 -0.4287  1.1977
18350TIP3   OH276540   4.303   1.637   0.053 -0.5340  0.0504 -0.1536
18350TIP3    H176541   4.216   1.673   0.039 -0.0885  1.2192  0.0620
18350TIP3    H276542   4.346   1.642  -0.032 -0.3812  0.2642 -0.0637
18351TIP3   OH276543   5.062   3.971   0.968  0.1777 -0.1969 -0.4218
18351TIP3    H176544   5.090   3.917   0.894  1.1882 -1.2691  0.7231
18351TIP3    H276545   5.004   3.914   1.019  0.4152  0.1517  0.2381
18352TIP3   OH276546   4.107   3.314  10.883  0.1642  0.3169  0.0491
18352TIP3    H176547   4.153   3.336  10.801  0.6190  0.2229  0.2763
18352TIP3    H276548   4.015   3.333  10.864  0.6323  3.3198  0.5343
18353TIP3   OH276549   2.739   6.370  14.664  0.2799  0.0974 -0.7078
18353TIP3    H176550   2.805   6.306  14.692 -1.2278 -1.1644  0.0209
18353TIP3    H276551   2.763   6.450  14.709  0.2099 -0.8587  1.0539
18354TIP3   OH276552   3.405   6.709  12.715 -0.1919  0.0475  0.5606
18354TIP3    H176553   3.366   6.794  12.735 -1.1215 -0.2524  0.0647
18354TIP3    H276554   3.354   6.677  12.640  2.0212  0.3638 -1.1554
18355TIP3   OH276555   5.507   4.528   4.641 -0.4993  0.4278 -0.5640
18355TIP3    H176556   5.553   4.610   4.657 -1.1915  1.2356 -2.6089
18355TIP3    H276557   5.435   4.528   4.705 -0.6883  1.5811 -0.7613
18356TIP3   OH276558   0.592   1.027   0.643  0.5005 -0.0359 -0.2160
18356TIP3    H176559   0.621   0.956   0.586  0.9554  1.2410 -1.5981
18356TIP3    H276560   0.523   1.071   0.594 -1.0429 -0.5952  1.3833
18357TIP3   OH276561   2.574   6.500  15.757 -0.1782  0.7839  0.5109
18357TIP3    H176562   2.582   6.567  15.689  2.5780  1.0759  1.0642
18357TIP3    H276563   2.617   6.423  15.720 -1.6648 -0.1119  0.6231
18358TIP3   OH276564   4.713   3.750   3.933  0.7909 -0.1826  0.1078
18358TIP3    H176565   4.789   3.768   3.988  0.6526  0.7506 -0.0019
18358TIP3    H276566   4.672   3.835   3.919 -1.1426 -0.8609  1.4039
18359TIP3   OH276567   2.439   2.017   4.943 -0.0556 -0.1915  0.0477
18359TIP3    H176568   2.491   2.045   5.018  2.2811  1.0274 -1.9800
18359TIP3    H276569   2.381   2.092   4.926  0.3504  0.0631 -0.2083
18360TIP3   OH276570   6.732   4.190  12.587  0.6754  0.4268  0.3467
18360TIP3    H176571   6.679   4.113  12.566  1.7003 -0.5657  1.2790
18360TIP3    H276572   6.700   4.219  12.672 -0.1951  1.4809 -0.3313
18361TIP3   OH276573   2.163   6.301   6.277 -0.3777 -0.0643  0.5860
18361TIP3    H176574   2.119   6.225   6.316  0.9654 -1.7514 -1.0686
18361TIP3    H276575   2.247   6.306   6.324 -0.2121  0.0207  0.2785
18362TIP3   OH276576   3.991   6.271  12.581 -0.0343 -0.0054  0.4281
18362TIP3    H176577   4.065   6.258  12.640 -0.2147  0.1760  0.6944
18362TIP3    H276578   4.024   6.332  12.514  0.6182 -1.3179 -0.4666
18363TIP3   OH276579   1.821   4.678  14.527 -0.6758 -0.0692  0.0735
18363TIP3    H176580   1.730   4.668  14.555 -0.4889 -2.9462 -0.1969
18363TIP3    H276581   1.844   4.593  14.491  1.9653  0.8074 -0.3742
18364TIP3   OH276582   4.056   5.394   0.089 -0.0368 -0.1125 -0.5102
18364TIP3    H176583   4.017   5.368   0.172 -0.6918  1.3649 -0.3299
18364TIP3    H276584   3.987   5.377   0.024 -0.4112  0.9585 -0.4119
18365TIP3   OH276585   1.905   2.178   4.462  0.6464 -0.4933 -0.1598
18365TIP3    H176586   1.953   2.244   4.513  1.4906 -1.0782 -0.1801
18365TIP3    H276587   1.973   2.119   4.431 -0.0219 -0.9158 -0.8206
18366TIP3   OH276588   2.984   6.399   1.462 -0.0621 -0.6786  0.5003
18366TIP3    H176589   3.031   6.320   1.435  0.3640 -0.1393 -0.3957
18366TIP3    H276590   2.908   6.403   1.404  0.8761  0.5053 -0.7264
18367TIP3   OH276591   6.040   0.264   0.108  0.8472  0.6342  0.8064
18367TIP3    H176592   5.985   0.298   0.179 -0.2149  0.6834 -0.0258
18367TIP3    H276593   6.032   0.329   0.038 -0.2068 -0.7039 -0.3323
18368TIP3   OH276594   5.859   4.368  16.663  0.5870  0.1925  0.0119
18368TIP3    H176595   5.895   4.298  16.608  0.9276  0.2067  0.2187
18368TIP3    H276596   5.780   4.396  16.616  1.3302  0.7863 -0.9138
18369TIP3   OH276597   2.118   0.177   1.858 -0.0700 -0.2572 -0.0339
18369TIP3    H176598   2.149   0.173   1.768  0.7728 -0.4585  0.2663
18369TIP3    H276599   2.053   0.106   1.864 -1.8881  1.2589 -1.1417
18370TIP3   OH276600   6.642   4.385  12.328 -0.4145 -0.3416  0.4065
18370TIP3    H176601   6.659   4.426  12.413 -0.1059 -1.4928  0.9058
18370TIP3    H276602   6.729   4.368  12.292 -0.5397  0.6653 -0.4133
18371TIP3   OH276603   2.658   3.814   4.874 -0.1405 -0.1829 -0.5103
18371TIP3    H176604   2.641   3.824   4.780 -0.4556  1.4962 -0.2877
18371TIP3    H276605   2.752   3.797   4.879  0.0356  0.5500 -1.0903
18372TIP3   OH276606   4.080   5.035   5.182 -0.6494 -0.1328  0.1659
18372TIP3    H176607   4.016   5.031   5.253 -0.4545 -0.1915  0.3403
18372TIP3    H276608   4.067   4.954   5.133 -1.2825  0.2517 -0.3013
18373TIP3   OH276609   0.902   1.011   1.674 -0.2582  0.1537 -0.7368
18373TIP3    H176610   0.969   0.944   1.688 -0.8824 -0.0208  1.5928
18373TIP3    H276611   0.820   0.964   1.670 -0.6324  0.7038  0.2625
18374TIP3   OH276612   3.861   1.807   4.568  0.3416  0.3074  0.6873
18374TIP3    H176613   3.886   1.792   4.659 -0.9664 -0.7373  0.8929
18374TIP3    H276614   3.789   1.870   4.573  1.3379  1.4763  0.2676
18375TIP3   OH276615   3.351   1.980  15.564  0.1007  0.3227  0.2261
18375TIP3    H176616   3.284   1.967  15.631  0.9522  0.9724  1.2156
18375TIP3    H276617   3.334   2.068  15.530 -0.6610 -0.2072 -0.8046
18376TIP3   OH276618   4.646   2.761   0.520 -0.3313  0.1760 -0.3106
18376TIP3    H176619   4.552   2.777   0.526 -0.2547  0.4925  0.1340
18376TIP3    H276620   4.677   2.827   0.458 -0.3827  0.1627 -0.3506
18377TIP3   OH276621   1.863   1.327  12.392 -0.1550 -0.4516  0.3733
18377TIP3    H176622   1.882   1.380  12.469  1.0893 -1.9236  1.1039
18377TIP3    H276623   1.943   1.277  12.376 -0.8854 -1.2250 -1.0030
18378TIP3   OH276624   6.524   6.800  16.242 -0.7618 -0.2047  0.5490
18378TIP3    H176625   6.545   6.892  16.223  0.1024 -0.1216  1.8038
18378TIP3    H276626   6.606   6.764  16.277 -0.2541 -2.2306 -2.5585
18379TIP3   OH276627   5.435   2.662  11.389 -0.0882 -0.7176  0.1179
18379TIP3    H176628   5.381   2.734  11.423 -0.1004 -1.1044  0.9156
18379TIP3    H276629   5.376   2.612  11.332  0.4920  1.1632 -2.2340
18380TIP3   OH276630   4.057   1.351  11.354  0.5138 -0.5480  0.9616
18380TIP3    H176631   4.062   1.390  11.267  1.3458 -1.8464  0.4227
18380TIP3    H276632   4.142   1.370  11.394  0.1689 -0.0366  1.4597
18381TIP3   OH276633   3.711   0.716   3.087 -0.1746 -0.5034  0.5441
18381TIP3    H176634   3.671   0.781   3.030  1.8680  0.0058 -0.3435
18381TIP3    H276635   3.681   0.632   3.053 -0.9088 -0.1219  0.2372
18382TIP3   OH276636   2.617   3.970  13.439  0.0308  0.2849  0.6041
18382TIP3    H176637   2.611   3.876  13.421 -0.6281  0.3092  0.6900
18382TIP3    H276638   2.659   3.975  13.524 -1.8234 -0.0028  1.5542
18383TIP3   OH276639   5.994   2.922   0.539 -0.0695 -0.4746 -0.1772
18383TIP3    H176640   5.949   2.987   0.486 -0.5606 -0.4124  0.3199
18383TIP3    H276641   5.946   2.840   0.523 -0.9407 -0.2233  1.0658
18384TIP3   OH276642   1.440   1.715   0.100 -0.3649 -0.1523  0.2491
18384TIP3    H176643   1.428   1.801   0.058  0.4151  0.5882  1.5335
18384TIP3    H276644   1.364   1.664   0.070 -0.2163  0.5840 -1.4745
18385TIP3   OH276645   1.756   3.286   1.225  0.1280 -0.2450  0.3199
18385TIP3    H176646   1.836   3.324   1.260  1.0050 -0.4493 -1.4120
18385TIP3    H276647   1.764   3.192   1.240 -1.4396  0.0579  3.3938
18386TIP3   OH276648   1.104   6.702   5.889  0.1163  0.3815 -0.3029
18386TIP3    H176649   1.153   6.661   5.959 -0.4190 -0.9860 -0.7022
18386TIP3    H276650   1.115   6.796   5.903 -0.6764  0.1433  2.0956
18387TIP3   OH276651   5.898   2.781   3.557 -0.6714  0.5059  0.6062
18387TIP3    H176652   5.906   2.826   3.473  0.2382  0.4253  0.6374
18387TIP3    H276653   5.810   2.801   3.588 -1.3408 -0.2014 -0.7934
18388TIP3   OH276654   6.057   3.434   5.640  0.5176  0.0743  0.3555
18388TIP3    H176655   6.034   3.476   5.557  0.1636  0.3036  0.5669
18388TIP3    H276656   6.103   3.502   5.689 -0.4735  0.3748  0.8884
18389TIP3   OH276657   0.881   0.620  14.632 -0.4186  0.3043 -0.2435
18389TIP3    H176658   0.973   0.606  14.611 -0.3481 -0.1006  0.3385
18389TIP3    H276659   0.853   0.689  14.572 -0.2447 -0.9087 -1.7464
18390TIP3   OH276660   4.749   0.446  16.261 -0.4043 -0.1578  0.5969
18390TIP3    H176661   4.758   0.540  16.250 -0.7850 -0.5098 -3.4591
18390TIP3    H276662   4.655   0.430  16.265 -0.3231 -0.2869  2.7111
18391TIP3   OH276663   4.008   5.653  16.866  0.2488 -0.0123  0.5266
18391TIP3    H176664   4.045   5.620  16.948  0.7889 -0.6871  0.0171
18391TIP3    H276665   4.082   5.697  16.823  0.0882 -0.0900  0.1739
18392TIP3   OH276666   6.011   4.904   1.459 -0.6727 -0.1778 -0.1869
18392TIP3    H176667   5.948   4.853   1.510 -0.4548 -2.2844 -1.9664
18392TIP3    H276668   6.075   4.935   1.523 -0.7254 -2.2928  0.9081
18393TIP3   OH276669   0.620   3.866  14.974  0.0327  0.1762 -0.6031
18393TIP3    H176670   0.710   3.867  14.940 -0.3276 -0.5044 -1.6002
18393TIP3    H276671   0.573   3.928  14.919 -0.0719  0.6650  0.0335
18394TIP3   OH276672   2.282   5.065  11.957 -0.2007 -0.1534 -0.1250
18394TIP3    H176673   2.207   5.083  12.015 -0.6188 -0.4888 -0.5598
18394TIP3    H276674   2.336   5.144  11.964 -0.1795 -0.2359  0.8241
18395TIP3   OH276675   1.927   5.215  15.849 -0.7362  0.4009  0.5443
18395TIP3    H176676   1.980   5.294  15.853  0.2453 -0.2135 -0.0982
18395TIP3    H276677   1.968   5.156  15.912 -0.2813 -0.2982 -0.3948
18396TIP3   OH276678   4.441   3.520   1.951  0.0003 -0.4396 -0.0108
18396TIP3    H176679   4.505   3.581   1.914  0.4111 -0.9056 -0.0710
18396TIP3    H276680   4.356   3.561   1.934  0.2660  0.0375 -0.1939
18397TIP3   OH276681   4.221   4.976  16.464 -0.4602  0.3924  0.1492
18397TIP3    H176682   4.244   4.987  16.371 -0.6305 -0.4855  0.0004
18397TIP3    H276683   4.256   5.054  16.506 -0.5016  0.8652 -0.6812
18398TIP3   OH276684   3.707   0.402  12.648  0.0210  0.7279 -0.3355
18398TIP3    H176685   3.671   0.329  12.698 -0.5332  0.9335 -0.4242
18398TIP3    H276686   3.797   0.377  12.628  0.4810  0.9786  1.4004
18399TIP3   OH276687   2.397   2.049   3.705 -0.1543  0.1596  0.5117
18399TIP3    H176688   2.421   2.141   3.696 -1.1784  0.1858 -2.5703
18399TIP3    H276689   2.480   2.002   3.712  0.4407  1.1645  0.1988
18400TIP3   OH276690   2.729   6.489   4.621 -0.3263 -0.3665  0.0315
18400TIP3    H176691   2.671   6.524   4.689 -2.4101 -1.2376 -1.2360
18400TIP3    H276692   2.731   6.557   4.554  0.3547 -0.2279  0.1865
18401TIP3   OH276693   4.285   3.211   0.191 -0.2478 -0.1020 -0.3140
18401TIP3    H176694   4.215   3.166   0.143  0.9255  0.7758 -2.9842
18401TIP3    H276695   4.366   3.179   0.151  0.6909  2.3860 -0.5201
18402TIP3   OH276696   5.608   2.321  14.050  0.1708 -0.7122  0.2590
18402TIP3    H176697   5.655   2.377  13.987  1.3896 -0.9336  0.9465
18402TIP3    H276698   5.520   2.314  14.014  1.2292 -2.0937 -2.2497
18403TIP3   OH276699   5.115   3.725  14.387 -0.0039  0.0362  0.6676
18403TIP3    H176700   5.121   3.723  14.292 -0.8606 -0.2949  0.6176
18403TIP3    H276701   5.056   3.653  14.409  1.0960 -0.6260  1.5245
18404TIP3   OH276702   3.993   2.992   4.590 -0.1684  0.5046  0.4689
18404TIP3    H176703   4.022   2.901   4.592  0.6557  0.7439 -0.3505
18404TIP3    H276704   3.960   3.008   4.679  0.0465 -0.4729  0.7348
18405TIP3   OH276705   5.700   4.273  11.625 -0.2489  0.6105 -0.0071
18405TIP3    H176706   5.665   4.214  11.690  0.6586  1.5876  1.3947
18405TIP3    H276707   5.776   4.314  11.667  0.1268  1.5390 -1.5223
18406TIP3   OH276708   0.634   4.804  13.329 -0.3195  0.2440  0.2293
18406TIP3    H176709   0.672   4.738  13.387 -0.3403 -1.3327 -1.4798
18406TIP3    H276710   0.540   4.789  13.335 -0.4253  1.1651  1.0169
18407TIP3   OH276711   1.432   4.354  13.871 -0.1250 -0.0368  0.2899
18407TIP3    H176712   1.426   4.365  13.776 -1.9999  0.0950  0.4006
18407TIP3    H276713   1.489   4.425  13.900 -0.6204  0.7361 -0.5945
18408TIP3   OH276714   1.283   0.588   3.684 -0.2954  0.1954  0.3639
18408TIP3    H176715   1.334   0.507   3.685  0.7178  0.8100 -0.1728
18408TIP3    H276716   1.193   0.560   3.704  0.4684 -0.7274  2.6900
18409TIP3   OH276717   4.002   2.343  14.472 -0.6043 -0.4660  0.7027
18409TIP3    H176718   4.085   2.381  14.444 -0.9291 -0.7607 -0.6864
18409TIP3    H276719   3.951   2.335  14.392 -3.1120  2.3965  1.9255
18410TIP3   OH276720   5.346   2.462  12.007 -0.0412 -0.4304  0.5822
18410TIP3    H176721   5.368   2.441  12.098 -1.8013  0.4434  1.2304
18410TIP3    H276722   5.421   2.431  11.956  1.8020  0.7910  2.5099
18411TIP3   OH276723   1.789   0.309   0.446  0.3668  0.1318  0.0353
18411TIP3    H176724   1.808   0.300   0.353 -3.3107  0.3058 -0.8076
18411TIP3    H276725   1.777   0.403   0.460 -0.3611 -0.0072  0.3901
18412TIP3   OH276726   0.595   4.424  13.006 -0.5017 -0.3527 -0.0148
18412TIP3    H176727   0.600   4.510  12.965  0.8409 -0.1086  0.6466
18412TIP3    H276728   0.519   4.429  13.063 -0.3427  0.4365  0.1288
18413TIP3   OH276729   1.477   2.879   4.629  0.9327 -0.0262 -0.0447
18413TIP3    H176730   1.471   2.971   4.604  0.0491 -0.8650 -3.1615
18413TIP3    H276731   1.569   2.856   4.614  0.8297 -0.0128 -0.7373
18414TIP3   OH276732   4.449   6.202   2.773  0.1913  0.0028 -0.0373
18414TIP3    H176733   4.508   6.169   2.705  1.6793  0.9480  0.7830
18414TIP3    H276734   4.499   6.270   2.818 -0.0569 -1.9196  3.2630
18415TIP3   OH276735   2.242   1.200   2.258 -0.3171 -1.2780 -0.1906
18415TIP3    H176736   2.214   1.122   2.305 -1.5777 -0.2452  0.7891
18415TIP3    H276737   2.337   1.203   2.270 -0.6469 -0.8776  2.5392
18416TIP3   OH276738   2.095   3.998  14.852  0.2291 -0.2872 -0.3438
18416TIP3    H176739   2.145   4.003  14.770  1.1303  0.9725  0.2684
18416TIP3    H276740   2.029   4.067  14.845  0.0938 -0.3950 -0.1499
18417TIP3   OH276741   6.504   2.843   0.792 -0.5699  0.1456  0.0684
18417TIP3    H176742   6.441   2.790   0.742  0.2997 -1.1027  0.2978
18417TIP3    H276743   6.510   2.800   0.877 -0.0140  0.7428  0.3349
18418TIP3   OH276744   0.789   2.434   1.675 -0.0751  0.3505 -1.0070
18418TIP3    H176745   0.822   2.345   1.682  0.2330  0.3831 -2.0136
18418TIP3    H276746   0.828   2.480   1.749  1.4968  0.1897 -1.7353
18419TIP3   OH276747   6.451   3.132  17.158 -0.3166 -0.4239  0.0182
18419TIP3    H176748   6.491   3.144  17.244  0.3986  0.2815 -0.4046
18419TIP3    H276749   6.508   3.068  17.114 -0.5111 -0.5575 -0.0413
18420TIP3   OH276750   2.354   6.651  14.983  0.4759 -0.3074  0.1306
18420TIP3    H176751   2.438   6.618  15.014  0.3624 -1.2981 -0.5964
18420TIP3    H276752   2.316   6.695  15.059  1.7269  0.3060  0.4070
18421TIP3   OH276753   2.455   4.310  12.868 -0.4010  0.0297 -0.2684
18421TIP3    H176754   2.401   4.354  12.934  1.2762  0.6260  0.7260
18421TIP3    H276755   2.466   4.376  12.799  1.1181  0.7750  0.6735
18422TIP3   OH276756   0.743   2.913   5.669  0.5309 -0.2061  0.3945
18422TIP3    H176757   0.734   2.819   5.682  0.8580 -0.7649 -2.9739
18422TIP3    H276758   0.653   2.946   5.672  0.1691 -1.0293 -1.0146
18423TIP3   OH276759   0.409   3.552  12.666 -1.1873  0.1006  0.1849
18423TIP3    H176760   0.351   3.608  12.717 -1.0332 -0.0269  0.5020
18423TIP3    H276761   0.497   3.585  12.684 -1.1742  0.4486 -0.4876
18424TIP3   OH276762   6.537   6.707  11.621  0.5832  0.0111 -0.0965
18424TIP3    H176763   6.566   6.709  11.529 -0.1721  1.5246 -0.3215
18424TIP3    H276764   6.617   6.724  11.671  0.8731 -0.1047 -0.5072
18425TIP3   OH276765   6.263   3.268   5.920 -0.2211  0.0413 -0.6349
18425TIP3    H176766   6.306   3.222   5.848 -1.3819 -0.5500 -0.9540
18425TIP3    H276767   6.243   3.355   5.886  0.6385  0.2901 -0.5129
18426TIP3   OH276768   6.590   2.565  14.544 -0.4097  0.1679  0.4802
18426TIP3    H176769   6.642   2.636  14.508 -2.8321  0.9249 -1.6805
18426TIP3    H276770   6.615   2.488  14.492  1.0129 -0.2405  1.7312
18427TIP3   OH276771   2.029   2.864   0.186 -0.3911  0.3471  0.3379
18427TIP3    H176772   2.060   2.774   0.181 -0.0164  0.3947  1.6339
18427TIP3    H276773   2.025   2.883   0.280 -0.8530  1.5449  0.0863
18428TIP3   OH276774   2.988   2.234  11.313 -0.1252 -0.2440 -0.1344
18428TIP3    H176775   2.950   2.248  11.399 -0.3333  0.0795 -0.2747
18428TIP3    H276776   2.949   2.302  11.258 -2.4013 -2.3541 -1.2301
18429TIP3   OH276777   0.042   5.340  11.224 -1.0043 -0.7770  0.3852
18429TIP3    H176778   0.127   5.300  11.240 -0.5772  0.6441  1.9476
18429TIP3    H276779   0.005   5.291  11.151  0.3000 -2.7088  0.9781
18430TIP3   OH276780   4.820   2.285   4.480  0.0535  0.2855 -0.3898
18430TIP3    H176781   4.857   2.337   4.409  0.7001 -0.8690 -0.9159
18430TIP3    H276782   4.756   2.343   4.522  0.9130  1.5572 -0.8269
18431TIP3   OH276783   1.520   1.484  11.962 -0.4026  0.4749  1.0536
18431TIP3    H176784   1.590   1.472  12.025 -0.8190 -2.2587  1.0414
18431TIP3    H276785   1.561   1.531  11.889  1.4266 -1.1335  1.0151
18432TIP3   OH276786   1.182   4.560  14.537 -0.1191  0.2888 -0.0500
18432TIP3    H176787   1.252   4.625  14.542  0.0329  0.3764 -2.5169
18432TIP3    H276788   1.101   4.612  14.537 -0.1534  0.2531  1.6360
18433TIP3   OH276789   3.700   1.872   3.223  0.3723  0.0507  0.1576
18433TIP3    H176790   3.713   1.906   3.134  1.9419  1.0081  0.7246
18433TIP3    H276791   3.757   1.795   3.227 -1.8094 -1.6272 -0.5419
18434TIP3   OH276792   2.746   0.769   2.687  0.2410 -0.3747  0.1798
18434TIP3    H176793   2.693   0.815   2.752 -0.0655 -0.5003  0.0200
18434TIP3    H276794   2.759   0.682   2.724  1.0020 -0.0922  0.5805
18435TIP3   OH276795   0.019   5.699   4.277 -0.6410  0.2015 -0.5434
18435TIP3    H176796   0.091   5.732   4.224 -0.6852 -2.6077 -2.4944
18435TIP3    H276797  -0.058   5.706   4.220 -1.6701  1.7953  0.9850
18436TIP3   OH276798   0.039   5.256   0.803 -0.2220  0.1918  0.5366
18436TIP3    H176799  -0.030   5.280   0.740 -0.1309  0.0835  0.3950
18436TIP3    H276800   0.067   5.169   0.776  0.3930  0.4839  0.2294
18437TIP3   OH276801   1.908   3.620  12.167  0.7217 -0.1940  0.5228
18437TIP3    H176802   1.846   3.556  12.202  1.5936 -1.5590 -0.3782
18437TIP3    H276803   1.987   3.569  12.149  1.3800  1.1147 -0.3379
18438TIP3   OH276804   0.650   4.957   0.915 -0.3129  0.0432  0.0278
18438TIP3    H176805   0.628   4.876   0.962 -1.2184  0.1387 -0.2370
18438TIP3    H276806   0.581   4.967   0.850  0.2632  0.5812 -0.5093
18439TIP3   OH276807   6.644   6.060  16.900  0.2460  0.0061  0.3320
18439TIP3    H176808   6.557   6.043  16.864  0.5005 -1.7872  0.5186
18439TIP3    H276809   6.698   6.080  16.824  0.1177 -0.8594  0.0139
18440TIP3   OH276810   5.436   3.029   4.753 -0.3065  0.0667 -0.3294
18440TIP3    H176811   5.457   2.993   4.666 -1.1559  1.0160 -0.9456
18440TIP3    H276812   5.379   3.104   4.734  0.3946  0.9508  0.9938
18441TIP3   OH276813   4.173   2.633   3.333  0.5764 -0.3354 -0.3423
18441TIP3    H176814   4.267   2.650   3.345  1.0526 -0.6185 -3.3021
18441TIP3    H276815   4.145   2.698   3.269 -0.7567 -1.6351 -1.1070
18442TIP3   OH276816   2.342   5.101   1.041 -0.0294  0.1475 -0.5035
18442TIP3    H176817   2.352   5.157   0.964  0.5116  0.6178 -0.0960
18442TIP3    H276818   2.274   5.039   1.017  1.4420 -0.9149 -2.0952
18443TIP3   OH276819   5.357   6.488  13.886  0.1296 -0.0175  0.4481
18443TIP3    H176820   5.437   6.470  13.937  0.3330 -1.2498 -0.2936
18443TIP3    H276821   5.376   6.453  13.799 -1.6668 -1.3787  0.5913
18444TIP3   OH276822   3.766   3.683   3.406 -0.1623 -0.3364  0.2895
18444TIP3    H176823   3.751   3.778   3.402 -1.0078 -0.5010 -0.7709
18444TIP3    H276824   3.824   3.665   3.332  1.3375 -0.4216  1.4652
18445TIP3   OH276825   4.975   6.638  14.910 -0.0605 -0.6163  0.3211
18445TIP3    H176826   4.950   6.602  14.995 -0.7144 -1.8082 -0.3681
18445TIP3    H276827   4.910   6.705  14.892 -0.3552 -0.8780  0.4151
18446TIP3   OH276828   4.395   0.087   3.099 -0.0517 -0.3201 -0.5038
18446TIP3    H176829   4.456   0.091   3.172 -0.1656  2.1035 -0.4924
18446TIP3    H276830   4.312   0.120   3.135  0.3635  2.7294 -2.1216
18447TIP3   OH276831   5.923   6.302   4.447  0.0829  0.0291  0.4368
18447TIP3    H176832   5.908   6.223   4.396  0.7943 -0.2419  0.6476
18447TIP3    H276833   5.928   6.272   4.538 -0.8788  0.4731  0.6428
18448TIP3   OH276834   4.460   2.608  16.316 -0.5807  0.4239 -0.4450
18448TIP3    H176835   4.463   2.545  16.387 -0.0254 -1.1209 -1.8055
18448TIP3    H276836   4.442   2.556  16.238 -0.7094  2.0221 -1.5168
18449TIP3   OH276837   1.542   2.615   6.843  0.1468 -0.2644 -0.2745
18449TIP3    H176838   1.582   2.642   6.761  4.0558 -1.9268  0.9454
18449TIP3    H276839   1.530   2.520   6.834 -0.4084 -0.2878  0.6475
18450TIP3   OH276840   6.189   5.935   4.316 -0.0968  0.8208  0.4331
18450TIP3    H176841   6.218   5.969   4.401 -0.1251 -0.6424  1.0447
18450TIP3    H276842   6.266   5.890   4.280 -1.0170 -1.5221  1.2543
18451TIP3   OH276843   4.273   0.692  13.467 -0.3435  0.2359 -0.3129
18451TIP3    H176844   4.290   0.771  13.518 -1.0312  0.4270 -0.3738
18451TIP3    H276845   4.180   0.698  13.444 -0.2404 -0.2682 -0.8712
18452TIP3   OH276846   1.623   2.076  13.981  0.4845 -0.0785 -0.3731
18452TIP3    H176847   1.533   2.075  13.950  0.2455 -0.2509  0.3251
18452TIP3    H276848   1.664   2.000  13.939 -0.0429 -0.7587  0.3565
18453TIP3   OH276849   1.922   0.330  11.447 -0.2692  0.0621 -0.2543
18453TIP3    H176850   2.013   0.308  11.429 -0.0428  1.8067 -1.4202
18453TIP3    H276851   1.925   0.419  11.483 -1.4163 -0.3087  0.8113
18454TIP3   OH276852   2.070   5.323  11.892  0.4247 -0.6472 -0.1350
18454TIP3    H176853   2.062   5.255  11.825 -3.6289  0.1058 -0.5282
18454TIP3    H276854   2.049   5.404  11.847  0.4277  0.2497  1.4334
18455TIP3   OH276855   4.040   0.896   6.135 -0.3985  0.0158 -0.4440
18455TIP3    H176856   4.055   0.852   6.051  0.6781  1.1548 -0.8691
18455TIP3    H276857   3.975   0.963   6.116  0.1587  0.5533 -0.4663
18456TIP3   OH276858   5.176   3.496  13.420 -0.6317  0.1365  0.5074
18456TIP3    H176859   5.158   3.583  13.455 -1.2377  0.2387 -0.0465
18456TIP3    H276860   5.266   3.478  13.445 -0.3371  1.1414  0.1844
18457TIP3   OH276861   5.014   5.146  15.662  0.3299 -0.1240  0.3241
18457TIP3    H176862   4.947   5.214  15.662  0.7767  0.3192  0.6974
18457TIP3    H276863   5.087   5.184  15.711  0.9457 -0.5167 -0.2855
18458TIP3   OH276864   3.953   4.941  13.394  0.1582  0.2692 -0.3553
18458TIP3    H176865   4.039   4.935  13.354  0.7848 -1.1156  1.1257
18458TIP3    H276866   3.943   4.859  13.442 -1.6100  0.7998  0.2389
18459TIP3   OH276867   2.303   2.681  14.196 -0.3812 -0.7252  0.4074
18459TIP3    H176868   2.352   2.599  14.202  1.3007  0.2303 -0.0100
18459TIP3    H276869   2.301   2.701  14.102  3.3292  2.1057  0.8373
18460TIP3   OH276870   6.750   4.783   0.810  0.0364 -0.3088 -0.2587
18460TIP3    H176871   6.740   4.714   0.875  1.0869 -1.9393 -1.7712
18460TIP3    H276872   6.774   4.737   0.730 -1.3332  1.6202 -1.8503
18461TIP3   OH276873   4.119   6.108  13.182 -0.5717 -0.4655 -0.3144
18461TIP3    H176874   4.049   6.116  13.247 -0.4776 -1.4582 -0.0803
18461TIP3    H276875   4.074   6.077  13.103 -1.0622  2.9970 -1.4392
18462TIP3   OH276876   6.208   1.216   3.535  0.1544 -0.3659  0.2103
18462TIP3    H176877   6.215   1.260   3.620  2.1542 -0.6527  0.2361
18462TIP3    H276878   6.291   1.237   3.491 -0.9510 -0.0412 -1.7656
18463TIP3   OH276879   5.418   5.244   2.066  0.0525 -0.1830 -0.0489
18463TIP3    H176880   5.484   5.298   2.109  0.4707 -0.8390  0.1398
18463TIP3    H276881   5.354   5.306   2.033  0.3159  0.4034  0.5324
18464TIP3   OH276882   1.887   5.894   3.703  0.5678  0.3733  0.1706
18464TIP3    H176883   1.810   5.869   3.651  0.5256 -2.9889  1.7307
18464TIP3    H276884   1.961   5.856   3.656  0.7215 -1.0006  1.4898
18465TIP3   OH276885   3.418   3.434  16.073 -0.7119  0.1335  0.3343
18465TIP3    H176886   3.390   3.396  15.990 -2.6699  1.8517  0.1731
18465TIP3    H276887   3.339   3.474  16.110  0.6786  1.6485  1.7981
18466TIP3   OH276888   2.321   6.350  13.256 -0.2255  0.3851  0.2385
18466TIP3    H176889   2.272   6.294  13.316 -0.3168  0.4555  0.2299
18466TIP3    H276890   2.361   6.417  13.311  1.1105 -0.5501  0.4277
18467TIP3   OH276891   6.393   6.400  17.108  0.5847  0.5038 -0.5456
18467TIP3    H176892   6.339   6.478  17.123  1.1932  0.9351 -0.5847
18467TIP3    H276893   6.334   6.326  17.126  0.1929  0.9788  0.1469
18468TIP3   OH276894   4.240   1.090   2.314  0.3525 -0.2355  0.7194
18468TIP3    H176895   4.278   1.008   2.345  0.0857 -0.4222  0.5547
18468TIP3    H276896   4.241   1.147   2.390  2.1692  0.2051  0.3990
18469TIP3   OH276897   2.125   4.763  13.896  0.2782 -0.0276  0.1415
18469TIP3    H176898   2.115   4.669  13.882  2.2476 -0.1062 -0.8864
18469TIP3    H276899   2.067   4.803  13.832 -1.7342 -0.5374  1.6049
18470TIP3   OH276900   0.664   0.228  15.284 -0.1381  0.8582 -0.2786
18470TIP3    H176901   0.744   0.267  15.249  0.3953 -0.9254 -1.1232
18470TIP3    H276902   0.682   0.134  15.288 -1.6838  0.5748  0.8835
18471TIP3   OH276903   3.873   0.946   0.235 -0.2237  0.4698  0.2788
18471TIP3    H176904   3.927   0.963   0.158 -0.2113  0.3683  0.2646
18471TIP3    H276905   3.936   0.917   0.302 -0.0402  1.9541  0.7746
18472TIP3   OH276906   4.963   1.406  10.275 -0.4385 -0.0642 -0.6737
18472TIP3    H176907   5.001   1.386  10.189 -0.2013 -0.5672 -0.4544
18472TIP3    H276908   5.039   1.414  10.333 -0.5537  1.1236 -0.6798
18473TIP3   OH276909   4.717   5.928  14.689 -0.7958  0.2832  0.7906
18473TIP3    H176910   4.803   5.946  14.727 -0.8656 -0.0443  1.1082
18473TIP3    H276911   4.655   5.976  14.744 -0.7401  1.2609  0.0234
18474TIP3   OH276912   1.506   5.529  13.927  0.0105 -0.3279  0.0579
18474TIP3    H176913   1.499   5.588  13.852 -1.7186 -1.4284 -0.6822
18474TIP3    H276914   1.418   5.493  13.937  0.4626 -0.9468  2.0134
18475TIP3   OH276915   1.270   4.043  16.662 -0.4844 -0.3728 -0.0232
18475TIP3    H176916   1.310   3.991  16.592  1.7356  1.1668  0.0622
18475TIP3    H276917   1.207   4.100  16.618  0.1788 -0.1177 -0.6303
18476TIP3   OH276918   3.102   2.819   3.984 -0.3255  0.0899  0.5664
18476TIP3    H176919   3.096   2.745   3.924 -2.3704 -0.0335  0.8695
18476TIP3    H276920   3.188   2.858   3.967 -0.1251 -1.0543 -1.1046
18477TIP3   OH276921   2.463   1.176  12.967 -0.3316 -0.3069 -0.0954
18477TIP3    H176922   2.508   1.130  12.897 -0.2727  0.1553 -0.3583
18477TIP3    H276923   2.422   1.251  12.925  0.7398  0.6790  0.5787
18478TIP3   OH276924   0.741   3.390   6.783  0.2919 -0.1654  0.4617
18478TIP3    H176925   0.805   3.389   6.712 -1.3025  2.5547 -1.1235
18478TIP3    H276926   0.760   3.470   6.832  0.5642 -1.3599  2.3917
18479TIP3   OH276927   5.784   2.166   0.920 -0.2014  0.0440  0.4296
18479TIP3    H176928   5.825   2.250   0.903  2.9397 -1.6794 -1.0256
18479TIP3    H276929   5.806   2.146   1.011  0.4503  0.0335  0.2676
18480TIP3   OH276930   5.767   3.130  11.552  0.2658 -1.0228  0.0761
18480TIP3    H176931   5.819   3.181  11.613 -1.3357  0.0701  0.5768
18480TIP3    H276932   5.738   3.054  11.602 -0.7498 -0.3069  0.6200
18481TIP3   OH276933   6.031   4.929  15.271 -0.0614 -0.0136  0.2070
18481TIP3    H176934   6.084   4.975  15.206 -2.2655  0.9717 -0.9677
18481TIP3    H276935   5.993   4.855  15.224 -1.3261  0.4516  0.4636
18482TIP3   OH276936   3.908   2.555   1.840 -0.1987  0.5072 -0.3143
18482TIP3    H176937   3.987   2.556   1.894  0.1192  1.2466 -0.7887
18482TIP3    H276938   3.837   2.567   1.902  0.0612 -0.0929  0.1095
18483TIP3   OH276939   3.458   1.942  12.158 -0.5104 -0.6287  0.3254
18483TIP3    H176940   3.450   1.975  12.069  1.2852  1.5643  0.9294
18483TIP3    H276941   3.542   1.896  12.160  0.5752  1.3019  1.4213
18484TIP3   OH276942   2.744   1.769  15.893 -0.5915  1.0497  0.0763
18484TIP3    H176943   2.747   1.756  15.798  2.1124 -0.1889  0.2812
18484TIP3    H276944   2.664   1.820  15.908 -1.1757  1.0650 -2.8278
18485TIP3   OH276945   4.678   0.943  16.920  0.2354  0.6714  0.3827
18485TIP3    H176946   4.770   0.922  16.936  0.4094 -0.4395 -1.8075
18485TIP3    H276947   4.669   0.940  16.824 -1.5357  3.1423  0.4206
18486TIP3   OH276948   0.511   4.602   2.572  0.0847 -0.6411 -0.1571
18486TIP3    H176949   0.553   4.550   2.503  1.1022 -0.3790  0.2596
18486TIP3    H276950   0.507   4.543   2.647  2.2112  0.1832  0.6527
18487TIP3   OH276951   3.267   1.917   2.381 -0.3927 -0.0255 -0.1016
18487TIP3    H176952   3.248   2.011   2.383  0.4073  0.2220 -2.1521
18487TIP3    H276953   3.182   1.875   2.367 -0.8303  0.3454  1.4145
18488TIP3   OH276954   2.060   0.978   0.773 -0.1552  0.2308 -0.5225
18488TIP3    H176955   1.993   0.946   0.713  0.1234  0.1910 -0.8148
18488TIP3    H276956   2.116   1.033   0.719  0.2245  0.0201 -0.3467
18489TIP3   OH276957   3.679   4.534   2.928  0.0151 -0.3521  0.2266
18489TIP3    H176958   3.717   4.466   2.872  0.9354 -0.6344  1.1673
18489TIP3    H276959   3.588   4.541   2.900  0.5814 -0.1669 -1.5945
18490TIP3   OH276960   3.150   0.760  15.526 -0.0611  0.4004  0.0183
18490TIP3    H176961   3.064   0.734  15.494 -0.3119  1.0303  0.1905
18490TIP3    H276962   3.207   0.685  15.504 -0.5239  0.2342 -0.6243
18491TIP3   OH276963   0.454   2.759  17.132  0.1367  0.3137 -0.3632
18491TIP3    H176964   0.498   2.764  17.217 -1.1231  0.7496  0.2746
18491TIP3    H276965   0.526   2.753  17.069  1.0632 -1.3343  0.8100
18492TIP3   OH276966   0.020   6.404  15.442 -0.0059 -0.4475 -0.1944
18492TIP3    H176967  -0.055   6.403  15.502  0.8814  0.6331  0.9544
18492TIP3    H276968  -0.008   6.351  15.367 -2.2566  0.6913 -0.1874
18493TIP3   OH276969   3.592   4.389  15.087  0.2182  0.2759 -0.5566
18493TIP3    H176970   3.564   4.465  15.035 -1.0000  0.6285  0.5618
18493TIP3    H276971   3.660   4.347  15.035 -1.2306  0.3945 -2.6187
18494TIP3   OH276972   2.041   2.424  14.661  0.4531  0.3240 -0.4853
18494TIP3    H176973   2.046   2.349  14.602 -0.4818 -0.3356  0.2634
18494TIP3    H276974   2.116   2.414  14.719 -0.6105 -0.9969  0.7138
18495TIP3   OH276975   4.932   5.230   4.117  0.1405 -0.2288 -0.9055
18495TIP3    H176976   4.878   5.300   4.154  2.5786  1.2886 -0.0771
18495TIP3    H276977   4.906   5.226   4.025  1.1401  3.0134 -1.4079
18496TIP3   OH276978   2.701   1.672   0.840  0.0346 -0.1809 -0.4235
18496TIP3    H176979   2.756   1.597   0.862  1.8998  0.2404 -3.3980
18496TIP3    H276980   2.612   1.638   0.836  0.6216 -1.7958  0.2226
18497TIP3   OH276981   2.854   1.074  12.080  0.0978  0.4246 -0.5015
18497TIP3    H176982   2.809   1.147  12.121  2.2638  0.9300  1.0484
18497TIP3    H276983   2.804   0.997  12.106 -0.2070  1.0205  0.6965
18498TIP3   OH276984   2.273   4.245   5.357 -0.1902 -0.8290 -0.2998
18498TIP3    H176985   2.313   4.184   5.295 -2.4391 -2.8006  0.0869
18498TIP3    H276986   2.208   4.292   5.305  0.7629  0.4569 -0.3391
18499TIP3   OH276987   4.676   6.495   0.150 -0.0764  0.3019  0.1940
18499TIP3    H176988   4.675   6.590   0.161  0.4445  0.3786 -0.3520
18499TIP3    H276989   4.589   6.473   0.118  0.1526  0.7421 -0.7597
18500TIP3   OH276990   2.200   2.360  13.941 -0.1177  0.7282  0.8440
18500TIP3    H176991   2.238   2.444  13.968  0.3542 -0.0603  2.7114
18500TIP3    H276992   2.203   2.306  14.020  0.8829 -1.5163 -0.6742
18501TIP3   OH276993   1.452   2.363  17.111  0.4500  0.5602  0.4173
18501TIP3    H176994   1.421   2.435  17.056 -1.4091  0.1396  0.8890
18501TIP3    H276995   1.480   2.296  17.048 -1.6070  0.1057 -0.0564
18502TIP3   OH276996   2.889   3.441  10.637  0.9801 -0.5115  0.2271
18502TIP3    H176997   2.936   3.504  10.692  0.4286 -1.2156  1.5082
18502TIP3    H276998   2.818   3.409  10.692  1.1982 -2.1870 -0.4456
18503TIP3   OH276999   0.894   0.889  15.150 -0.4008  0.2821 -0.6849
18503TIP3    H177000   0.952   0.866  15.078 -0.3867  0.6372 -0.7893
18503TIP3    H277001   0.827   0.944  15.110 -0.9139 -0.2860 -0.6014
18504TIP3   OH277002   0.332   4.746   0.295 -0.1472  0.0208  0.9028
18504TIP3    H177003   0.410   4.765   0.348  0.1633 -0.5531  0.6619
18504TIP3    H277004   0.306   4.658   0.323 -0.5426  0.0981  0.7766
18505TIP3   OH277005   3.218   5.738   0.623  0.2762 -0.7148  0.1064
18505TIP3    H177006   3.128   5.764   0.602  1.0989  0.1843 -2.4620
18505TIP3    H277007   3.224   5.648   0.593 -0.2383 -1.3159  1.7791
18506TIP3   OH277008   4.098   6.414  12.378  0.0049  0.4327  0.1230
18506TIP3    H177009   4.117   6.499  12.417 -0.4178  0.8640 -0.5867
18506TIP3    H277010   4.090   6.432  12.284 -0.5225 -0.3135  0.0152
18507TIP3   OH277011   5.723   4.796   3.374  0.5203 -0.1320 -0.2958
18507TIP3    H177012   5.742   4.804   3.467 -1.0866 -0.5491  0.0742
18507TIP3    H277013   5.688   4.881   3.349  1.4889  0.1694 -0.6632
18508TIP3   OH277014   4.887   6.013  12.909  0.3810  0.4956  0.3154
18508TIP3    H177015   4.844   5.934  12.944 -0.0109  1.1328  1.2940
18508TIP3    H277016   4.853   6.020  12.820  1.4574 -1.1984 -0.2637
18509TIP3   OH277017   0.507   5.005  12.118  0.2575  0.2774 -0.4388
18509TIP3    H177018   0.566   4.995  12.044  2.5445 -0.7090  1.4701
18509TIP3    H277019   0.489   4.915  12.147  0.1670  0.6759  0.7860
18510TIP3   OH277020   2.674   0.646  15.689  0.3454 -0.6039 -0.2526
18510TIP3    H177021   2.651   0.685  15.605  1.0883 -1.4194 -0.8470
18510TIP3    H277022   2.590   0.624  15.729  0.0176 -1.2899 -1.3050
18511TIP3   OH277023   2.431   5.833  15.219  0.0018  0.6171 -0.3991
18511TIP3    H177024   2.339   5.825  15.244  0.2784  0.4132  0.5550
18511TIP3    H277025   2.429   5.879  15.135 -1.1494 -1.9701 -1.8455
18512TIP3   OH277026   3.498   1.348   1.993  0.5411  0.3497  0.0345
18512TIP3    H177027   3.473   1.321   1.905 -1.9242  0.1178  0.7710
18512TIP3    H277028   3.471   1.275   2.049  3.2201 -0.0564  0.8857
18513TIP3   OH277029   6.054   5.995  16.387 -0.1993  0.1328 -0.8143
18513TIP3    H177030   5.985   5.996  16.321 -0.9827 -3.2549 -0.1748
18513TIP3    H277031   6.012   5.958  16.465  1.3266  1.7686  0.8295
18514TIP3   OH277032   1.636   5.702  11.868  0.1362  0.3990  0.2957
18514TIP3    H177033   1.697   5.629  11.880 -1.0617 -0.4276  1.6424
18514TIP3    H277034   1.617   5.702  11.774  1.3654 -0.0264  0.0413
18515TIP3   OH277035   2.121   0.677  13.611 -0.2264 -0.3082 -0.3327
18515TIP3    H177036   2.083   0.591  13.629  0.6587 -0.7871 -0.7338
18515TIP3    H277037   2.084   0.701  13.526 -0.5201 -0.2595 -0.1935
18516TIP3   OH277038   0.494   1.426  15.643  0.1610  0.2423 -0.4828
18516TIP3    H177039   0.494   1.516  15.677  0.1407 -0.1048  0.4571
18516TIP3    H277040   0.464   1.435  15.553 -2.0124  0.9570  0.2754
18517TIP3   OH277041   2.201   4.429  10.799 -0.2561 -0.3196 -0.4806
18517TIP3    H177042   2.234   4.415  10.710  0.8593 -0.1579 -0.1007
18517TIP3    H277043   2.109   4.451  10.787 -0.4786 -1.7169 -1.5076
18518TIP3   OH277044   2.883   1.656   4.061 -0.0569 -0.0727 -0.4650
18518TIP3    H177045   2.977   1.641   4.073 -0.1842  0.1676  0.9934
18518TIP3    H277046   2.842   1.582   4.106 -0.5948  1.4890  1.7157
18519TIP3   OH277047   1.127   4.687  16.551  0.7736  0.6089 -0.1676
18519TIP3    H177048   1.188   4.614  16.557 -1.2728 -1.3436 -2.2196
18519TIP3    H277049   1.056   4.665  16.612  0.7067  1.4366  0.0591
18520TIP3   OH277050   6.552   5.330   2.296 -0.3493 -0.6341  0.0790
18520TIP3    H177051   6.552   5.237   2.315 -3.1251 -0.4054  1.3889
18520TIP3    H277052   6.516   5.371   2.375 -1.4307  1.3274 -1.3948
18521TIP3   OH277053   6.507   0.095  13.809  0.7080  0.2309  0.2096
18521TIP3    H177054   6.537   0.022  13.864  1.7509 -0.6207 -1.4303
18521TIP3    H277055   6.588   0.132  13.774  0.0471  0.7188 -0.7981
18522TIP3   OH277056   3.276   2.839  14.939  0.1841  0.2635  0.9366
18522TIP3    H177057   3.284   2.900  14.866 -0.6880  1.9253  2.2052
18522TIP3    H277058   3.197   2.789  14.920 -0.6965  1.5082  1.3443
18523TIP3   OH277059   2.273   4.008  12.199  0.2563  0.5327  0.7015
18523TIP3    H177060   2.311   4.091  12.169  1.8439  0.0429  1.3023
18523TIP3    H277061   2.189   4.003  12.155  0.0101  2.6078  0.8672
18524TIP3   OH277062   4.101   1.795  14.325 -0.7907  0.5400 -0.4446
18524TIP3    H177063   4.063   1.707  14.321  0.0142  0.1686 -0.0346
18524TIP3    H277064   4.092   1.822  14.416  1.4427 -0.2427  0.0340
18525TIP3   OH277065   0.810   4.002   4.758 -0.1178 -0.5735  0.4560
18525TIP3    H177066   0.788   3.910   4.741 -2.1028 -0.2290  1.0073
18525TIP3    H277067   0.834   4.005   4.850 -0.4158 -0.4811  0.5318
18526TIP3   OH277068   6.166   5.382   1.003 -0.1173  0.6024  0.5412
18526TIP3    H177069   6.245   5.381   0.949 -0.3176 -1.1074  0.2400
18526TIP3    H277070   6.094   5.369   0.941 -0.5018  0.6367  0.9801
18527TIP3   OH277071   3.274   3.011  14.721 -0.3388 -0.1501  0.0989
18527TIP3    H177072   3.346   3.072  14.705  0.0458 -0.0891  1.9211
18527TIP3    H277073   3.195   3.063  14.709 -0.0522  0.0868 -0.7540
18528TIP3   OH277074   6.541   5.075  12.996 -0.1788  0.0517  0.1341
18528TIP3    H177075   6.618   5.064  12.941 -0.9238 -1.3259 -0.6361
18528TIP3    H277076   6.559   5.021  13.073  0.5600  1.4426  0.9786
18529TIP3   OH277077   5.933   1.102  16.607 -0.2328  0.0329  0.1349
18529TIP3    H177078   5.951   1.008  16.615  0.8020  0.3115  1.2092
18529TIP3    H277079   5.906   1.128  16.695  0.1115  0.8760 -0.0073
18530TIP3   OH277080   6.616   1.537   4.313 -0.1296 -0.1299  0.4301
18530TIP3    H177081   6.583   1.618   4.274  0.4330  0.3087  0.8486
18530TIP3    H277082   6.628   1.477   4.239 -1.3002 -0.0954  0.2140
18531TIP3   OH277083   4.454   4.509  16.225 -0.4583  0.4208 -0.1532
18531TIP3    H177084   4.531   4.549  16.265  0.1944 -0.3874 -0.5749
18531TIP3    H277085   4.469   4.414  16.233 -1.4201  0.2552 -0.2095
18532TIP3   OH277086   3.446   3.933   2.636  0.2881 -0.3521  0.6165
18532TIP3    H177087   3.387   4.005   2.658  0.9430  0.4063 -0.0760
18532TIP3    H277088   3.492   3.913   2.718 -1.4146 -1.4250  1.3445
18533TIP3   OH277089   4.846   3.821  13.059  0.3041 -0.3233  0.3646
18533TIP3    H177090   4.930   3.790  13.093  1.1688  0.8833 -0.6112
18533TIP3    H277091   4.799   3.742  13.034  1.0144 -1.0336  1.2504
18534TIP3   OH277092   3.055   1.050  14.334  0.4844 -0.2035 -0.2755
18534TIP3    H177093   3.042   0.983  14.266 -0.2597 -0.5552  0.2068
18534TIP3    H277094   3.011   1.127  14.299 -0.0150 -0.4232 -0.1437
18535TIP3   OH277095   3.207   3.189   1.674 -0.3627 -0.4364  0.4084
18535TIP3    H177096   3.197   3.100   1.640  0.0236 -1.3914  2.6661
18535TIP3    H277097   3.227   3.242   1.597  0.3900 -2.4676 -0.8447
18536TIP3   OH277098   5.544   5.671   5.689  0.2904 -0.8994 -0.2481
18536TIP3    H177099   5.523   5.710   5.775 -0.8662 -0.1142 -0.8650
18536TIP3    H277100   5.514   5.581   5.696 -0.6240 -0.5968 -0.1076
18537TIP3   OH277101   4.657   4.389   5.364  0.0261  0.6670 -0.0539
18537TIP3    H177102   4.603   4.311   5.350 -0.2455  0.9338 -0.4984
18537TIP3    H277103   4.745   4.361   5.340 -0.4153  1.0980 -2.3280
18538TIP3   OH277104   6.426   2.864  16.775 -0.0288 -0.3773  0.2577
18538TIP3    H177105   6.509   2.819  16.765  0.5634  0.6540  0.4685
18538TIP3    H277106   6.411   2.907  16.691 -0.3125 -0.4948  0.2461
18539TIP3   OH277107   2.961   2.998  15.498  0.2699  0.0658 -0.0419
18539TIP3    H177108   2.999   3.083  15.478 -0.0618  0.9205  2.6842
18539TIP3    H277109   2.943   3.002  15.592 -1.4531 -2.3361 -0.2240
18540TIP3   OH277110   5.397   4.635  14.972 -0.4011  0.1300 -0.2210
18540TIP3    H177111   5.350   4.705  14.926 -1.4865 -0.9816 -0.8305
18540TIP3    H277112   5.488   4.663  14.972 -0.1091 -0.5378 -4.3937
18541TIP3   OH277113   3.338   1.234   3.605  0.3217 -0.0381  0.4586
18541TIP3    H177114   3.378   1.206   3.687  0.0777  2.0255  1.3253
18541TIP3    H277115   3.275   1.166   3.584 -0.0532 -0.2899  2.3339
18542TIP3   OH277116   5.055   2.102   3.788  0.0307  0.9421 -0.0274
18542TIP3    H177117   4.974   2.108   3.838 -1.2468 -2.3528 -1.5579
18542TIP3    H277118   5.029   2.116   3.697  1.5110  1.7134 -0.3587
18543TIP3   OH277119   1.074   0.829   2.029  0.5719  0.4084 -1.3195
18543TIP3    H177120   1.080   0.781   2.112  0.0431 -0.5604 -1.8243
18543TIP3    H277121   0.992   0.878   2.035 -0.1058 -0.6434 -1.7581
18544TIP3   OH277122   4.136   6.736   3.951 -0.1140 -0.1255  0.0165
18544TIP3    H177123   4.088   6.818   3.935  1.0909  0.3792 -1.0135
18544TIP3    H277124   4.173   6.747   4.039 -1.7729 -0.4797  0.7894
18545TIP3   OH277125   6.781   3.645  14.567 -0.1030 -0.2939  0.4900
18545TIP3    H177126   6.813   3.637  14.477  0.5040 -2.5550  0.8743
18545TIP3    H277127   6.697   3.598  14.566 -0.7362  0.8262  0.7961
18546TIP3   OH277128   4.955   0.927   4.142 -0.2823 -0.5291 -0.4388
18546TIP3    H177129   5.036   0.977   4.133 -1.0207  1.3900  2.6417
18546TIP3    H277130   4.886   0.990   4.118 -1.0709 -0.8133  1.0367
18547TIP3   OH277131   1.438   3.229   2.634  0.1922 -0.2927  0.0342
18547TIP3    H177132   1.363   3.203   2.580  0.7950 -1.3370 -0.3266
18547TIP3    H277133   1.476   3.304   2.589 -1.0733  0.7261  0.6249
18548TIP3   OH277134   5.878   5.775   2.630 -0.1464 -0.0831 -0.6298
18548TIP3    H177135   5.970   5.797   2.643  0.3756 -1.1128 -2.3663
18548TIP3    H277136   5.874   5.680   2.644 -0.7400 -0.2058 -1.5451
18549TIP3   OH277137   3.499   0.050   5.111 -0.0468 -0.2835  0.0934
18549TIP3    H177138   3.433  -0.010   5.144  0.7498 -0.0468  2.2328
18549TIP3    H277139   3.454   0.102   5.044 -1.3699 -1.6613 -0.0992
18550TIP3   OH277140   0.448   6.711  15.967  0.8808  0.2981 -0.1218
18550TIP3    H177141   0.396   6.631  15.959  1.8894 -0.2899 -0.9614
18550TIP3    H277142   0.391   6.780  15.933  0.0420 -0.0788  0.5134
18551TIP3   OH277143   4.936   1.669   0.218 -0.6535 -0.3135  0.3860
18551TIP3    H177144   4.917   1.617   0.295 -1.3449  0.5461  0.8097
18551TIP3    H277145   4.906   1.758   0.241 -0.4797  0.0345 -0.6994
18552TIP3   OH277146   1.223   0.529  15.379 -0.0741 -0.3719 -0.3316
18552TIP3    H177147   1.220   0.443  15.420 -0.2787  0.4348  1.4266
18552TIP3    H277148   1.217   0.512  15.285 -0.2388 -2.2554  0.0029
18553TIP3   OH277149   6.007   0.502   2.890 -0.3862  0.1626  0.1092
18553TIP3    H177150   5.935   0.438   2.898  0.6253 -0.8926  0.9434
18553TIP3    H277151   6.082   0.449   2.862  0.7511  0.8056  1.9275
18554TIP3   OH277152   1.414   1.578   1.121 -0.2623 -0.3628  0.0963
18554TIP3    H177153   1.356   1.510   1.154  1.2794 -0.9398  1.7340
18554TIP3    H277154   1.439   1.548   1.033 -1.8934 -0.4172 -0.3700
18555TIP3   OH277155   1.600   6.067  11.504  0.0928 -0.1804  0.0293
18555TIP3    H177156   1.670   6.023  11.456  0.3542 -0.1618  0.3949
18555TIP3    H277157   1.641   6.100  11.583 -0.2734  0.0536  0.1265
18556TIP3   OH277158   6.634   6.152   2.715  0.5085  0.0746 -0.2582
18556TIP3    H177159   6.707   6.173   2.657  1.9719 -0.5217  1.3345
18556TIP3    H277160   6.670   6.090   2.778 -0.2049  2.9886  3.1845
18557TIP3   OH277161   6.533   5.424  14.276  0.5306 -0.5439  0.5373
18557TIP3    H177162   6.541   5.373  14.195 -0.1489 -1.0573  0.7881
18557TIP3    H277163   6.478   5.498  14.251  1.5358  0.0816  0.1677
18558TIP3   OH277164   4.111   3.195   3.795  0.1773 -0.3919  0.0216
18558TIP3    H177165   4.043   3.164   3.735  0.1251 -0.9686  0.3673
18558TIP3    H277166   4.185   3.217   3.738 -1.4258  3.4923 -0.6868
18559TIP3   OH277167   4.324   0.545  15.738 -0.1621 -0.0554 -0.1845
18559TIP3    H177168   4.237   0.582  15.755  0.0885 -0.1705  1.3447
18559TIP3    H277169   4.306   0.455  15.712 -0.4677 -0.2473  0.6784
18560TIP3   OH277170   4.626   4.959   2.264 -0.1538 -0.4680  0.5812
18560TIP3    H177171   4.584   4.939   2.348 -0.2438 -0.5788  0.5104
18560TIP3    H277172   4.659   4.875   2.233 -0.8498 -0.5711  0.1125
18561TIP3   OH277173   4.321   5.679  13.843  0.0838 -0.3830 -0.0116
18561TIP3    H177174   4.231   5.661  13.816  0.1996  1.7860 -1.9458
18561TIP3    H277175   4.319   5.768  13.877  1.6095 -0.1395 -0.5188
18562TIP3   OH277176   5.136   3.115   5.359  0.2957  0.2506  0.4681
18562TIP3    H177177   5.144   3.200   5.401 -3.4241  0.5555  0.6641
18562TIP3    H277178   5.112   3.055   5.430  0.0133 -0.3873 -0.1607
18563TIP3   OH277179   3.674   3.103  10.504 -0.2856 -0.2091 -0.4753
18563TIP3    H177180   3.644   3.024  10.549  0.2696 -0.2553 -0.1812
18563TIP3    H277181   3.740   3.140  10.562 -0.3225  0.3081 -0.7595
18564TIP3   OH277182   1.144   0.669   6.285 -0.6189  0.5210  0.7593
18564TIP3    H177183   1.204   0.622   6.343  0.1720 -0.4382 -0.8079
18564TIP3    H277184   1.130   0.753   6.328 -0.6149 -0.4563  2.6989
18565TIP3   OH277185   1.745   2.788  13.722 -0.1591  0.4709  0.1560
18565TIP3    H177186   1.662   2.833  13.740  0.1285  1.7166 -1.5173
18565TIP3    H277187   1.813   2.852  13.745  0.2867  0.2685 -0.5772
18566TIP3   OH277188   6.378   2.034  16.634  0.5702 -0.3028  0.1244
18566TIP3    H177189   6.343   2.043  16.723  0.1976  0.3220 -0.0858
18566TIP3    H277190   6.452   1.975  16.644  0.7048 -0.0095  0.8992
18567TIP3   OH277191   4.487   2.072  12.384 -0.0899 -0.1860  0.4889
18567TIP3    H177192   4.544   2.000  12.359  1.2549  1.2040 -0.5403
18567TIP3    H277193   4.485   2.129  12.307  0.8590  2.1306  2.1034
18568TIP3   OH277194   5.993   1.283  13.980  0.4829 -0.1677 -0.6996
18568TIP3    H177195   6.001   1.340  13.903  0.2847  0.5608 -0.1822
18568TIP3    H277196   5.901   1.288  14.005  0.7273  0.3087  0.1221
18569TIP3   OH277197   0.552   3.188   5.081  0.0441  0.0986  0.0985
18569TIP3    H177198   0.516   3.142   5.005 -0.7124 -0.0206  0.5289
18569TIP3    H277199   0.514   3.144   5.157  0.1155  0.7779  0.5346
18570TIP3   OH277200   1.023   6.540   5.235 -0.1289  0.2577  0.3880
18570TIP3    H177201   1.013   6.541   5.330 -1.6031  1.0510  0.2401
18570TIP3    H277202   1.001   6.629   5.207 -1.2615 -0.3849 -0.8476
18571TIP3   OH277203   2.585   6.319  11.808  0.3522  0.1033 -0.0762
18571TIP3    H177204   2.607   6.355  11.722  0.2686 -1.3326 -0.7052
18571TIP3    H277205   2.571   6.226  11.793  0.6737 -0.2312  1.5624
18572TIP3   OH277206   6.325   2.691   6.191  0.1474  0.4641 -0.4220
18572TIP3    H177207   6.381   2.765   6.169 -0.4931  1.6206  1.6996
18572TIP3    H277208   6.370   2.648   6.264  0.5210 -1.2766 -1.6432
18573TIP3   OH277209   5.386   2.288  12.996  0.0684 -0.2713  0.5352
18573TIP3    H177210   5.345   2.340  12.927 -0.3643 -0.0972  0.9152
18573TIP3    H277211   5.471   2.329  13.009 -0.2409  0.3020  0.7791
18574TIP3   OH277212   4.773   1.307   5.604 -0.3378 -0.2559 -0.3310
18574TIP3    H177213   4.838   1.373   5.629 -0.3911  0.7786 -2.8564
18574TIP3    H277214   4.715   1.301   5.680  1.7943 -0.1080  1.3834
18575TIP3   OH277215   5.534   1.322  12.726 -0.1601  0.5465  0.1464
18575TIP3    H177216   5.556   1.414  12.741 -2.0791  1.0693 -0.0716
18575TIP3    H277217   5.589   1.296  12.653 -0.3966  1.8449 -0.5166
18576TIP3   OH277218   4.712   4.417  15.155  0.2754 -0.0776  0.2970
18576TIP3    H177219   4.758   4.359  15.095  1.2124  0.4021  0.5498
18576TIP3    H277220   4.619   4.396  15.142  0.5304 -0.6690 -0.5898
18577TIP3   OH277221   4.208   5.921   4.654  0.6005  0.2833 -0.4666
18577TIP3    H177222   4.198   5.918   4.750 -1.3773 -1.1207 -0.6930
18577TIP3    H277223   4.163   6.002   4.628 -0.1146 -0.0743 -0.3479
18578TIP3   OH277224   3.695   5.510  15.358 -0.3166 -0.2844  0.7512
18578TIP3    H177225   3.669   5.471  15.441 -0.3180  0.1039  0.9304
18578TIP3    H277226   3.754   5.446  15.319  0.5874  0.0542  1.5741
18579TIP3   OH277227   5.921   6.414  12.058  0.2585  0.0284 -0.7600
18579TIP3    H177228   5.933   6.508  12.043 -0.2116  0.4125  1.1918
18579TIP3    H277229   5.960   6.398  12.144  1.4804 -1.8184 -1.6277
18580TIP3   OH277230   3.722   0.193   3.638 -0.1122 -0.2038  0.6399
18580TIP3    H177231   3.752   0.128   3.574 -0.6650  0.1996 -0.0422
18580TIP3    H277232   3.760   0.276   3.608 -1.6774  0.2730 -0.1086
18581TIP3   OH277233   5.680   4.839   2.434 -0.3621  0.1230 -0.1216
18581TIP3    H177234   5.716   4.768   2.381 -3.4251 -0.5643 -1.4128
18581TIP3    H277235   5.689   4.917   2.380  1.9915  0.5422  0.8429
18582TIP3   OH277236   6.582   2.055  15.900  0.3143  0.2927 -0.4841
18582TIP3    H177237   6.596   2.025  15.810  0.7044 -1.2611  0.0795
18582TIP3    H277238   6.551   1.977  15.946  2.1447  0.5458  1.2174
18583TIP3   OH277239   3.664   1.995   4.535  0.1702  0.2742  0.5211
18583TIP3    H177240   3.676   2.065   4.471  0.0739 -2.0820 -2.1805
18583TIP3    H277241   3.571   2.001   4.560 -0.1972  0.2118 -0.7946
18584TIP3   OH277242   2.975   3.019   5.884  0.2701 -0.3369 -0.2095
18584TIP3    H177243   2.964   3.115   5.885  2.2093 -0.1047  1.3028
18584TIP3    H277244   3.029   3.002   5.807 -1.1314 -0.3732 -1.2142
18585TIP3   OH277245   3.641   0.205   5.681 -0.1962  0.1344 -0.3586
18585TIP3    H177246   3.675   0.260   5.752  1.9114 -0.1921 -1.0706
18585TIP3    H277247   3.682   0.120   5.696 -1.9098 -0.7111 -0.3916
18586TIP3   OH277248   0.101   4.333  12.249 -0.0570  0.1246  0.7793
18586TIP3    H177249   0.192   4.303  12.244  0.0835  0.8549 -1.3571
18586TIP3    H277250   0.083   4.372  12.164 -1.6369  2.1351  1.9639
18587TIP3   OH277251   3.562   3.022   1.041 -0.6168 -0.0531  0.4496
18587TIP3    H177252   3.610   3.075   0.977 -0.4267  0.1878  0.7922
18587TIP3    H277253   3.473   3.058   1.040 -0.4169  0.4478  0.8816
18588TIP3   OH277254   4.940   3.205   1.261  0.6968 -0.3803 -0.6866
18588TIP3    H177255   4.920   3.229   1.352  0.6324 -2.8266 -0.0342
18588TIP3    H277256   4.978   3.118   1.267  1.0876 -0.3914 -2.9907
18589TIP3   OH277257   6.188   5.905   2.020  0.4756 -0.0402 -0.3267
18589TIP3    H177258   6.131   5.837   2.055  0.5896  0.7779  1.5095
18589TIP3    H277259   6.184   5.894   1.925 -1.1055 -1.2970 -0.1224
18590TIP3   OH277260   1.128   3.095   4.010 -0.4350  0.6150 -0.5926
18590TIP3    H177261   1.063   3.055   3.952 -1.1389  2.4575 -1.1352
18590TIP3    H277262   1.076   3.142   4.075  0.3317  1.8599 -0.8547
18591TIP3   OH277263   4.885   3.251  13.871  0.2624  0.0256  0.4531
18591TIP3    H177264   4.962   3.282  13.918 -0.2566  1.3842  0.4229
18591TIP3    H277265   4.863   3.323  13.812 -0.7723 -0.5385  0.1468
18592TIP3   OH277266   1.449   1.055   6.555 -0.1476 -0.2084  0.3604
18592TIP3    H177267   1.437   1.017   6.642  0.5815 -4.0177 -1.1185
18592TIP3    H277268   1.536   1.026   6.527 -1.0475 -0.5229 -2.3119
18593TIP3   OH277269   6.263   3.701  11.170  0.0599 -0.2785  0.4800
18593TIP3    H177270   6.259   3.764  11.098 -0.8862 -0.2584  0.5364
18593TIP3    H277271   6.354   3.701  11.198  0.0437  1.1843  0.5753
18594TIP3   OH277272   3.069   6.752   0.896 -0.2742 -0.5891  0.8029
18594TIP3    H177273   3.156   6.731   0.930  0.5668  0.3966 -0.6702
18594TIP3    H277274   3.009   6.713   0.959  1.2322 -0.2732  2.5037
18595TIP3   OH277275   4.444   4.246   6.045 -0.1245 -0.1745 -0.1773
18595TIP3    H177276   4.501   4.243   6.122  0.1902 -0.5296 -0.4245
18595TIP3    H277277   4.391   4.166   6.052 -0.3411 -0.0298 -0.1452
18596TIP3   OH277278   0.993   3.579  15.767  0.4831  0.0404  1.0188
18596TIP3    H177279   1.013   3.672  15.758  1.2551 -0.3039 -1.0604
18596TIP3    H277280   1.076   3.539  15.793 -0.1122  0.0597  3.0398
18597TIP3   OH277281   0.065   4.814   2.326  0.2414 -0.0927 -0.9926
18597TIP3    H177282   0.148   4.817   2.373  0.3075 -1.0513 -1.0297
18597TIP3    H277283   0.065   4.727   2.285 -0.4251  0.2132 -1.6336
18598TIP3   OH277284   5.556   4.007  16.756 -0.1011 -0.3385 -0.2772
18598TIP3    H177285   5.497   3.950  16.708 -0.7192 -1.0075  1.2339
18598TIP3    H277286   5.582   4.075  16.693 -0.7383 -1.2874 -1.5763
18599TIP3   OH277287   5.101   5.473   2.307  0.6644 -0.1019 -0.1415
18599TIP3    H177288   5.188   5.436   2.322  0.0662 -1.2565  0.5021
18599TIP3    H277289   5.074   5.505   2.394  0.6137  0.6452 -0.4248
18600TIP3   OH277290   2.902   4.781   1.385 -0.3116  0.5852 -0.7645
18600TIP3    H177291   2.843   4.748   1.453 -0.4232  2.2273 -0.0335
18600TIP3    H277292   2.867   4.744   1.303 -1.5707  0.4798 -0.2003
18601TIP3   OH277293   1.911   6.500   3.477  0.3531  0.2812 -0.1562
18601TIP3    H177294   1.854   6.569   3.444 -0.8361 -0.3229  0.5917
18601TIP3    H277295   1.851   6.435   3.513  1.5389  0.1329  1.6285
18602TIP3   OH277296   0.408   4.493   0.467  0.0979  0.1278 -0.3770
18602TIP3    H177297   0.347   4.429   0.503  0.0653  0.7705  0.7037
18602TIP3    H277298   0.478   4.440   0.428 -1.1734 -0.6176 -1.7171
18603TIP3   OH277299   0.179   5.795  14.841  0.2264 -0.5935  0.0481
18603TIP3    H177300   0.214   5.729  14.900 -1.3763 -0.8322  0.7614
18603TIP3    H277301   0.093   5.762  14.815  1.1810 -0.8324 -3.0229
18604TIP3   OH277302   1.598   3.292   3.979  0.2319 -0.8444  0.0771
18604TIP3    H177303   1.585   3.371   3.927  0.1354  0.5037  2.1054
18604TIP3    H277304   1.693   3.283   3.987  0.3955 -3.1184 -3.3428
18605TIP3   OH277305   2.998   1.090  15.834  0.2584 -0.8377  0.4556
18605TIP3    H177306   2.958   1.047  15.758 -3.2211 -0.0600  1.7995
18605TIP3    H277307   2.932   1.085  15.903  2.0838  1.4099  2.4518
18606TIP3   OH277308   1.476   0.381  12.786  0.6647 -0.1258 -0.1915
18606TIP3    H177309   1.473   0.396  12.881 -0.4092  1.2178 -0.4216
18606TIP3    H277310   1.567   0.399  12.762  0.8677 -0.1686  0.5272
18607TIP3   OH277311   3.617   5.621  10.873  0.3627  0.0667  0.4412
18607TIP3    H177312   3.570   5.614  10.790 -2.2705 -0.0108  1.8640
18607TIP3    H277313   3.683   5.688  10.858 -0.8894  0.9357 -1.3598
18608TIP3   OH277314   4.859   5.379  17.099 -0.2922  0.0871 -0.2989
18608TIP3    H177315   4.781   5.420  17.137 -0.7280 -0.5672 -0.4820
18608TIP3    H277316   4.930   5.403  17.159 -0.7278  0.2462  0.1576
18609TIP3   OH277317   3.337   1.047  16.222  0.2890  0.1275  0.0904
18609TIP3    H177318   3.313   1.007  16.138 -0.6716 -0.8448  0.8142
18609TIP3    H277319   3.269   1.018  16.283  1.6784 -0.2332  1.5069
18610TIP3   OH277320   1.534   2.552  13.605  0.7052 -0.5868 -0.1479
18610TIP3    H177321   1.521   2.647  13.606  0.3894 -0.6160 -0.9507
18610TIP3    H277322   1.553   2.532  13.513  0.3059 -1.3586 -0.0622
18611TIP3   OH277323   3.411   2.871   4.060  0.0342 -0.2284  0.2565
18611TIP3    H177324   3.432   2.956   4.099  1.5847 -0.5019  0.0620
18611TIP3    H277325   3.482   2.814   4.088  0.6263 -0.6954 -2.0687
18612TIP3   OH277326   0.695   5.961  13.068 -0.1298  0.0804  0.0494
18612TIP3    H177327   0.754   5.971  12.993  1.3155  0.3677  1.2169
18612TIP3    H277328   0.666   6.051  13.087  1.1937  0.2923  1.1654
18613TIP3   OH277329   2.425   2.137   2.423  0.3962 -0.0832 -0.4423
18613TIP3    H177330   2.363   2.071   2.455  0.5623 -1.2458 -2.4430
18613TIP3    H277331   2.395   2.219   2.463 -1.2423 -0.9530  0.1860
18614TIP3   OH277332   4.689   4.195  16.811 -0.7268  0.1613 -0.0937
18614TIP3    H177333   4.705   4.230  16.723 -1.3715  0.6803 -0.0029
18614TIP3    H277334   4.634   4.118  16.796 -0.7170  0.1651 -0.1518
18615TIP3   OH277335   3.214   3.535  13.631  0.2143 -0.7923 -0.5366
18615TIP3    H177336   3.253   3.622  13.626  0.5773 -0.9304 -0.1045
18615TIP3    H277337   3.287   3.475  13.622  0.1810 -1.0514  0.8227
18616TIP3   OH277338   3.887   0.659  16.247  0.4408 -0.7922 -0.0754
18616TIP3    H177339   3.968   0.704  16.224  0.3445 -0.8900 -0.6096
18616TIP3    H277340   3.828   0.676  16.174 -0.6349  0.8003  1.1408
18617TIP3   OH277341   6.776   0.488   6.015  0.6103 -0.2388 -0.2901
18617TIP3    H177342   6.714   0.523   6.079 -0.2013  0.1433 -1.2760
18617TIP3    H277343   6.792   0.561   5.955  1.8804 -0.3940 -0.1452
18618TIP3   OH277344   5.577   2.501   1.620 -0.4533  0.1292 -0.3553
18618TIP3    H177345   5.495   2.454   1.605 -0.2338 -0.6029  0.6800
18618TIP3    H277346   5.551   2.582   1.663 -0.6742  0.1322 -0.4925
18619TIP3   OH277347   1.347   4.476   4.353 -0.4354  0.0810 -0.4054
18619TIP3    H177348   1.269   4.469   4.409 -1.9376  0.8881 -2.3124
18619TIP3    H277349   1.385   4.388   4.355 -0.9724 -0.1388  1.1441
18620TIP3   OH277350   4.640   3.193   4.202 -0.4432 -0.4328  0.1115
18620TIP3    H177351   4.700   3.188   4.276 -0.9094 -0.0405  0.5221
18620TIP3    H277352   4.571   3.130   4.221 -0.2288 -0.7938 -0.2988
18621TIP3   OH277353   5.538   6.205   2.856  0.6000  0.3234  0.4129
18621TIP3    H177354   5.596   6.280   2.847 -0.3252  0.9204 -0.7745
18621TIP3    H277355   5.587   6.142   2.909  1.9144  1.2201  0.2768
18622TIP3   OH277356   4.673   5.737  14.922  0.1092  0.0905 -0.4378
18622TIP3    H177357   4.608   5.789  14.875  0.7777  0.1425 -1.3169
18622TIP3    H277358   4.709   5.677  14.856 -0.4523 -1.3009  0.4983
18623TIP3   OH277359   6.284   1.929   1.229 -0.1232  0.1384  0.5339
18623TIP3    H177360   6.301   1.884   1.312  1.3344 -0.7292 -0.2345
18623TIP3    H277361   6.370   1.942   1.190 -0.8192  0.2937 -0.9925
18624TIP3   OH277362   1.605   5.674  11.590 -0.5906  0.4077  0.4259
18624TIP3    H177363   1.680   5.701  11.537 -0.8511 -2.7497 -1.6160
18624TIP3    H277364   1.538   5.649  11.527 -1.7528 -1.1728  2.2214
18625TIP3   OH277365   1.258   4.963  14.403  0.2724  0.6555 -0.1617
18625TIP3    H177366   1.319   5.029  14.370 -1.1528  1.3392 -1.5098
18625TIP3    H277367   1.190   5.013  14.448 -0.2446  0.0272 -0.2284
18626TIP3   OH277368   2.960   1.944   5.185  0.4215 -0.3024 -0.1013
18626TIP3    H177369   2.936   1.968   5.274 -1.3680  0.7200 -0.8300
18626TIP3    H277370   2.981   1.851   5.190 -0.6456 -0.4870  1.2121
18627TIP3   OH277371   0.487   5.912  12.029 -0.2089 -0.2014  0.2189
18627TIP3    H177372   0.529   5.997  12.045  1.0571 -0.6858 -0.4266
18627TIP3    H277373   0.416   5.931  11.968  0.0486  0.3983  0.0994
18628TIP3   OH277374   2.681   3.801   3.184  0.2379  0.4577  0.0302
18628TIP3    H177375   2.647   3.874   3.132  0.2956 -0.6885 -1.6918
18628TIP3    H277376   2.765   3.831   3.216  0.0004  1.3601 -0.1920
18629TIP3   OH277377   1.332   1.412  14.903  0.4406 -0.1615  0.6345
18629TIP3    H177378   1.386   1.355  14.957  3.0024  0.4786 -1.1730
18629TIP3    H277379   1.338   1.376  14.815 -1.4431  0.3973  0.2448
18630TIP3   OH277380   5.401   6.228  15.382  0.5987  0.1000  0.0582
18630TIP3    H177381   5.312   6.195  15.375  1.0598 -1.1339 -0.2127
18630TIP3    H277382   5.392   6.316  15.418 -0.8613  0.9038 -2.2265
18631TIP3   OH277383   3.844   0.897  14.577 -0.1961  0.5014 -0.3977
18631TIP3    H177384   3.919   0.884  14.635 -0.7291  2.1292  0.7100
18631TIP3    H277385   3.880   0.891  14.489  0.9950 -0.0605  0.1258
18632TIP3   OH277386   6.531   2.340  11.641  0.0275 -0.2421 -0.0664
18632TIP3    H177387   6.501   2.298  11.721 -3.0966 -0.3236 -1.2026
18632TIP3    H277388   6.490   2.426  11.641  1.1097  0.2987 -0.9161
18633TIP3   OH277389   3.654   2.554  13.820 -0.0680  0.1050  0.2844
18633TIP3    H177390   3.679   2.529  13.908 -1.0017  0.3627  0.6284
18633TIP3    H277391   3.676   2.479  13.765  0.7171  0.0335  0.6977
18634TIP3   OH277392   3.596   4.733   3.711 -0.2662 -0.3943  0.0072
18634TIP3    H177393   3.525   4.699   3.657 -1.3121  0.5905  0.7343
18634TIP3    H277394   3.598   4.675   3.787 -2.6988  1.6544  1.7241
18635TIP3   OH277395   0.221   5.228   2.215  0.0502  0.7591 -0.0173
18635TIP3    H177396   0.237   5.308   2.164  1.4145  1.5649  1.6412
18635TIP3    H277397   0.149   5.185   2.169 -0.2017  2.5641 -1.3735
18636TIP3   OH277398   5.522   1.787   3.234  0.1262 -0.8978  0.2246
18636TIP3    H177399   5.588   1.842   3.276  0.1885 -0.3429 -0.5810
18636TIP3    H277400   5.571   1.736   3.169 -0.2003 -0.6636 -0.2054
18637TIP3   OH277401   3.738   3.955  12.908  0.7252 -0.2929 -0.3092
18637TIP3    H177402   3.811   4.006  12.873  0.1290 -0.2844 -1.5666
18637TIP3    H277403   3.663   4.015  12.906  0.6300 -0.3722  0.7571
18638TIP3   OH277404   6.154   3.348  13.348  0.0779 -0.2076 -0.2014
18638TIP3    H177405   6.088   3.299  13.299 -1.1674 -0.1204  1.3596
18638TIP3    H277406   6.105   3.395  13.415  1.7102 -0.1148  0.9655
18639TIP3   OH277407   3.119   3.375  15.002  0.1903 -0.2655 -0.3435
18639TIP3    H177408   3.151   3.319  15.073 -0.5774  0.4152  0.5581
18639TIP3    H277409   3.056   3.433  15.045 -1.4460 -0.8694 -1.8838
18640TIP3   OH277410   6.492   1.762  14.435 -0.5378 -0.0314 -0.2316
18640TIP3    H177411   6.561   1.827  14.446 -1.0382  0.5524 -0.5560
18640TIP3    H277412   6.463   1.742  14.525 -1.1642  1.0237 -0.1990
18641TIP3   OH277413   5.996   3.524   6.446 -0.3599  0.4389  0.1909
18641TIP3    H177414   5.968   3.581   6.518  0.2790 -0.1310  0.9011
18641TIP3    H277415   5.979   3.435   6.479  0.8409  0.1425  0.0303
18642TIP3   OH277416   0.461   3.082  11.240  0.0948  0.2761  0.3000
18642TIP3    H177417   0.498   3.030  11.311  0.3730 -0.7323 -0.5696
18642TIP3    H277418   0.369   3.056  11.237  1.0378 -3.0972 -2.6199
18643TIP3   OH277419   1.069   5.450   4.984 -0.5153  0.0603 -0.1344
18643TIP3    H177420   0.995   5.426   5.040  0.6084 -1.1688  0.8530
18643TIP3    H277421   1.130   5.495   5.044 -0.5886  1.3668 -1.0087
18644TIP3   OH277422   1.395   0.998  15.627 -0.5621  0.7085  0.0060
18644TIP3    H177423   1.333   0.928  15.608  0.6403 -0.4380  0.1945
18644TIP3    H277424   1.360   1.041  15.705 -1.9230  1.0739 -0.7887
18645TIP3   OH277425   0.043   4.675   6.015  0.2823  0.5605 -0.1096
18645TIP3    H177426   0.122   4.673   6.070  1.8788 -3.1014 -2.3362
18645TIP3    H277427  -0.014   4.608   6.052 -0.0743  0.4256 -0.8853
18646TIP3   OH277428   6.146   0.788  10.710 -0.5547 -0.2141 -0.0955
18646TIP3    H177429   6.111   0.701  10.728  1.3772 -1.2071 -0.9415
18646TIP3    H277430   6.097   0.820  10.635  0.2270 -1.5195 -1.1781
18647TIP3   OH277431   5.837   6.693   0.741 -0.4565 -0.7389 -0.1876
18647TIP3    H177432   5.930   6.714   0.750  0.0474 -2.8676 -0.1054
18647TIP3    H277433   5.803   6.696   0.830 -0.2167 -0.9926 -0.0856
18648TIP3   OH277434   3.534   4.552  11.992  0.4261  0.0129 -0.7112
18648TIP3    H177435   3.450   4.595  11.972  0.3031 -0.7550 -1.8760
18648TIP3    H277436   3.598   4.601  11.939  0.3242 -1.0428 -1.8357
18649TIP3   OH277437   2.926   3.594  11.321 -0.4051  0.4119  0.4816
18649TIP3    H177438   2.840   3.613  11.359  0.0597  0.3156  1.5935
18649TIP3    H277439   2.971   3.542  11.388 -1.1468 -3.4704 -1.8871
18650TIP3   OH277440   6.044   2.358   2.015 -1.2035 -0.2240  0.1154
18650TIP3    H177441   6.133   2.350   2.051 -1.1357  0.1112  0.0224
18650TIP3    H277442   5.997   2.282   2.051 -0.2970 -1.6171 -1.5746
18651TIP3   OH277443   3.097   3.526   4.772  0.0145  0.0259  0.5746
18651TIP3    H177444   3.161   3.546   4.841 -0.0932  0.1182  0.6499
18651TIP3    H277445   3.013   3.553   4.809 -0.1665 -0.7769  0.7589
18652TIP3   OH277446   4.531   0.455  11.966  0.3567  0.3033  0.3179
18652TIP3    H177447   4.524   0.544  11.930 -0.1200  0.9704  1.9980
18652TIP3    H277448   4.481   0.401  11.905  1.4352  1.0227 -1.2424
18653TIP3   OH277449   6.355   6.744   4.516  0.7006  0.2204 -0.2519
18653TIP3    H177450   6.271   6.702   4.535  1.1766 -1.6806 -2.1600
18653TIP3    H277451   6.420   6.689   4.561  0.8115  2.9711  3.1437
18654TIP3   OH277452   4.081   0.629   3.264  0.1238 -0.5031  0.4599
18654TIP3    H177453   4.174   0.606   3.257  0.4523  0.8179  0.2146
18654TIP3    H277454   4.041   0.590   3.186  0.7120 -0.0282 -0.0908
18655TIP3   OH277455   1.278   3.951  11.115  0.1704 -0.0977 -0.0356
18655TIP3    H177456   1.311   3.984  11.199  0.0494  0.1156 -0.0725
18655TIP3    H277457   1.285   4.026  11.055  0.1492 -0.2165 -0.1864
18656TIP3   OH277458   2.573   3.507  12.440  0.2357  0.3615  0.2593
18656TIP3    H177459   2.645   3.449  12.414  1.5903  2.3721 -0.6361
18656TIP3    H277460   2.616   3.591  12.458 -2.0799  2.0979 -2.0001
18657TIP3   OH277461   6.775   2.310   1.463  0.3053 -0.1320  0.2326
18657TIP3    H177462   6.770   2.284   1.555 -4.5776  0.5541  0.3225
18657TIP3    H277463   6.759   2.229   1.414 -0.1038  0.0343  0.0887
18658TIP3   OH277464   0.678   2.704  11.297 -0.1024 -0.0106  0.4933
18658TIP3    H177465   0.586   2.726  11.285 -0.3867  0.6590  3.5443
18658TIP3    H277466   0.720   2.731  11.216 -2.4540  0.3949 -0.6342
18659TIP3   OH277467   3.975   1.701  10.980 -0.5825 -0.4820  0.5904
18659TIP3    H177468   3.889   1.736  10.961 -0.2730  0.7785  1.4335
18659TIP3    H277469   4.000   1.742  11.063  0.8747 -0.7274  0.2926
18660TIP3   OH277470   5.998   3.079  12.226  0.0721 -0.1499 -0.1282
18660TIP3    H177471   6.049   3.106  12.150  0.0903 -0.0630 -0.0847
18660TIP3    H277472   6.058   3.091  12.300  0.3692 -1.1181 -0.2050
18661TIP3   OH277473   5.999   1.064  11.019 -0.0933 -0.0934 -0.2865
18661TIP3    H177474   5.916   1.050  11.064  0.1940 -0.1601  0.2318
18661TIP3    H277475   5.978   1.058  10.926 -0.3221 -2.1604 -0.1220
18662TIP3   OH277476   1.552   1.036   6.207  0.0709  0.1234 -0.0485
18662TIP3    H177477   1.615   1.061   6.275 -0.1639 -0.8557  0.5446
18662TIP3    H277478   1.521   0.950   6.234  0.1895 -0.4087 -1.5711
18663TIP3   OH277479   2.973   5.593  11.422 -0.1040 -0.7027 -0.1240
18663TIP3    H177480   2.881   5.594  11.395 -0.0330  0.3201 -0.3550
18663TIP3    H277481   3.019   5.551  11.349 -0.2670 -0.3936 -0.4039
18664TIP3   OH277482   4.612   6.195  14.042  0.1916  0.1483  0.1829
18664TIP3    H177483   4.628   6.215  13.950 -1.0633  1.0007  0.1391
18664TIP3    H277484   4.527   6.151  14.043  0.9393 -1.3382  0.7639
18665TIP3   OH277485   6.423   6.555  13.141  0.6981  0.3979 -0.4230
18665TIP3    H177486   6.518   6.545  13.134  0.8130  0.5939  0.7343
18665TIP3    H277487   6.394   6.471  13.176  0.5416  0.6531  0.0549
18666TIP3   OH277488   2.982   5.812   3.331  0.3025  0.5835 -0.1474
18666TIP3    H177489   3.077   5.812   3.347 -0.2241  1.1876  3.6484
18666TIP3    H277490   2.959   5.720   3.320  0.8873  0.0861  2.4798
18667TIP3   OH277491   3.246   3.351  12.096 -0.3764 -0.0132  0.1208
18667TIP3    H177492   3.222   3.438  12.066 -0.7546 -0.9361 -2.3794
18667TIP3    H277493   3.332   3.335  12.057  0.2271 -0.2934  1.5474
18668TIP3   OH277494   4.655   3.031  15.080 -0.1547 -0.3539  0.4126
18668TIP3    H177495   4.732   2.975  15.086  0.4197  0.3783  0.0412
18668TIP3    H277496   4.686   3.117  15.109 -0.4960  0.2485 -0.9437
18669TIP3   OH277497   1.810   1.751  13.296  0.1413  0.2210 -0.4316
18669TIP3    H177498   1.735   1.700  13.328 -1.0953  2.4824  0.3577
18669TIP3    H277499   1.880   1.686  13.286 -2.1534 -2.1275 -2.1199
18670TIP3   OH277500   4.796   3.097   3.192  0.1109 -0.1412  0.3606
18670TIP3    H177501   4.735   3.051   3.249  0.1103  0.6456  0.9953
18670TIP3    H277502   4.827   3.171   3.243  0.3588  0.3948 -0.5438
18671TIP3   OH277503   3.659   2.303   0.520 -0.1753 -0.1747  0.3195
18671TIP3    H177504   3.677   2.394   0.495  0.3510 -0.6044 -0.8935
18671TIP3    H277505   3.705   2.292   0.603 -0.7543  0.8488  0.7952
18672TIP3   OH277506   0.223   3.604  11.814  0.0269 -0.1592 -0.4220
18672TIP3    H177507   0.247   3.663  11.885  0.9649 -2.0306  0.8563
18672TIP3    H277508   0.176   3.532  11.856 -1.4617 -0.1623 -2.0021
18673TIP3   OH277509   6.159   1.756   3.979 -0.3421  0.2546  0.6388
18673TIP3    H177510   6.161   1.726   4.070  1.4287  0.2580  0.6180
18673TIP3    H277511   6.172   1.677   3.927  1.5539  0.6408  0.4975
18674TIP3   OH277512   4.509   2.902   3.697  0.4136  0.1150  0.3860
18674TIP3    H177513   4.550   2.840   3.757  1.2837  2.0393  1.8472
18674TIP3    H277514   4.478   2.973   3.754 -2.3822  0.0849 -1.0173
18675TIP3   OH277515   6.385   3.017  14.294 -0.1680 -0.0117  0.3420
18675TIP3    H177516   6.361   2.928  14.269  0.7766 -0.2309  0.1729
18675TIP3    H277517   6.316   3.072  14.257 -1.6445 -0.8037  1.8416
18676TIP3   OH277518   4.954   0.738   1.894 -0.7518 -0.1454 -0.3954
18676TIP3    H177519   5.030   0.736   1.835 -0.4221 -0.1066  0.0300
18676TIP3    H277520   4.979   0.682   1.967 -0.8021  0.5303  0.1441
18677TIP3   OH277521   4.618   1.262  11.506 -0.2277 -0.2417  0.0904
18677TIP3    H177522   4.703   1.220  11.519 -1.2681 -3.1450 -1.8267
18677TIP3    H277523   4.569   1.241  11.586  0.2812 -0.0123  0.4651
18678TIP3   OH277524   2.605   2.583   1.086  0.4562  0.2494 -0.2587
18678TIP3    H177525   2.593   2.573   0.992  0.7376 -1.4096 -0.1476
18678TIP3    H277526   2.594   2.494   1.121  0.7729  0.7670  1.2180
18679TIP3   OH277527   0.874   5.514   1.207 -0.4012  0.0936  0.4398
18679TIP3    H177528   0.926   5.483   1.281  1.0074 -0.6952 -0.8516
18679TIP3    H277529   0.827   5.436   1.176  0.1890  0.0823 -0.4371
18680TIP3   OH277530   2.679   3.896   0.290 -0.1666  0.1985  0.3494
18680TIP3    H177531   2.641   3.937   0.368 -1.2475  2.0598 -1.1103
18680TIP3    H277532   2.627   3.817   0.277  0.5849 -0.6019  1.9867
18681TIP3   OH277533   3.104   1.081  13.368 -0.6087 -0.0521  0.2209
18681TIP3    H177534   3.085   1.168  13.334 -1.2467 -0.6529 -1.0038
18681TIP3    H277535   3.150   1.097  13.450  1.9994  1.4712 -1.4579
18682TIP3   OH277536   1.107   5.126   5.091  0.2663 -0.4134 -0.0236
18682TIP3    H177537   1.035   5.124   5.029  2.0546  0.3098 -2.1998
18682TIP3    H277538   1.103   5.213   5.130  0.0131 -0.3505 -0.1908
18683TIP3   OH277539   4.297   1.738  10.717 -0.1564  0.6356 -0.7294
18683TIP3    H177540   4.259   1.805  10.773  0.0336 -0.1963  0.4179
18683TIP3    H277541   4.267   1.761  10.629 -0.9935  1.5935 -0.2102
18684TIP3   OH277542   6.500   2.305   5.528 -0.3055  0.2522  0.7703
18684TIP3    H177543   6.529   2.288   5.439 -0.1766 -0.9124  1.0307
18684TIP3    H277544   6.420   2.356   5.517 -1.1213 -1.1628 -0.0489
18685TIP3   OH277545   1.156   4.505  12.127 -0.3770  0.4397 -0.7595
18685TIP3    H177546   1.223   4.437  12.118 -1.3448 -0.4743 -1.1058
18685TIP3    H277547   1.203   4.578  12.168  0.7164 -0.3640 -0.5257
18686TIP3   OH277548   5.512   4.198  11.218  0.0547 -0.1358  0.0935
18686TIP3    H177549   5.547   4.272  11.168  0.3430 -0.5012 -0.2406
18686TIP3    H277550   5.583   4.134  11.218  0.4658  0.2901  1.8745
18687TIP3   OH277551   4.820   4.968  13.028  0.0730  0.3198  0.2944
18687TIP3    H177552   4.880   4.932  12.964  0.8105 -0.2931  1.3156
18687TIP3    H277553   4.810   5.060  13.004  0.3239  0.0858 -0.6992
18688TIP3   OH277554   0.679   0.181   0.403  0.4212  0.0767 -0.8961
18688TIP3    H177555   0.667   0.137   0.319  0.5384  0.6637 -1.2228
18688TIP3    H277556   0.757   0.235   0.391 -0.4430  1.3469 -0.9130
18689TIP3   OH277557   3.922   0.317  11.650 -0.0050 -0.3805 -0.1851
18689TIP3    H177558   3.898   0.385  11.588  0.3925 -0.7692 -0.7665
18689TIP3    H277559   3.917   0.360  11.736 -0.7980  0.0852 -0.4556
18690TIP3   OH277560   0.863   5.317  10.932  0.7902  0.1628  0.5561
18690TIP3    H177561   0.782   5.355  10.896  1.1743  1.1187  0.6757
18690TIP3    H277562   0.921   5.308  10.856 -0.2227 -2.6848  0.0702
18691TIP3   OH277563   3.913   2.535   3.160 -0.4729  0.8690  0.1010
18691TIP3    H177564   3.896   2.564   3.249  0.5373 -1.4379  1.0930
18691TIP3    H277565   3.993   2.482   3.167 -0.3455  0.7001 -2.1836
18692TIP3   OH277566   1.331   5.395   3.537  0.5855  0.2837  0.6128
18692TIP3    H177567   1.362   5.341   3.464 -3.3759 -0.3023 -0.7746
18692TIP3    H277568   1.317   5.333   3.608  0.3253  0.1565  0.4541
18693TIP3   OH277569   5.773   3.392   0.726  0.2122  0.0480 -0.0512
18693TIP3    H177570   5.829   3.440   0.665  0.1196  1.8700  1.2538
18693TIP3    H277571   5.735   3.322   0.674  0.1633  1.5356 -2.0588
18694TIP3   OH277572   5.665   5.917   2.740 -0.5434  0.6351 -0.2986
18694TIP3    H177573   5.749   5.879   2.715 -0.4894 -0.1374  0.9638
18694TIP3    H277574   5.679   5.949   2.829 -0.9186  2.6464 -0.9463
18695TIP3   OH277575   6.053   4.572   0.845  0.3601  0.2292  0.6196
18695TIP3    H177576   6.134   4.530   0.874 -0.0845 -0.5569  0.7447
18695TIP3    H277577   5.989   4.551   0.914 -0.0547  0.4880  0.3197
18696TIP3   OH277578   4.392   1.459  11.783 -0.5066  0.0047  0.2065
18696TIP3    H177579   4.376   1.548  11.813  0.5410  0.1498  0.3606
18696TIP3    H277580   4.332   1.405  11.836  0.0934  0.4417  1.3443
18697TIP3   OH277581   4.728   2.851   5.430 -0.0114 -1.0159 -0.0300
18697TIP3    H177582   4.710   2.887   5.343  0.1339  1.3118  0.8784
18697TIP3    H277583   4.648   2.867   5.480  0.5567 -0.7000  0.7875
18698TIP3   OH277584   3.552   0.695  12.028 -0.3780 -0.1294 -0.1392
18698TIP3    H177585   3.456   0.693  12.036 -0.1738 -1.2578  2.2408
18698TIP3    H277586   3.573   0.788  12.022 -1.4926  0.2293  1.2745
18699TIP3   OH277587   1.604   5.014  16.278 -0.2284  0.2252  0.2005
18699TIP3    H177588   1.656   4.975  16.209 -0.3235 -1.4631  1.0451
18699TIP3    H277589   1.667   5.034  16.348 -0.3081  0.7768  0.1167
18700TIP3   OH277590   2.541   1.911  11.681  0.4761 -0.0186 -0.1580
18700TIP3    H177591   2.575   1.934  11.767 -0.4136  0.6363  0.0347
18700TIP3    H277592   2.610   1.860  11.639  1.9849  1.9346 -0.0841
18701TIP3   OH277593   3.075   4.924  11.282  0.1632 -0.6377  0.6515
18701TIP3    H177594   3.161   4.942  11.319  0.0210 -1.5425  1.4231
18701TIP3    H277595   3.094   4.882  11.198  0.4694 -0.4183  0.6080
18702TIP3   OH277596   3.048   3.422   1.929 -0.0625 -0.3322 -0.3288
18702TIP3    H177597   3.141   3.401   1.918  0.3718 -0.0173  2.5046
18702TIP3    H277598   3.004   3.337   1.928  0.1729 -0.4634 -2.0239
18703TIP3   OH277599   0.189   6.528   1.655 -0.1562 -0.2488 -0.1534
18703TIP3    H177600   0.255   6.459   1.664 -0.3189 -0.1468  2.0709
18703TIP3    H277601   0.105   6.482   1.656 -0.1991 -0.1788 -0.5920
18704TIP3   OH277602   3.716   0.395  11.926  0.5424 -0.0520 -0.1414
18704TIP3    H177603   3.744   0.485  11.944  2.9223 -0.8471  0.3670
18704TIP3    H277604   3.647   0.378  11.989  0.0493  1.4327 -0.2601
18705TIP3   OH277605   2.834   3.374  14.823 -0.3383  0.4673  0.1199
18705TIP3    H177606   2.832   3.358  14.917  0.8939  1.3581  0.3030
18705TIP3    H277607   2.851   3.468  14.814  0.7280  0.1910 -0.9750
18706TIP3   OH277608   1.450   4.070   0.106  0.0820 -0.0686 -0.0665
18706TIP3    H177609   1.389   4.115   0.047  0.5746 -0.7828 -1.1441
18706TIP3    H277610   1.528   4.125   0.107 -0.9370  1.4123  2.1659
18707TIP3   OH277611   4.605   0.112  14.071  0.1357 -0.1799 -0.1871
18707TIP3    H177612   4.618   0.128  14.164  1.7321  2.2401 -0.7842
18707TIP3    H277613   4.667   0.042  14.050 -0.0170 -0.5242  0.5115
18708TIP3   OH277614   5.078   5.735   1.599  0.2559  1.0097  0.1627
18708TIP3    H177615   5.122   5.748   1.683  2.0137 -0.1023 -0.5648
18708TIP3    H277616   5.138   5.772   1.534 -0.7965  1.2728 -0.6745
18709TIP3   OH277617   0.436   1.954   4.399  0.2830  0.2262  0.0567
18709TIP3    H177618   0.440   2.034   4.345  0.5571 -0.5319 -1.0669
18709TIP3    H277619   0.427   1.986   4.488  0.8840  1.5347 -0.3365
18710TIP3   OH277620   1.245   0.861  16.580 -0.0754 -0.1081 -0.2600
18710TIP3    H177621   1.321   0.916  16.562 -0.2982  0.8028  1.3854
18710TIP3    H277622   1.242   0.799  16.508  1.9316  0.1695 -0.6107
18711TIP3   OH277623   1.254   3.575   3.697  0.2428 -0.0977  0.2460
18711TIP3    H177624   1.248   3.511   3.768 -1.1504 -0.9295 -0.5876
18711TIP3    H277625   1.230   3.658   3.738 -0.1091 -0.4978  0.8588
18712TIP3   OH277626   0.611   6.211   4.856  0.2565 -0.0206  0.6106
18712TIP3    H177627   0.662   6.176   4.929 -1.0332  0.1106  1.5878
18712TIP3    H277628   0.520   6.199   4.882 -0.2324 -0.7252 -1.3562
18713TIP3   OH277629   2.427   6.602  14.207  0.3556 -0.2738  0.1198
18713TIP3    H177630   2.357   6.549  14.243  0.9662 -0.8421  0.4765
18713TIP3    H277631   2.495   6.602  14.274  1.1571 -0.6594 -0.6844
18714TIP3   OH277632   0.406   3.917  15.171  0.3973 -0.2417  0.4864
18714TIP3    H177633   0.475   3.910  15.105  0.9543 -0.0318  1.0470
18714TIP3    H277634   0.447   3.961  15.245 -0.8847  1.7880  0.0509
18715TIP3   OH277635   0.252   5.843  11.329  0.5878 -0.2646  0.6849
18715TIP3    H177636   0.173   5.831  11.381  0.2911 -1.7012 -0.0674
18715TIP3    H277637   0.303   5.764  11.344  1.2605  0.0474  0.1054
18716TIP3   OH277638   1.134   5.298  11.531 -0.4626 -0.0174 -0.3450
18716TIP3    H177639   1.046   5.283  11.496 -0.8211 -1.8532  1.2303
18716TIP3    H277640   1.191   5.245  11.475 -0.3113  1.3178 -1.4795
18717TIP3   OH277641   0.392   4.018  10.940 -0.1331 -0.4529 -0.7755
18717TIP3    H177642   0.303   4.024  10.975 -0.3797  0.1011 -1.4688
18717TIP3    H277643   0.419   4.109  10.929  1.0462 -0.6014  0.7210
18718TIP3   OH277644   0.866   5.374  11.212  0.2203  0.9212  0.2412
18718TIP3    H177645   0.922   5.300  11.235  0.1206  1.2730  1.6466
18718TIP3    H277646   0.892   5.396  11.122  0.9425 -0.1765  0.1717
18719TIP3   OH277647   2.618   2.058   1.951  0.0164 -0.1639  0.3352
18719TIP3    H177648   2.645   2.053   2.043 -1.4724 -0.8749  0.7424
18719TIP3    H277649   2.697   2.035   1.902  0.2341 -1.9818  1.5044
18720TIP3   OH277650   0.786   1.815   3.294  0.0617  0.0301 -0.0436
18720TIP3    H177651   0.691   1.821   3.301  0.1334  2.1497 -0.3102
18720TIP3    H277652   0.810   1.740   3.348 -1.5718  0.8134  1.8479
18721TIP3   OH277653   2.558   3.595   5.014 -0.5227  0.0134  0.3421
18721TIP3    H177654   2.565   3.674   4.960  0.5330  0.3432  0.9429
18721TIP3    H277655   2.507   3.533   4.960  1.1585  0.0592 -1.3553
18722TIP3   OH277656   2.227   2.660   2.511  0.2367 -0.0624 -0.2287
18722TIP3    H177657   2.252   2.676   2.420  0.9481 -2.9345 -0.5801
18722TIP3    H277658   2.139   2.622   2.506  0.1476  0.0657  0.2970
18723TIP3   OH277659   6.577   4.190  10.436 -0.1635  0.1895  0.0469
18723TIP3    H177660   6.628   4.206  10.357  1.2509  1.8032  1.2586
18723TIP3    H277661   6.560   4.277  10.472 -0.4216 -0.5412  1.7541
18724TIP3   OH277662   6.049   5.706   3.022  0.0012  0.0307  0.0329
18724TIP3    H177663   5.964   5.661   3.018  0.1742 -0.3116  0.1211
18724TIP3    H277664   6.049   5.764   2.947  0.4494 -1.3509 -1.0643
18725TIP3   OH277665   0.149   5.477   1.776 -0.5016  0.3628  0.0695
18725TIP3    H177666   0.157   5.485   1.871 -0.9242  1.6741 -0.0044
18725TIP3    H277667   0.239   5.461   1.746 -0.2963  0.4533  0.6366
18726TIP3   OH277668   3.212   0.735  14.971 -0.0994 -0.0040 -0.5566
18726TIP3    H177669   3.208   0.819  15.016 -0.3561 -0.6332  0.6409
18726TIP3    H277670   3.124   0.698  14.981  0.0611 -0.4944 -0.9086
18727TIP3   OH277671   0.302   2.692  11.738  0.3773  0.4766  0.0776
18727TIP3    H177672   0.270   2.740  11.814  1.5360  3.2395 -1.0998
18727TIP3    H277673   0.240   2.713  11.668 -0.1024 -1.2098 -0.0288
18728TIP3   OH277674   4.760   4.225   0.198 -0.0461  0.2649  0.0432
18728TIP3    H177675   4.765   4.309   0.152 -0.9385 -0.2221 -0.9572
18728TIP3    H277676   4.848   4.189   0.192 -0.5683 -0.6815 -2.9943
18729TIP3   OH277677   1.186   0.471  13.286 -0.5074 -0.4922  0.4756
18729TIP3    H177678   1.163   0.521  13.365 -1.5304  0.2582 -0.2916
18729TIP3    H277679   1.111   0.414  13.271 -0.5014 -0.3214 -0.2019
18730TIP3   OH277680   0.705   0.574  15.919  0.0301  0.3955 -0.5190
18730TIP3    H177681   0.677   0.518  15.992 -0.6870  1.4553  0.0435
18730TIP3    H277682   0.775   0.628  15.956  1.2196 -0.6279 -1.2654
18731TIP3   OH277683   4.952   4.167  13.287 -0.2523 -0.0459  0.2556
18731TIP3    H177684   5.011   4.234  13.321  2.3182 -1.1774 -1.7678
18731TIP3    H277685   4.990   4.143  13.202 -2.7386 -1.9846 -0.3621
18732TIP3   OH277686   5.347   1.539  14.020 -0.3621 -0.5247  0.4771
18732TIP3    H177687   5.405   1.580  13.956  0.3346  0.9219  2.0080
18732TIP3    H277688   5.261   1.537  13.977  0.3577 -0.7467 -0.9837
18733TIP3   OH277689   2.918   3.384   5.309 -0.4393  0.1653 -0.4700
18733TIP3    H177690   2.842   3.376   5.252 -1.6497  0.6064  1.0757
18733TIP3    H277691   2.883   3.381   5.398  1.7474 -4.3557  0.4106
18734TIP3   OH277692   0.303   1.479   5.472 -0.9490  0.7116 -0.3246
18734TIP3    H177693   0.216   1.469   5.434 -0.6917  0.7472 -0.9259
18734TIP3    H277694   0.350   1.400   5.444 -1.3962 -0.2927  1.6575
18735TIP3   OH277695   0.571   3.730  11.169 -0.0404 -0.4912  0.0055
18735TIP3    H177696   0.570   3.815  11.214  2.3842 -0.7207  0.5724
18735TIP3    H277697   0.483   3.695  11.182 -0.0894  0.4718  2.6025
18736TIP3   OH277698   6.009   4.647   0.438 -0.1648 -0.0950  0.1570
18736TIP3    H177699   5.925   4.679   0.472 -0.2330  2.8699 -2.5611
18736TIP3    H277700   6.054   4.726   0.407  3.8214 -1.5653  1.8561
18737TIP3   OH277701   4.086   1.401   3.906  0.1575  0.1519 -0.5047
18737TIP3    H177702   4.165   1.394   3.851  0.4992  1.2464 -0.1537
18737TIP3    H277703   4.116   1.374   3.993  0.1812  0.7426 -0.3329
18738TIP3   OH277704   0.505   0.035   0.620 -0.2302 -0.5445  0.1477
18738TIP3    H177705   0.481   0.081   0.700  0.3956  0.3015 -0.1475
18738TIP3    H277706   0.588   0.075   0.593 -1.5289  0.7238 -2.1257
18739TIP3   OH277707   5.925   2.569  11.248 -0.2474  0.1030  0.5378
18739TIP3    H177708   5.928   2.662  11.228 -1.6867  0.0539 -0.0172
18739TIP3    H277709   6.011   2.536  11.224 -0.1839  1.0528 -0.5692
18740TIP3   OH277710   3.191   6.238   4.984 -0.6511  0.5655  0.0931
18740TIP3    H177711   3.254   6.279   5.044  0.1303 -2.0746  1.1379
18740TIP3    H277712   3.218   6.267   4.897  1.1374  0.6136  0.6537
18741TIP3   OH277713   0.001   5.368  14.285  0.1374  0.0976  0.0072
18741TIP3    H177714  -0.085   5.400  14.261  0.4999  2.4189  1.6671
18741TIP3    H277715   0.048   5.359  14.202 -1.0863  0.5856 -0.7435
18742TIP3   OH277716   1.037   4.400  15.127  1.0235 -0.2185 -0.1231
18742TIP3    H177717   1.057   4.344  15.052  2.3469 -1.1047  0.8608
18742TIP3    H277718   0.944   4.385  15.144  1.2098 -1.6315 -0.2897
18743TIP3   OH277719   4.183   6.793   4.390 -0.0639 -0.8269  0.1937
18743TIP3    H177720   4.132   6.749   4.322  2.8074 -0.3744 -2.3556
18743TIP3    H277721   4.156   6.751   4.472 -2.8836 -2.0519 -1.3175
18744TIP3   OH277722   1.845   4.771   1.791 -0.2890  0.0901 -0.3092
18744TIP3    H177723   1.919   4.712   1.773 -2.5779 -2.2669 -2.2961
18744TIP3    H277724   1.853   4.839   1.724  0.3947  0.1544 -0.1688
18745TIP3   OH277725   3.299   0.988   1.755  0.4172  0.1405 -0.0917
18745TIP3    H177726   3.279   0.936   1.677  0.9813  0.8111 -0.6965
18745TIP3    H277727   3.361   0.934   1.805 -0.0124 -0.3290 -0.0672
18746TIP3   OH277728   5.139   2.858   4.706  0.1627 -0.3937  0.1902
18746TIP3    H177729   5.176   2.830   4.790  0.3575 -0.5844  0.0434
18746TIP3    H277730   5.216   2.880   4.653 -0.0194  1.0644  0.5151
18747TIP3   OH277731   2.135   1.935   2.549 -0.4783  0.2481 -0.0109
18747TIP3    H177732   2.077   1.862   2.570 -2.1253  1.7977  0.9660
18747TIP3    H277733   2.079   1.997   2.501  1.0746  0.5836 -1.4461
18748TIP3   OH277734   2.264   0.230  16.530  0.3161 -0.0665  0.3121
18748TIP3    H177735   2.230   0.313  16.498  1.3984 -0.6053 -2.3286
18748TIP3    H277736   2.335   0.256  16.590 -1.2075  0.9261  1.7443
18749TIP3   OH277737   5.668   2.634  15.663 -0.1031  0.1254 -0.3675
18749TIP3    H177738   5.662   2.562  15.726  3.4294 -0.7984 -0.9700
18749TIP3    H277739   5.631   2.598  15.583  1.2210 -0.8699 -0.5384
18750TIP3   OH277740   0.144   0.046   5.599 -0.9961  0.1718 -0.2024
18750TIP3    H177741   0.074   0.019   5.658 -1.7800 -0.6234 -1.4673
18750TIP3    H277742   0.099   0.099   5.532 -0.3288 -0.0263 -0.8127
18751TIP3   OH277743   5.212   0.557  11.189  0.1705 -0.5108  0.3896
18751TIP3    H177744   5.166   0.474  11.200  0.7414 -0.8603  0.1260
18751TIP3    H277745   5.202   0.577  11.096  1.3774 -1.0677  0.1369
18752TIP3   OH277746   2.667   5.301  10.683 -0.1021 -0.2715 -0.3920
18752TIP3    H177747   2.664   5.388  10.724 -1.4318 -0.2144 -0.6101
18752TIP3    H277748   2.648   5.317  10.591 -0.0553 -0.7724 -0.4902
18753TIP3   OH277749   5.553   3.017  14.848 -0.2184 -0.3820 -0.2173
18753TIP3    H177750   5.593   3.019  14.935 -1.2888 -1.4009  0.3123
18753TIP3    H277751   5.474   2.964  14.859 -0.5122 -0.2890 -1.7531
18754TIP3   OH277752   5.544   2.697  12.907 -0.0305 -0.0622  0.0541
18754TIP3    H177753   5.604   2.749  12.960 -1.0850  1.3502 -0.1065
18754TIP3    H277754   5.465   2.751  12.901 -1.2497 -1.8039  0.1111
18755TIP3   OH277755   4.906   5.822   5.570 -0.2099  0.1659  0.1897
18755TIP3    H177756   4.872   5.866   5.492 -0.1035 -0.7923 -0.4110
18755TIP3    H277757   4.926   5.733   5.540  1.9951  0.4443  0.7229
18756TIP3   OH277758   2.194   3.373   2.313  0.3601  0.2521  0.4364
18756TIP3    H177759   2.110   3.415   2.294 -1.0720 -2.7950 -0.3193
18756TIP3    H277760   2.206   3.311   2.241  2.2568 -0.7964  1.6194
18757TIP3   OH277761   2.616   2.300  15.429  0.1095  0.4458  0.1220
18757TIP3    H177762   2.659   2.281  15.512 -1.1948 -0.7065  0.5532
18757TIP3    H277763   2.623   2.395  15.421  2.3157  0.3291  0.3830
18758TIP3   OH277764   3.293   1.801  17.154  0.0997 -0.4687 -0.0122
18758TIP3    H177765   3.301   1.728  17.216  0.0534 -1.3035 -0.9737
18758TIP3    H277766   3.263   1.761  17.073 -0.2426  0.6798 -0.4645
18759TIP3   OH277767   1.380   5.744  12.189  0.4581  0.0043  0.2005
18759TIP3    H177768   1.362   5.788  12.272  1.6660  0.3847  0.2649
18759TIP3    H277769   1.298   5.699  12.168  0.5219 -1.0722  2.1766
18760TIP3   OH277770   1.522   3.291   1.064  0.3767  0.4322 -0.9924
18760TIP3    H177771   1.584   3.275   1.136 -0.9488 -2.3040 -0.4174
18760TIP3    H277772   1.535   3.218   1.005 -2.2511 -0.1452 -0.8982
18761TIP3   OH277773   3.189   0.866   6.068 -0.3987 -0.1487  0.3866
18761TIP3    H177774   3.129   0.877   6.142 -0.4911  1.1141  0.1402
18761TIP3    H277775   3.268   0.914   6.094  1.0736 -2.9424  1.2957
18762TIP3   OH277776   6.633   5.354   2.046 -0.0117  0.0117 -0.7317
18762TIP3    H177777   6.608   5.335   2.137  0.2543  1.2002 -0.4006
18762TIP3    H277778   6.568   5.418   2.017 -0.2896 -0.6058 -1.4972
18763TIP3   OH277779   6.411   1.807  14.692 -0.0896 -0.3757  0.4062
18763TIP3    H177780   6.443   1.738  14.749  0.4249  0.0290  0.6173
18763TIP3    H277781   6.335   1.843  14.738  0.0293 -0.3749  0.6020
18764TIP3   OH277782   0.679   1.626   1.588  0.4535  0.2156 -0.3001
18764TIP3    H177783   0.742   1.694   1.566  0.0087  0.5902 -0.4307
18764TIP3    H277784   0.598   1.674   1.607  1.4445  0.1665  4.7015
18765TIP3   OH277785   0.023   1.672  13.535  0.6303  0.5594 -0.3808
18765TIP3    H177786  -0.066   1.688  13.566  0.3050 -1.0100 -0.4278
18765TIP3    H277787   0.052   1.595  13.584  0.7581 -0.9140 -2.6802
18766TIP3   OH277788   0.460   5.189  15.870 -0.0227 -0.3112 -0.1235
18766TIP3    H177789   0.404   5.215  15.943 -0.1006  2.3565 -1.0910
18766TIP3    H277790   0.403   5.193  15.794  1.2024  1.5238 -0.9837
18767TIP3   OH277791   2.020   1.305  12.664 -0.2641 -0.0241 -0.0865
18767TIP3    H177792   2.079   1.275  12.734  0.1535 -1.0863 -0.8880
18767TIP3    H277793   1.979   1.383  12.700  1.7942  0.8731  0.4065
18768TIP3   OH277794   3.486   5.891   4.258  0.4299  0.0158 -0.0265
18768TIP3    H177795   3.521   5.820   4.203 -2.8800  0.0251 -2.2508
18768TIP3    H277796   3.421   5.848   4.313 -0.3429  1.0177 -0.1596
18769TIP3   OH277797   2.036   3.235  15.487  0.3269 -0.0307  0.5992
18769TIP3    H177798   2.080   3.161  15.446  1.0267 -0.4445  2.0618
18769TIP3    H277799   2.044   3.219  15.581 -1.0568  1.0031  0.9169
18770TIP3   OH277800   3.940   6.206  13.426 -0.1177 -0.7273  0.1011
18770TIP3    H177801   3.984   6.137  13.475  0.8415  1.8205  3.0338
18770TIP3    H277802   3.850   6.204  13.458 -0.1740 -0.8750 -0.0705
18771TIP3   OH277803   0.250   5.173   6.075 -0.2062  0.2234  0.0532
18771TIP3    H177804   0.188   5.213   6.136 -0.1969  0.7805 -0.2960
18771TIP3    H277805   0.202   5.099   6.037 -1.0279  1.2572 -0.9628
18772TIP3   OH277806   2.014   6.191   1.791  0.2298 -0.4507 -0.1096
18772TIP3    H177807   2.109   6.189   1.778  0.4801 -1.4032  1.6989
18772TIP3    H277808   1.977   6.174   1.704  1.7296 -1.6664 -0.5274
18773TIP3   OH277809   3.796   4.656   2.537 -0.2678  0.6223  0.0550
18773TIP3    H177810   3.809   4.582   2.597  0.0271  0.1877 -0.5503
18773TIP3    H277811   3.885   4.685   2.516 -0.3263 -0.3105 -1.5277
18774TIP3   OH277812   6.446   4.044  10.842  0.0046  0.1403 -0.2773
18774TIP3    H177813   6.475   4.029  10.751 -0.1067  0.0825 -0.3028
18774TIP3    H277814   6.359   4.004  10.846  0.6288 -1.1897  0.2764
18775TIP3   OH277815   0.038   1.534  12.883  0.3471  0.5899  0.4640
18775TIP3    H177816   0.113   1.512  12.938 -0.5601  2.5656  2.5626
18775TIP3    H277817   0.065   1.508  12.795  2.1092 -2.0119  1.6872
18776TIP3   OH277818   5.139   0.429   1.382 -0.1130 -0.2729 -0.3377
18776TIP3    H177819   5.076   0.402   1.315  0.4280 -1.0709 -0.5249
18776TIP3    H277820   5.088   0.433   1.463 -0.3433 -1.1885 -0.4352
18777TIP3   OH277821   6.221   2.160   2.385  0.2966  0.3391  0.0827
18777TIP3    H177822   6.255   2.077   2.419  0.4362  0.2445 -0.2877
18777TIP3    H277823   6.245   2.160   2.293 -1.5781 -0.1879 -0.4264
18778TIP3   OH277824   5.149   6.638  12.373 -0.1246 -0.2629  0.3321
18778TIP3    H177825   5.217   6.623  12.307 -0.7568 -2.0050  0.0259
18778TIP3    H277826   5.197   6.653  12.454  0.6422  0.0292 -0.1685
18779TIP3   OH277827   4.110   2.653  16.379  0.1452 -0.3198  0.5887
18779TIP3    H177828   4.181   2.715  16.363 -0.3666 -0.0420 -0.6416
18779TIP3    H277829   4.057   2.694  16.448  0.5345 -0.0047  0.7057
18780TIP3   OH277830   0.730   5.982  16.715  0.2864 -0.8003  0.1771
18780TIP3    H177831   0.773   5.988  16.801 -0.0004 -1.2174  0.3535
18780TIP3    H277832   0.801   5.972  16.653  0.6206  1.4355  0.1614
18781TIP3   OH277833   1.903   5.855   1.321  0.4156 -0.5033 -0.0405
18781TIP3    H177834   1.984   5.828   1.278  0.2059 -2.8213  0.9832
18781TIP3    H277835   1.899   5.803   1.401 -2.1364 -0.4791 -0.1105
18782TIP3   OH277836   3.782   2.807  14.079  0.5344  0.2372  0.0750
18782TIP3    H177837   3.837   2.750  14.026 -1.1765 -1.5842  0.2085
18782TIP3    H277838   3.745   2.750  14.146 -0.6278  1.6378  0.6570
18783TIP3   OH277839   6.161   0.126   2.125 -0.5509  0.1461 -0.2342
18783TIP3    H177840   6.107   0.108   2.202  0.7595  0.4140  0.7583
18783TIP3    H277841   6.196   0.041   2.100 -2.5864 -0.2839 -1.7922
18784TIP3   OH277842   1.321   0.412   1.247 -0.0585  0.2310  0.5720
18784TIP3    H177843   1.341   0.342   1.184 -0.0814  0.2450  0.5495
18784TIP3    H277844   1.264   0.472   1.199  0.5549  0.6452  0.3569
18785TIP3   OH277845   3.690   1.926  14.290 -0.5586 -0.0607  0.3484
18785TIP3    H177846   3.698   1.961  14.379  1.5634 -1.8398  0.9130
18785TIP3    H277847   3.776   1.942  14.250 -0.2104 -2.6621 -0.0574
18786TIP3   OH277848   2.777   1.635   6.280 -0.1759  0.0557  0.2404
18786TIP3    H177849   2.862   1.652   6.321 -0.9170  3.4315  0.5272
18786TIP3    H277850   2.742   1.559   6.327  1.4005  0.4391  2.0946
18787TIP3   OH277851   1.060   0.402  11.928  0.0306  0.1128  0.1423
18787TIP3    H177852   1.042   0.477  11.985 -0.1976 -0.1468  0.4182
18787TIP3    H277853   1.143   0.423  11.886 -0.7898  1.2300 -0.9704
18788TIP3   OH277854   3.781   0.381   6.108  0.3938  0.6538 -0.4349
18788TIP3    H177855   3.775   0.336   6.192 -1.2160  1.7109  0.0526
18788TIP3    H277856   3.779   0.311   6.043 -1.4979 -0.0373  0.3277
18789TIP3   OH277857   0.730   4.153  15.060 -0.1878 -0.0834 -0.2606
18789TIP3    H177858   0.635   4.148  15.053 -0.0487 -2.5820 -0.5449
18789TIP3    H277859   0.762   4.137  14.971  0.5293  0.6899 -0.1534
18790TIP3   OH277860   5.810   1.065  14.537  0.1374  0.0167 -0.0977
18790TIP3    H177861   5.878   1.055  14.603  0.8322 -0.4912 -0.8788
18790TIP3    H277862   5.771   0.978  14.529  0.3411 -0.0296 -0.6450
18791TIP3   OH277863   0.352   2.857   2.604  0.0433 -0.4228  0.3656
18791TIP3    H177864   0.301   2.810   2.671  1.1652  0.0508  1.5752
18791TIP3    H277865   0.305   2.940   2.592 -1.2152 -1.2976 -0.8272
18792TIP3   OH277866   4.873   4.613  13.470 -0.0853 -0.0114  0.0837
18792TIP3    H177867   4.870   4.691  13.526 -0.8431  0.1911 -0.2288
18792TIP3    H277868   4.790   4.615  13.423  0.7075  0.0537 -1.3459
18793TIP3   OH277869   4.484   4.545   2.883  0.0378  0.5185 -0.0548
18793TIP3    H177870   4.433   4.464   2.892 -0.4924  0.9288  0.7326
18793TIP3    H277871   4.574   4.516   2.874 -0.1771 -0.1745 -0.0246
18794TIP3   OH277872   3.151   2.404  15.445 -0.0394 -0.7120  0.1326
18794TIP3    H177873   3.081   2.342  15.465  2.3861 -3.0087  1.9432
18794TIP3    H277874   3.190   2.425  15.530  0.7494  1.4022 -0.7108
18795TIP3   OH277875   5.737   5.449  11.001 -0.6998  0.1769  0.2181
18795TIP3    H177876   5.746   5.369  10.949 -0.7442 -0.0297  0.5301
18795TIP3    H277877   5.664   5.496  10.960 -0.9002 -0.1063  0.2504
18796TIP3   OH277878   2.143   1.285   1.263  0.1189  0.8178 -0.0549
18796TIP3    H177879   2.155   1.377   1.285 -0.1902  0.8754 -0.1175
18796TIP3    H277880   2.226   1.258   1.224  0.3094  0.9928  0.2277
18797TIP3   OH277881   3.611   6.206   4.978 -0.2830  0.7006 -0.4573
18797TIP3    H177882   3.691   6.153   4.979 -1.0590 -0.4752  2.0071
18797TIP3    H277883   3.540   6.142   4.967 -1.2470  1.1485  2.8202
18798TIP3   OH277884   1.916   0.279   1.066  0.3839 -0.1445 -0.2093
18798TIP3    H177885   1.975   0.237   1.003  1.6021 -1.4858  1.7427
18798TIP3    H277886   1.969   0.346   1.108 -0.4584  0.8260 -0.6625
18799TIP3   OH277887   3.685   2.567   0.444  0.1592  0.5111 -0.1513
18799TIP3    H177888   3.634   2.612   0.511  0.4724  2.4147 -1.1709
18799TIP3    H277889   3.701   2.633   0.377  0.3701 -1.1939 -1.8335
18800TIP3   OH277890   4.595   4.073  13.866 -0.2415 -0.3975 -0.2294
18800TIP3    H177891   4.608   4.044  13.775 -0.6289  1.5543 -0.9258
18800TIP3    H277892   4.515   4.125  13.863  1.0253  1.6271  0.7743
18801TIP3   OH277893   1.768   2.278  13.058 -0.4389 -0.0836  0.4035
18801TIP3    H177894   1.731   2.363  13.036  0.9718  1.0942  2.4273
18801TIP3    H277895   1.713   2.246  13.130 -0.0231 -0.1652  0.6883
18802TIP3   OH277896   0.157   0.134   0.217  0.5904 -0.4027 -0.0792
18802TIP3    H177897   0.213   0.195   0.266 -0.2776  0.1978  0.1745
18802TIP3    H277898   0.153   0.056   0.273 -1.7292  0.8757  1.6529
18803TIP3   OH277899   0.571   2.386  16.533  0.3987 -0.0430  0.3381
18803TIP3    H177900   0.509   2.343  16.474 -0.0923  0.3322  0.5714
18803TIP3    H277901   0.569   2.478  16.507 -1.6123  0.5730  2.4417
18804TIP3   OH277902   0.693   4.521   4.399  0.5807 -0.6742 -0.4754
18804TIP3    H177903   0.646   4.440   4.418 -0.5075 -0.2304 -1.2527
18804TIP3    H277904   0.714   4.557   4.485 -1.5734 -0.2629 -0.1141
18805TIP3   OH277905   1.258   0.799  16.837 -0.7240 -0.2736 -0.6393
18805TIP3    H177906   1.165   0.776  16.836 -0.7294 -0.2258 -1.6121
18805TIP3    H277907   1.277   0.823  16.747  0.0573  0.4514 -0.2799
18806TIP3   OH277908   3.933   1.892  14.993  0.6072  1.0871  0.5441
18806TIP3    H177909   3.971   1.837  15.061  0.1585  0.1462  0.0335
18806TIP3    H277910   3.869   1.836  14.949  1.6009  1.3668 -1.3071
18807TIP3   OH277911   2.042   5.029   5.477 -0.1170  0.3337  0.7873
18807TIP3    H177912   1.997   4.947   5.498  0.4038 -0.0223  0.5407
18807TIP3    H277913   1.975   5.096   5.482 -1.2911 -0.5411 -2.2854
18808TIP3   OH277914   1.925   1.712   5.682 -0.5135  0.5080 -1.0184
18808TIP3    H177915   1.904   1.805   5.674  0.2458  0.8153  0.5013
18808TIP3    H277916   1.852   1.675   5.731  0.1081  0.6584  0.0196
18809TIP3   OH277917   2.337   3.107  15.833 -0.0071  0.4452  0.1874
18809TIP3    H177918   2.411   3.054  15.862  0.8810  0.2458 -2.3357
18809TIP3    H277919   2.359   3.132  15.743 -2.4569  1.4000 -0.1838
18810TIP3   OH277920   6.016   1.130  15.277  0.0738 -0.4484  1.2509
18810TIP3    H177921   5.926   1.097  15.272 -0.3272  0.5041  2.0127
18810TIP3    H277922   6.046   1.105  15.364  0.5524 -0.7539  1.0017
18811TIP3   OH277923   5.502   0.889   4.181 -0.0439  0.0377 -0.0115
18811TIP3    H177924   5.562   0.844   4.240  0.8200 -0.4999 -1.2996
18811TIP3    H277925   5.558   0.928   4.114 -1.0824  0.0265 -0.8988
18812TIP3   OH277926   1.621   5.006   5.664 -0.4269 -0.0431  0.0230
18812TIP3    H177927   1.549   5.010   5.601 -0.8031  0.4600  0.4868
18812TIP3    H277928   1.591   4.944   5.731  0.2222 -1.0519 -0.5976
18813TIP3   OH277929   3.422   2.759   0.346 -0.3520  0.4263 -0.2878
18813TIP3    H177930   3.346   2.814   0.327 -0.3328  1.5363  2.6686
18813TIP3    H277931   3.489   2.791   0.286 -1.6182  0.7036 -1.6046
18814TIP3   OH277932   6.177   2.821  15.103 -0.5425  0.6496 -0.5231
18814TIP3    H177933   6.214   2.897  15.148  0.6693  1.0870 -2.1982
18814TIP3    H277934   6.211   2.827  15.014  0.1836 -2.2484 -0.5021
18815TIP3   OH277935   5.074   2.104   0.624  0.2013  0.3500  0.1775
18815TIP3    H177936   5.084   2.116   0.719  0.6017  0.6409  0.0982
18815TIP3    H277937   5.052   2.192   0.591  2.2455  0.7045 -0.2875
18816TIP3   OH277938   0.805   2.976  17.149 -0.8965  0.5696  0.1011
18816TIP3    H177939   0.783   3.014  17.234  0.4244  1.8619 -0.1078
18816TIP3    H277940   0.849   2.894  17.169  0.0716  1.2249  0.7027
18817TIP3   OH277941   5.377   1.106  10.618  0.1909 -0.6023  0.2264
18817TIP3    H177942   5.434   1.180  10.598 -1.7347  0.7297 -0.4026
18817TIP3    H277943   5.388   1.092  10.712  0.1514  0.8385  0.4580
18818TIP3   OH277944   6.412   3.746   2.784  0.3283 -0.0828 -0.5601
18818TIP3    H177945   6.320   3.721   2.778  0.0508  0.9451 -0.6418
18818TIP3    H277946   6.453   3.675   2.833 -0.2322 -1.2499 -1.7568
18819TIP3   OH277947   2.093   1.044  15.489 -0.0291  1.1860 -0.5469
18819TIP3    H177948   2.064   1.118  15.543  1.4305  1.7876 -0.5630
18819TIP3    H277949   2.013   0.996  15.469 -0.7521  1.6330  1.1452
18820TIP3   OH277950   4.474   5.948   5.467 -0.3240 -0.1381  0.5715
18820TIP3    H177951   4.400   5.937   5.527 -0.6150  1.8776  0.6281
18820TIP3    H277952   4.495   6.041   5.473  1.4704 -0.4744 -0.3382
18821TIP3   OH277953   4.542   6.374  17.204  0.5185 -0.2462 -0.0247
18821TIP3    H177954   4.501   6.331  17.129 -0.9185  0.6340  0.2345
18821TIP3    H277955   4.636   6.372  17.185  0.2475 -0.9948 -1.3247
18822TIP3   OH277956   3.701   1.150  11.097  0.2097 -0.3135  0.0758
18822TIP3    H177957   3.785   1.159  11.051 -0.3034 -1.1863 -1.0465
18822TIP3    H277958   3.694   1.056  11.114 -0.9325 -0.3395 -0.5581
18823TIP3   OH277959   5.445   4.348  10.804  0.4598  0.3563 -0.3225
18823TIP3    H177960   5.518   4.403  10.772  0.9917 -0.0619  0.1610
18823TIP3    H277961   5.452   4.352  10.899 -1.6540  2.2963 -0.2231
18824TIP3   OH277962   4.307   1.704   5.486 -0.2951  0.6624  0.1113
18824TIP3    H177963   4.265   1.661   5.411  0.2097  0.0039  0.1982
18824TIP3    H277964   4.239   1.709   5.553 -0.5217  0.5284 -0.1113
18825TIP3   OH277965   3.547   6.474  12.253 -0.0503 -0.0340 -0.1105
18825TIP3    H177966   3.529   6.556  12.205 -1.4925 -1.1625 -1.5632
18825TIP3    H277967   3.461   6.434  12.265  0.8321 -2.4873 -1.5472
18826TIP3   OH277968   5.432   3.183   4.261  0.2843  0.2150 -0.0275
18826TIP3    H177969   5.442   3.266   4.213  0.7282  0.0502 -0.2244
18826TIP3    H277970   5.484   3.194   4.340  1.4299 -0.3499 -0.6759
18827TIP3   OH277971   1.765   1.441   4.822  0.0709 -0.3068 -0.1585
18827TIP3    H177972   1.779   1.373   4.757 -1.4945 -0.4908 -0.3364
18827TIP3    H277973   1.780   1.397   4.906  0.0258 -0.6167 -0.3122
18828TIP3   OH277974   3.567   1.621  12.470  0.1027 -0.2623  0.3147
18828TIP3    H177975   3.633   1.681  12.503  0.0997  0.5810 -1.1550
18828TIP3    H277976   3.613   1.567  12.405 -0.3314 -0.6095  0.2908
18829TIP3   OH277977   0.067   2.812  11.609 -0.5097 -0.0561  0.0881
18829TIP3    H177978   0.003   2.864  11.658 -1.9048 -1.7102  0.0678
18829TIP3    H277979   0.018   2.735  11.580  1.1075 -0.6009 -1.2656
18830TIP3   OH277980   0.529   5.530  14.039 -0.0280  0.1715 -0.2424
18830TIP3    H177981   0.533   5.499  14.130 -0.3408 -0.0700 -0.3104
18830TIP3    H277982   0.440   5.564  14.030 -0.2791 -0.6015 -0.7144
18831TIP3   OH277983   0.671   1.927  14.358  0.5887 -0.4055  0.1514
18831TIP3    H177984   0.592   1.929  14.304 -0.2608  0.1490  1.3705
18831TIP3    H277985   0.735   1.880  14.306  0.2595  1.4177 -1.9439
18832TIP3   OH277986   0.411   2.565  10.901 -0.3295  0.0259  0.4176
18832TIP3    H177987   0.495   2.521  10.894 -0.5928 -0.5666  0.9317
18832TIP3    H277988   0.400   2.610  10.817 -0.5263 -1.7129 -0.5046
18833TIP3   OH277989   1.150   2.276   5.108  0.0197  0.0984  0.5854
18833TIP3    H177990   1.189   2.232   5.033  1.0473  0.8563  0.6681
18833TIP3    H277991   1.120   2.205   5.165  0.8674 -0.4829  0.3069
18834TIP3   OH277992   2.996   0.133   6.189 -0.5017  0.0704  0.3635
18834TIP3    H177993   2.905   0.146   6.164 -0.6750  0.1015  1.0024
18834TIP3    H277994   3.002   0.040   6.211 -1.3412  0.8239  4.1107
18835TIP3   OH277995   2.317   4.310  12.507 -0.7447  0.1544 -0.2351
18835TIP3    H177996   2.235   4.355  12.487  0.0246  0.3261 -3.3427
18835TIP3    H277997   2.385   4.377  12.498 -0.1286 -0.2568  1.1361
18836TIP3   OH277998   2.009   2.994   4.821  0.7474 -0.0585  0.3503
18836TIP3    H177999   2.087   3.044   4.796  1.0313 -1.0757 -0.8700
18836TIP3    H278000   1.974   2.963   4.737 -1.4922  1.1608  0.8010
18837TIP3   OH278001   2.713   2.031   2.908 -0.3265  0.4613 -0.0406
18837TIP3    H178002   2.796   2.074   2.886  1.0877 -2.6381 -0.9554
18837TIP3    H278003   2.650   2.069   2.847  0.7214  1.6995 -0.3919
18838TIP3   OH278004   0.413   5.711  12.539  0.4358 -0.1529  0.1952
18838TIP3    H178005   0.506   5.726  12.526  0.7062 -0.8325  1.2870
18838TIP3    H278006   0.374   5.724  12.453  1.4102  1.1244 -0.0690
18839TIP3   OH278007   0.233   6.727   1.036 -0.0970 -0.2753 -0.2991
18839TIP3    H178008   0.140   6.749   1.042  0.0736  0.4562 -0.3286
18839TIP3    H278009   0.239   6.638   1.073 -0.9821 -0.7832 -1.3418
18840TIP3   OH278010   2.210   4.476   3.560 -0.3784  0.2772 -0.0917
18840TIP3    H178011   2.182   4.433   3.641 -0.1576 -0.7061 -0.5365
18840TIP3    H278012   2.227   4.567   3.586  2.3416 -0.6371  1.5470
18841TIP3   OH278013   5.043   3.802   5.148  0.6336 -0.5405 -0.1171
18841TIP3    H178014   5.061   3.865   5.079 -1.1401 -0.0049 -0.1128
18841TIP3    H278015   4.949   3.810   5.164  0.5819 -2.4011  0.6484
18842TIP3   OH278016   2.372   3.725  13.775 -0.3772 -0.0079  0.2525
18842TIP3    H178017   2.351   3.678  13.694 -1.2806 -0.4451  0.7327
18842TIP3    H278018   2.411   3.658  13.831  0.1850  0.2782  0.2013
18843TIP3   OH278019   1.041   3.116   5.940  0.1598  0.2951  0.4653
18843TIP3    H178020   0.980   3.149   5.874  0.1372 -1.7388 -0.5583
18843TIP3    H278021   0.986   3.093   6.014 -0.1576 -0.2308  0.0666
18844TIP3   OH278022   6.397   6.427  16.831 -0.8740 -0.2496  0.6943
18844TIP3    H178023   6.317   6.375  16.830 -1.1661  0.2058  0.6450
18844TIP3    H278024   6.424   6.427  16.923 -0.2312 -1.4693  0.5224
18845TIP3   OH278025   3.972   6.786  11.147  0.5168  0.0227 -0.1027
18845TIP3    H178026   4.067   6.775  11.145  0.5869  0.4599  0.7690
18845TIP3    H278027   3.947   6.786  11.055  1.3178 -0.4373 -0.3333
18846TIP3   OH278028   4.063   2.497   6.140 -0.1926 -0.1975  0.7111
18846TIP3    H178029   4.158   2.491   6.154 -0.2679  0.9344  1.8057
18846TIP3    H278030   4.044   2.591   6.148 -1.3394 -0.3613  0.0136
18847TIP3   OH278031   5.573   6.451  15.807 -0.7553  0.6197 -0.4418
18847TIP3    H178032   5.583   6.533  15.759 -2.0635  0.4608 -0.9962
18847TIP3    H278033   5.649   6.449  15.866 -0.2663  1.8209 -1.0047
18848TIP3   OH278034   2.701   1.871  16.870 -0.2987 -0.3988  0.2226
18848TIP3    H178035   2.677   1.806  16.803  0.0849  0.3296 -0.6432
18848TIP3    H278036   2.735   1.819  16.942 -0.4805 -1.1959 -0.2528
18849TIP3   OH278037   1.270   6.512   3.593  0.1248 -0.0345  0.0799
18849TIP3    H178038   1.326   6.561   3.533 -0.5811  1.0759  0.3132
18849TIP3    H278039   1.217   6.456   3.536 -1.8808  2.3902 -0.5024
18850TIP3   OH278040   0.502   5.254  11.982 -0.7450  0.2113 -0.8816
18850TIP3    H178041   0.526   5.307  12.058  0.4250 -0.0912 -1.0245
18850TIP3    H278042   0.491   5.166  12.016 -0.6809  0.1647 -0.9801
18851TIP3   OH278043   5.739   1.402   1.444  0.4037  0.2789 -0.6584
18851TIP3    H178044   5.709   1.313   1.424  0.1620 -0.3076  2.0173
18851TIP3    H278045   5.829   1.404   1.413  0.5975 -1.1173 -0.2685
18852TIP3   OH278046   1.263   4.306   1.345 -0.4964  0.8626 -0.3869
18852TIP3    H178047   1.196   4.346   1.400 -0.1352 -2.4832  2.6479
18852TIP3    H278048   1.344   4.350   1.371 -0.0994 -1.6386  2.9202
18853TIP3   OH278049   3.444   6.690  10.473  0.3978  0.2480 -0.6397
18853TIP3    H178050   3.351   6.685  10.492  0.2070  4.4296  0.0282
18853TIP3    H278051   3.478   6.603  10.494 -3.2563 -1.1885 -0.4666
18854TIP3   OH278052   2.671   4.904   6.170  0.0318 -0.0993 -0.1298
18854TIP3    H178053   2.576   4.916   6.170  0.2111  1.5156  1.6727
18854TIP3    H278054   2.706   4.992   6.182  1.8067 -0.5189 -1.9993
18855TIP3   OH278055   3.375   1.815  12.687  0.2398 -0.3332  0.1534
18855TIP3    H178056   3.359   1.738  12.632 -0.1091  0.2566 -0.5725
18855TIP3    H278057   3.301   1.872  12.670 -0.2576 -0.4720  1.8147
18856TIP3   OH278058   6.408   1.432   5.640 -0.3848 -0.2572 -0.1466
18856TIP3    H178059   6.432   1.418   5.549  1.0610 -2.1941  0.5081
18856TIP3    H278060   6.366   1.519   5.641 -0.0348 -0.0383 -2.5491
18857TIP3   OH278061   1.466   1.964   5.769 -0.5197 -0.4480  0.0665
18857TIP3    H178062   1.424   1.887   5.809  0.3194 -1.6742 -1.3371
18857TIP3    H278063   1.401   1.998   5.708 -0.7770 -0.2464  0.4567
18858TIP3   OH278064   5.853   5.721   1.701  0.7400 -0.8620  0.0475
18858TIP3    H178065   5.771   5.674   1.712  0.2895  0.1362  1.0498
18858TIP3    H278066   5.846   5.764   1.617 -0.5035  0.6653  0.9222
18859TIP3   OH278067   3.095   5.968   3.798 -0.2527 -0.0691 -0.0150
18859TIP3    H178068   3.150   5.900   3.760 -1.2710 -0.6597 -0.4520
18859TIP3    H278069   3.065   6.020   3.724 -1.3215 -0.5306  0.0921
18860TIP3   OH278070   6.026   0.154  16.960 -0.1985 -0.4598  0.3375
18860TIP3    H178071   6.017   0.185  17.050 -2.6140 -0.1353  0.0116
18860TIP3    H278072   6.043   0.060  16.968 -0.7274 -0.4923  1.1399
18861TIP3   OH278073   2.596   4.439  12.582  0.0818 -0.1861 -0.4275
18861TIP3    H178074   2.634   4.425  12.669 -0.5365 -0.3033 -0.1776
18861TIP3    H278075   2.622   4.528  12.559  1.3314 -0.5958 -0.6724
18862TIP3   OH278076   4.594   0.323  10.973 -0.1690  0.3834  0.7484
18862TIP3    H178077   4.508   0.287  10.995 -0.3446  1.3127  1.6577
18862TIP3    H278078   4.653   0.289  11.040  0.5392 -1.6115 -0.8423
18863TIP3   OH278079   6.604   1.966  17.085  0.0487  0.6073 -0.4366
18863TIP3    H178080   6.661   2.027  17.132  0.3268  0.8591 -1.0874
18863TIP3    H278081   6.613   1.883  17.132  1.3527  0.5057 -0.8347
18864TIP3   OH278082   2.453   3.878  14.099  0.1738 -0.1005 -0.2842
18864TIP3    H178083   2.409   3.795  14.117 -1.2135  1.1772  2.5413
18864TIP3    H278084   2.389   3.928  14.048 -0.1619  0.3146  0.5332
18865TIP3   OH278085   4.141   2.357   1.663  0.5703  0.3945  0.7222
18865TIP3    H178086   4.127   2.308   1.744 -1.0764  1.6997  1.2408
18865TIP3    H278087   4.053   2.378   1.632  1.2003  0.5054 -1.0531
18866TIP3   OH278088   6.580   2.562   3.251 -0.7052  0.1058 -0.0576
18866TIP3    H178089   6.661   2.539   3.204 -0.7605 -0.8161  0.2941
18866TIP3    H278090   6.517   2.496   3.224 -1.9176  1.9385 -1.8257
18867TIP3   OH278091   1.707   4.407  11.510  0.4824 -0.4790 -0.0636
18867TIP3    H178092   1.729   4.329  11.458  0.9491  0.6196 -1.5387
18867TIP3    H278093   1.787   4.458  11.513 -1.2442  2.7760 -4.1366
18868TIP3   OH278094   0.259   6.430  11.865  0.3734 -0.0691  0.3173
18868TIP3    H178095   0.328   6.391  11.919  0.8151  1.4373  0.8793
18868TIP3    H278096   0.223   6.500  11.920 -0.2193  0.4814 -0.7584
18869TIP3   OH278097   0.817   2.192  12.728 -0.1125 -0.4739 -0.0737
18869TIP3    H178098   0.865   2.109  12.730  2.5412  1.0517  1.5435
18869TIP3    H278099   0.859   2.242  12.658 -1.9951 -0.5811 -1.3495
18870TIP3   OH278100   1.868   1.334  13.571  0.7310  0.3266  0.1767
18870TIP3    H178101   1.810   1.289  13.510  1.3476 -1.4543  0.8655
18870TIP3    H278102   1.812   1.359  13.645 -0.0377  2.5753 -1.1187
18871TIP3   OH278103   4.321   1.884  15.212 -0.3938 -0.1056  0.1025
18871TIP3    H178104   4.324   1.788  15.214  1.1525 -0.0324  2.0121
18871TIP3    H278105   4.245   1.906  15.265 -1.5087 -0.2843 -1.3800
18872TIP3   OH278106   3.905   1.224   5.455  0.2718 -0.3744 -0.2080
18872TIP3    H178107   3.859   1.237   5.538 -0.2025 -1.5297 -0.2738
18872TIP3    H278108   3.980   1.283   5.459 -1.1188  1.4418 -0.0398
18873TIP3   OH278109   3.260   2.507  13.808  0.6015 -0.3807 -0.2270
18873TIP3    H178110   3.257   2.434  13.869 -1.4098  0.3117  0.5582
18873TIP3    H278111   3.353   2.524  13.794  1.1956 -5.2104 -3.0884
18874TIP3   OH278112   2.218   2.475   2.899  0.0773 -0.2198  0.0801
18874TIP3    H178113   2.264   2.398   2.934  0.4050 -0.3916 -0.7338
18874TIP3    H278114   2.157   2.440   2.835 -1.6203 -0.0473  1.5773
18875TIP3   OH278115   4.197   0.292   5.129 -0.0631 -0.1543  0.5963
18875TIP3    H178116   4.115   0.242   5.127  0.6193 -1.2562 -1.2616
18875TIP3    H278117   4.186   0.353   5.202 -2.5976 -0.1789  0.2879
18876TIP3   OH278118   3.171   0.430  12.319 -0.4656  0.2912  0.3633
18876TIP3    H178119   3.112   0.467  12.253 -1.0086 -0.3380  0.4838
18876TIP3    H278120   3.195   0.504  12.375 -0.8091  0.6327  0.0576
18877TIP3   OH278121   3.757   2.788  14.773 -0.3518 -0.0060 -0.2764
18877TIP3    H178122   3.689   2.856  14.781  1.1920  1.3722  1.5570
18877TIP3    H278123   3.839   2.835  14.788  0.7172 -2.3689  1.4315
18878TIP3   OH278124   1.663   4.491   4.400  0.5284  0.0229 -0.0440
18878TIP3    H178125   1.615   4.463   4.478  1.3915 -0.2014  0.4084
18878TIP3    H278126   1.662   4.587   4.405 -1.2689  0.0753 -0.8945
18879TIP3   OH278127   4.272   0.691   1.106 -0.2103  0.2108  0.2916
18879TIP3    H178128   4.349   0.739   1.075  0.1304 -0.0034  0.8088
18879TIP3    H278129   4.223   0.755   1.157  0.1823  0.0384  0.8806
18880TIP3   OH278130   3.692   1.539   5.628 -0.2526  0.2159  0.0523
18880TIP3    H178131   3.622   1.506   5.684 -0.3451  0.8077  0.2880
18880TIP3    H278132   3.661   1.522   5.538 -0.3476 -0.2341  0.1698
18881TIP3   OH278133   3.089   3.153   2.974 -0.0576  0.3530  0.6227
18881TIP3    H178134   3.045   3.087   3.029 -1.2411 -0.2716 -1.0134
18881TIP3    H278135   3.031   3.229   2.977 -0.4774  0.0810 -0.2675
18882TIP3   OH278136   3.462   6.669   4.034  0.2613  0.4915  0.3282
18882TIP3    H178137   3.505   6.609   4.094 -1.9358 -0.8727  0.5731
18882TIP3    H278138   3.507   6.655   3.950 -1.9737 -3.5795 -0.3330
18883TIP3   OH278139   3.936   3.569   3.903 -0.2007 -0.0400 -0.1084
18883TIP3    H178140   3.881   3.534   3.972 -1.2590 -1.2675 -1.5391
18883TIP3    H278141   4.019   3.521   3.911 -0.2446 -0.0271  0.4329
18884TIP3   OH278142   2.582   1.252  11.690  0.4596  0.9756  0.8344
18884TIP3    H178143   2.676   1.247  11.711  0.3223  1.5406  1.5823
18884TIP3    H278144   2.563   1.345  11.685 -0.3569  0.8801  2.0067
18885TIP3   OH278145   1.786   5.314   5.130  0.2053 -0.7001 -0.1415
18885TIP3    H178146   1.709   5.262   5.107 -0.1817 -0.4514  0.5817
18885TIP3    H278147   1.857   5.250   5.135  0.4029 -0.6975 -2.4613
18886TIP3   OH278148   4.634   3.802   2.718 -0.4893  0.1867  0.0554
18886TIP3    H178149   4.728   3.814   2.709 -0.6334  1.7473  0.3834
18886TIP3    H278150   4.621   3.788   2.812 -0.7931  2.4035  0.3861
18887TIP3   OH278151   4.954   2.621  12.269 -0.0135  0.3370 -0.3254
18887TIP3    H178152   4.883   2.558  12.261  0.5168 -0.3969  0.6774
18887TIP3    H278153   4.973   2.648  12.179  0.3091 -1.5515 -0.8342
18888TIP3   OH278154   2.117   5.025   0.423 -0.5030 -0.4297  0.0028
18888TIP3    H178155   2.035   5.040   0.376 -0.7834 -0.2873  0.5225
18888TIP3    H278156   2.186   5.041   0.359 -0.8994 -1.3752 -0.6723
18889TIP3   OH278157   2.296   5.844   5.301 -0.6230  0.4837  0.2691
18889TIP3    H178158   2.241   5.817   5.374  0.0833  0.2224  0.6973
18889TIP3    H278159   2.339   5.924   5.331 -1.1653  0.9878 -0.2625
18890TIP3   OH278160   1.863   4.099  15.204  0.3010 -0.2582  0.0813
18890TIP3    H178161   1.894   4.008  15.202  0.1058 -0.3661  1.5968
18890TIP3    H278162   1.794   4.100  15.270 -0.9413  0.6249 -1.1970
18891TIP3   OH278163   0.836   2.870  12.488 -0.4435 -0.0842  0.2289
18891TIP3    H178164   0.831   2.791  12.434 -0.0993  0.2748 -0.3301
18891TIP3    H278165   0.820   2.839  12.577 -0.0483 -0.8280  0.0455
18892TIP3   OH278166   6.367   1.377  10.396 -0.0089 -0.1965 -0.0706
18892TIP3    H178167   6.290   1.395  10.450  0.2125  1.2146 -0.1955
18892TIP3    H278168   6.393   1.288  10.419 -1.4943 -0.5762  0.1895
18893TIP3   OH278169   3.946   1.078  16.381 -0.1333 -0.3158  0.2663
18893TIP3    H178170   4.010   1.109  16.318  1.3529 -1.5151  1.1384
18893TIP3    H278171   3.868   1.057  16.329  0.6343 -0.0890 -0.9831
18894TIP3   OH278172   1.857   6.377  13.696 -0.6816  0.0597 -0.2489
18894TIP3    H178173   1.917   6.350  13.766  1.4908  0.4716 -1.8796
18894TIP3    H278174   1.795   6.436  13.738  1.2194  1.1168  1.1249
18895TIP3   OH278175   4.811   3.752  12.220 -0.2961  0.4300  0.4184
18895TIP3    H178176   4.759   3.795  12.288 -1.6202 -0.2919 -0.1403
18895TIP3    H278177   4.760   3.762  12.140 -0.4411 -1.8572  0.2123
18896TIP3   OH278178   1.643   0.063   5.058 -0.1613 -0.0007  0.9783
18896TIP3    H178179   1.584   0.125   5.101 -0.3326 -0.2202  1.0603
18896TIP3    H278180   1.590   0.023   4.989  0.0652  0.2315  0.6672
18897TIP3   OH278181   4.868   3.212  11.245  0.8306  0.1289  0.0047
18897TIP3    H178182   4.913   3.277  11.298  1.9861 -0.0935 -0.6926
18897TIP3    H278183   4.867   3.248  11.157 -0.4306  0.1647  0.0247
18898TIP3   OH278184   0.079   2.892  16.082 -0.1535  0.3086  0.1803
18898TIP3    H178185   0.058   2.985  16.073  0.6307  0.5113  0.3859
18898TIP3    H278186   0.091   2.862  15.992  0.2289  0.5669  0.1390
18899TIP3   OH278187   4.074   2.721  14.079 -0.2614  0.1917 -0.0198
18899TIP3    H178188   4.131   2.783  14.034  1.8364 -1.3601  0.4179
18899TIP3    H278189   4.060   2.759  14.165 -0.6567  1.0294 -0.4526
18900TIP3   OH278190   6.180   4.719   3.909  0.2661 -0.0026 -0.0931
18900TIP3    H178191   6.253   4.762   3.864 -0.3924  4.0431  2.4138
18900TIP3    H278192   6.219   4.682   3.988  0.4128 -2.1032 -1.1242
18901TIP3   OH278193   4.082   5.551  15.812 -0.2123  0.0478  0.3065
18901TIP3    H178194   4.091   5.526  15.720 -1.1472 -1.1920  0.5526
18901TIP3    H278195   4.123   5.480  15.860 -0.6608  0.1954  0.9035
18902TIP3   OH278196   3.133   1.106  17.169  0.7516  0.1112 -0.2025
18902TIP3    H178197   3.197   1.035  17.171  0.5075 -0.0914  0.5289
18902TIP3    H278198   3.048   1.062  17.167  0.6261  0.3681 -1.9698
18903TIP3   OH278199   6.201   2.539  14.640  0.0197 -0.1389  0.3985
18903TIP3    H178200   6.283   2.499  14.667  1.2328  1.5361 -0.6780
18903TIP3    H278201   6.226   2.601  14.572 -2.3695 -0.8835 -1.2115
18904TIP3   OH278202   0.008   2.871   3.095 -0.3693 -0.2665  0.3727
18904TIP3    H178203  -0.008   2.934   3.024 -1.6271  1.1130  1.8385
18904TIP3    H278204   0.101   2.882   3.116 -0.6135  1.2514  0.7272
18905TIP3   OH278205   0.576   1.543  11.665  0.3940 -0.2783 -0.1418
18905TIP3    H178206   0.522   1.466  11.649  0.6480 -0.7822  1.2993
18905TIP3    H278207   0.623   1.523  11.746 -0.8219  2.0752  1.2016
18906TIP3   OH278208   1.589   6.581  12.532  0.3457 -0.1029 -0.3977
18906TIP3    H178209   1.561   6.673  12.528 -2.2739 -0.8168  0.7563
18906TIP3    H278210   1.570   6.554  12.622  0.6220 -1.9271 -0.8682
18907TIP3   OH278211   4.334   1.366  14.085  0.0535  0.1277 -0.2097
18907TIP3    H178212   4.268   1.299  14.101  0.5303 -0.1289  0.7492
18907TIP3    H278213   4.392   1.360  14.161  2.5290 -1.2340 -2.1298
18908TIP3   OH278214   1.183   6.771  16.740  0.0913 -0.2783  0.4933
18908TIP3    H178215   1.189   6.813  16.654 -1.0184 -0.9674  0.0727
18908TIP3    H278216   1.125   6.828  16.790  1.2272  0.4558  1.0010
18909TIP3   OH278217   3.724   4.742  14.873 -0.4193 -0.1918 -0.8352
18909TIP3    H178218   3.752   4.718  14.962 -2.7239  0.9284  0.2162
18909TIP3    H278219   3.754   4.833  14.862 -1.5409  0.2128 -0.5895
18910TIP3   OH278220   0.023   6.776  16.797 -0.0974 -0.2719  0.0581
18910TIP3    H178221   0.031   6.858  16.846  0.7731 -0.4267  0.1824
18910TIP3    H278222   0.052   6.709  16.859  2.4266 -0.3216 -1.1076
18911TIP3   OH278223   4.080   6.593  11.511 -0.5461 -0.3493  0.0385
18911TIP3    H178224   4.114   6.550  11.432 -0.6877  1.4655 -1.0329
18911TIP3    H278225   4.156   6.599  11.569  0.1556  0.5167 -0.9488
18912TIP3   OH278226   1.175   2.061   1.392 -0.2890 -0.6929 -0.2844
18912TIP3    H178227   1.211   1.979   1.427  0.7495 -0.1347 -0.0204
18912TIP3    H278228   1.096   2.077   1.443  1.2943  0.2068  1.9326
18913TIP3   OH278229   0.830   0.173   0.684 -0.0764  0.3996 -0.1383
18913TIP3    H178230   0.822   0.198   0.592 -0.4712 -2.0837 -0.8143
18913TIP3    H278231   0.905   0.113   0.687  0.9737  1.7396  1.4612
18914TIP3   OH278232   5.961   3.552   0.895  0.2961  0.0857 -0.2954
18914TIP3    H178233   5.876   3.593   0.913  0.9737  0.7540  1.4787
18914TIP3    H278234   6.008   3.558   0.978  1.3809 -1.9957 -0.7410
18915TIP3   OH278235   4.482   0.826   1.396  0.2056 -0.7175 -0.5045
18915TIP3    H178236   4.462   0.791   1.482  0.5084  0.6944  0.1577
18915TIP3    H278237   4.547   0.765   1.359 -1.1367 -2.2226 -0.4137
18916TIP3   OH278238   3.925   1.337  15.502  0.1140  0.1097 -0.2986
18916TIP3    H178239   3.834   1.363  15.496  0.1947  0.0648 -1.9809
18916TIP3    H278240   3.973   1.406  15.455  0.6496 -1.3253 -1.8881
18917TIP3   OH278241   0.201   4.147   1.510  0.0727  0.1374 -0.3259
18917TIP3    H178242   0.236   4.236   1.506 -0.7707  0.4772 -0.3547
18917TIP3    H278243   0.197   4.118   1.419 -0.1331  0.2654 -0.3579
18918TIP3   OH278244   2.293   0.841   0.555  0.2806  0.0594  0.7814
18918TIP3    H178245   2.294   0.778   0.627  0.9177 -0.0409  0.6912
18918TIP3    H278246   2.383   0.841   0.522  0.2526  0.9244  0.6935
18919TIP3   OH278247   4.970   0.242   6.183 -0.0641  0.5224  0.3731
18919TIP3    H178248   5.034   0.204   6.122 -0.5155  0.8127 -0.2903
18919TIP3    H278249   5.022   0.301   6.237  0.2638  0.6328 -0.0558
18920TIP3   OH278250   3.253   5.976   5.052 -0.2423  0.3948  0.3257
18920TIP3    H178251   3.315   5.974   4.979 -1.0835 -0.6049 -0.3701
18920TIP3    H278252   3.231   6.069   5.062  0.1869  0.5813 -0.4303
18921TIP3   OH278253   4.147   1.292   4.164 -0.3815  1.0908 -0.3688
18921TIP3    H178254   4.168   1.352   4.236 -1.8868  3.8406 -2.1250
18921TIP3    H278255   4.061   1.257   4.186  0.4531 -0.3988  0.6065
18922TIP3   OH278256   2.993   0.435  14.189 -0.4032 -0.4947 -0.5001
18922TIP3    H178257   2.946   0.444  14.271 -0.6995  0.6450 -0.7953
18922TIP3    H278258   2.948   0.364  14.143 -1.8231  0.5677 -0.7684
18923TIP3   OH278259   0.166   1.856   4.929  0.2205  0.3921 -0.3978
18923TIP3    H178260   0.155   1.780   4.872  2.8716 -0.7238  0.4757
18923TIP3    H278261   0.186   1.928   4.870  2.3234 -0.6118 -0.9596
18924TIP3   OH278262   5.181   3.277  14.001 -0.1890 -0.1489 -0.0637
18924TIP3    H178263   5.195   3.224  14.078 -0.5669  0.3703  0.3698
18924TIP3    H278264   5.265   3.320  13.985  1.0360 -3.1420 -2.1957
18925TIP3   OH278265   0.020   5.126  12.991 -0.4427  0.4517  0.2223
18925TIP3    H178266   0.114   5.117  12.973 -1.1463 -2.3221 -2.5739
18925TIP3    H278267   0.011   5.102  13.084  1.8172  2.7594  1.0844
18926TIP3   OH278268   5.509   6.323  14.904  0.3149  0.3584 -0.5281
18926TIP3    H178269   5.446   6.379  14.950  1.3859  0.4241  0.8909
18926TIP3    H278270   5.498   6.346  14.811 -0.4202  1.7327 -0.1138
18927TIP3   OH278271   6.783   2.237   5.579 -0.0600 -0.0344 -0.3230
18927TIP3    H178272   6.693   2.258   5.605 -0.1593 -0.1842 -0.5384
18927TIP3    H278273   6.837   2.267   5.652 -0.3486 -0.5996  0.1311
18928TIP3   OH278274   4.981   4.504  13.131  0.0054 -0.0965  0.0558
18928TIP3    H178275   4.976   4.600  13.123  1.6050  0.1083  1.2645
18928TIP3    H278276   5.039   4.478  13.060  0.7727 -0.0175  0.6566
18929TIP3   OH278277   2.853   1.916  12.441  0.5073 -0.7903  0.3505
18929TIP3    H178278   2.923   1.932  12.379 -1.1707  0.6125 -1.2255
18929TIP3    H278279   2.804   1.843  12.403 -1.7033  1.3696 -1.0610
18930TIP3   OH278280   0.261   1.246   2.316 -0.1520 -0.0054  0.3559
18930TIP3    H178281   0.170   1.274   2.317 -0.4293 -0.8871  1.0229
18930TIP3    H278282   0.290   1.257   2.406  0.4866  0.5361  0.0842
18931TIP3   OH278283   5.871   2.213   5.023  0.1816 -0.2426  0.3259
18931TIP3    H178284   5.794   2.160   5.004 -0.8451  1.6914 -1.1098
18931TIP3    H278285   5.839   2.283   5.080  1.0440  0.1267  0.3666
18932TIP3   OH278286   3.999   1.684  17.086  0.2029 -0.8759 -0.1063
18932TIP3    H178287   4.078   1.738  17.089 -0.7494  0.4479  1.4810
18932TIP3    H278288   3.976   1.670  17.178 -1.1101 -1.6972 -0.5534
18933TIP3   OH278289   2.161   1.883   1.548  0.1704 -0.1879  0.3093
18933TIP3    H178290   2.121   1.796   1.546 -1.3878  0.5152  0.1483
18933TIP3    H278291   2.243   1.870   1.596  1.0179 -2.1594 -1.5813
18934TIP3   OH278292   2.865   5.178  16.008 -0.0356  0.5935 -0.7626
18934TIP3    H178293   2.823   5.122  15.943 -1.6862  2.4930 -1.3895
18934TIP3    H278294   2.957   5.153  16.005 -0.4559 -0.8448 -2.2820
18935TIP3   OH278295   6.398   4.820   3.691 -0.1966  0.0844  0.0980
18935TIP3    H178296   6.436   4.766   3.621  0.2081 -0.4912  0.7589
18935TIP3    H278297   6.436   4.785   3.771 -1.2428  0.2532  0.6726
18936TIP3   OH278298   5.038   1.994   2.312 -0.0077 -0.2462 -0.0595
18936TIP3    H178299   5.010   1.902   2.313 -1.1819  0.0810  3.2906
18936TIP3    H278300   4.974   2.038   2.257 -1.5916 -0.8770  1.2159
18937TIP3   OH278301   4.118   1.096   2.904  0.2023 -0.5805  0.3198
18937TIP3    H178302   4.129   1.040   2.980  1.9516  0.2634  0.7051
18937TIP3    H278303   4.069   1.172   2.937  2.3937  0.5802  1.0408
18938TIP3   OH278304   4.700   1.333  12.331  0.7866 -0.3848  0.6166
18938TIP3    H178305   4.661   1.250  12.301 -0.0867 -0.8807  3.0687
18938TIP3    H278306   4.785   1.307  12.367  0.5295 -0.2225  1.3477
18939TIP3   OH278307   5.589   6.304  16.910 -0.2976 -0.2997 -0.3111
18939TIP3    H178308   5.551   6.302  16.998 -0.5914 -2.6893 -0.4451
18939TIP3    H278309   5.683   6.288  16.924 -0.3535 -0.7438 -0.4066
18940TIP3   OH278310   0.562   2.451   2.281 -0.7907  0.1110 -0.3706
18940TIP3    H178311   0.531   2.361   2.287 -1.2676  0.3321  0.8260
18940TIP3    H278312   0.654   2.447   2.308 -1.2768  0.2084  1.3792
18941TIP3   OH278313   5.883   6.387   2.175 -0.5054  0.0317  0.0551
18941TIP3    H178314   5.859   6.439   2.098 -0.2161  1.7683  1.1138
18941TIP3    H278315   5.970   6.352   2.155 -0.9438 -0.5399 -0.8989
18942TIP3   OH278316   4.366   2.422   5.720 -0.3040 -0.0866 -0.1568
18942TIP3    H178317   4.286   2.434   5.669 -1.6952 -1.2707  1.6850
18942TIP3    H278318   4.370   2.328   5.737  0.8801  0.1113  0.7280
18943TIP3   OH278319   2.480   6.600  15.308  0.3035  0.0655  0.3956
18943TIP3    H178320   2.546   6.633  15.248 -0.6826  1.0343 -0.1847
18943TIP3    H278321   2.513   6.515  15.336 -0.0287 -1.1714 -2.8078
18944TIP3   OH278322   5.063   5.936  16.396  0.3406 -0.2581 -0.1151
18944TIP3    H178323   5.015   5.914  16.316  0.7122  1.0265 -0.7081
18944TIP3    H278324   5.114   6.014  16.372  0.9531 -0.2534  1.1852
18945TIP3   OH278325   1.922   0.927   2.152 -0.4648  0.0217 -0.0126
18945TIP3    H178326   1.956   0.841   2.126 -0.3832 -0.0732  0.4157
18945TIP3    H278327   1.939   0.933   2.246  0.7853  1.0784 -0.2959
18946TIP3   OH278328   0.237   1.756  16.738 -0.2337  0.5782 -0.2056
18946TIP3    H178329   0.250   1.846  16.707 -0.1309  0.7596  0.3556
18946TIP3    H278330   0.175   1.764  16.810 -0.8356  0.1045 -0.6588
18947TIP3   OH278331   5.078   1.333  12.879  0.3229  0.2009  0.4841
18947TIP3    H178332   5.079   1.429  12.871  0.2237  0.1310 -0.3342
18947TIP3    H278333   4.989   1.308  12.855 -0.0426  0.0118  1.9775
18948TIP3   OH278334   1.329   1.265  16.618  0.0904 -0.3150 -0.2428
18948TIP3    H178335   1.245   1.294  16.585  1.1473  1.1789 -1.6739
18948TIP3    H278336   1.344   1.180  16.577 -0.1982 -0.0686 -0.8510
18949TIP3   OH278337   1.709   6.415   0.000 -0.5366  0.0836 -0.1447
18949TIP3    H178338   1.659   6.397  -0.080  0.5337 -0.0101 -0.7972
18949TIP3    H278339   1.747   6.502  -0.014  1.6248 -0.9440 -0.7643
18950TIP3   OH278340   5.170   0.688   5.642  0.2005 -0.6194  0.4139
18950TIP3    H178341   5.167   0.767   5.695  0.0159 -0.2510 -0.1374
18950TIP3    H278342   5.104   0.630   5.680 -1.1824  0.3315 -0.4837
18951TIP3   OH278343   1.606   4.773  13.624  0.2622 -0.1204  0.3680
18951TIP3    H178344   1.589   4.847  13.565  0.9423 -0.9516 -0.8842
18951TIP3    H278345   1.654   4.710  13.570  0.4766 -1.0933  1.6857
18952TIP3   OH278346   2.206   2.761   5.617  0.2221  0.3046  0.3093
18952TIP3    H178347   2.189   2.819   5.543  3.4364  0.6391 -0.2545
18952TIP3    H278348   2.219   2.675   5.577 -1.4561 -0.2191  0.8484
18953TIP3   OH278349   1.607   5.570   5.280 -0.5049  0.0358  0.3300
18953TIP3    H178350   1.669   5.572   5.207 -1.7542 -0.3628 -0.7535
18953TIP3    H278351   1.561   5.654   5.275 -2.1590 -0.9020 -0.7417
18954TIP3   OH278352   1.800   6.085  16.149  0.1165 -0.2257  0.2384
18954TIP3    H178353   1.896   6.078  16.156  0.3952  0.3787 -2.3714
18954TIP3    H278354   1.771   5.996  16.130  0.1159 -0.4753  1.3893
18955TIP3   OH278355   1.942   3.949   0.871  0.1963 -0.0586  0.3618
18955TIP3    H178356   1.876   4.018   0.862 -0.6015 -0.9263 -0.6543
18955TIP3    H278357   1.891   3.868   0.872  1.1729 -0.6724  0.7468
18956TIP3   OH278358   2.880   1.719  14.051  0.0234  0.3893 -0.0017
18956TIP3    H178359   2.785   1.714  14.034  0.1301  0.5204 -0.6880
18956TIP3    H278360   2.913   1.770  13.977  0.9423 -1.5427 -0.9482
18957TIP3   OH278361   1.184   1.839   6.131  0.3380 -0.3507  0.1306
18957TIP3    H178362   1.171   1.762   6.187 -1.3868  0.6061  1.0992
18957TIP3    H278363   1.222   1.904   6.190 -3.6554  1.4593  0.9366
18958TIP3   OH278364   1.986   6.235   3.444 -0.4995  0.0213  0.0960
18958TIP3    H178365   1.910   6.245   3.501  0.9692  0.6695  1.9771
18958TIP3    H278366   2.015   6.324   3.426  0.0604 -0.2272 -0.2477
18959TIP3   OH278367   0.881   1.195   6.091  0.2805  0.3450  0.0363
18959TIP3    H178368   0.896   1.219   6.000 -0.8839 -1.0328 -0.5435
18959TIP3    H278369   0.868   1.279   6.136 -1.1908  0.9515 -1.4506
18960TIP3   OH278370   0.303   6.764  15.426  0.2593  0.0276  0.9626
18960TIP3    H178371   0.281   6.824  15.497  0.2014 -0.9350  1.7771
18960TIP3    H278372   0.218   6.734  15.393  0.2732  1.1483 -0.1056
18961TIP3   OH278373   0.362   4.650   3.196 -0.8046 -0.0871  0.0819
18961TIP3    H178374   0.300   4.579   3.177  0.1056 -0.6607 -0.7354
18961TIP3    H278375   0.385   4.686   3.111 -0.0572  0.1716  0.3912
18962TIP3   OH278376   6.137   2.595   5.286  0.2461 -0.2850 -0.1356
18962TIP3    H178377   6.205   2.541   5.326 -1.7773 -0.9405  2.6062
18962TIP3    H278378   6.184   2.665   5.241  2.6961 -0.3941  2.1687
18963TIP3   OH278379   6.407   5.440   1.887  0.0956 -0.3648  0.1422
18963TIP3    H178380   6.341   5.483   1.832  0.2616 -0.4476 -0.1206
18963TIP3    H278381   6.360   5.420   1.969  0.4703  1.8976  0.9564
18964TIP3   OH278382   1.711   3.778   0.390 -0.0605  0.4592  0.2243
18964TIP3    H178383   1.776   3.712   0.365  0.5971  0.7975  1.0008
18964TIP3    H278384   1.656   3.788   0.313  0.4919 -0.2215 -0.2668
18965TIP3   OH278385   5.217   6.310  11.764 -0.0448 -0.3470 -0.2057
18965TIP3    H178386   5.190   6.221  11.784  0.8566 -0.6544 -0.2947
18965TIP3    H278387   5.182   6.363  11.835 -0.5407 -0.7817 -0.1230
18966TIP3   OH278388   2.924   3.879  14.144 -0.2906  0.4264 -0.3542
18966TIP3    H178389   2.960   3.893  14.057  0.6774  0.8767  0.1145
18966TIP3    H278390   2.863   3.806  14.133 -0.1692  0.4776 -1.4046
18967TIP3   OH278391   5.914   1.553  15.412 -0.3602 -0.3215 -0.8010
18967TIP3    H178392   5.957   1.639  15.411 -1.7923  0.4157 -0.0418
18967TIP3    H278393   5.850   1.558  15.342  0.1799 -1.1114 -1.3551
18968TIP3   OH278394   2.072   5.903  15.945  0.0409 -0.1972 -1.1689
18968TIP3    H178395   2.034   5.826  15.987 -0.2307 -0.2060 -1.4354
18968TIP3    H278396   2.114   5.951  16.017 -0.5416 -0.1418 -0.8655
18969TIP3   OH278397   5.181   2.219   2.571  0.2464  0.4776  0.5002
18969TIP3    H178398   5.248   2.244   2.506 -0.7711 -0.0303 -0.7536
18969TIP3    H278399   5.114   2.287   2.564 -0.2386 -0.0027  0.4838
18970TIP3   OH278400   2.978   1.011   2.294  0.4480  0.1665 -0.0874
18970TIP3    H178401   3.019   1.095   2.276  0.5859  0.6591  2.3694
18970TIP3    H278402   2.892   1.033   2.330 -0.9511 -0.8118 -2.7028
18971TIP3   OH278403   1.379   0.749   0.168  0.2155 -0.0129  0.3323
18971TIP3    H178404   1.353   0.696   0.093  0.7945  0.4248 -0.1753
18971TIP3    H278405   1.323   0.826   0.164 -1.2159 -0.9539  1.5482
18972TIP3   OH278406   1.188   1.836   0.921 -0.2114  0.1947  0.4347
18972TIP3    H178407   1.166   1.818   1.012  2.2134 -4.0222  0.3240
18972TIP3    H278408   1.279   1.865   0.923  0.6368 -2.1980 -0.7355
18973TIP3   OH278409   0.982   6.737  11.449 -0.1354 -0.8535  0.2564
18973TIP3    H178410   0.916   6.673  11.475  0.5779 -1.1276  1.4567
18973TIP3    H278411   1.053   6.684  11.412 -0.3191 -0.6140 -0.4389
18974TIP3   OH278412   6.721   2.493  13.723 -0.4474 -0.5027 -0.1211
18974TIP3    H178413   6.724   2.588  13.723 -0.2503 -0.5070  0.2397
18974TIP3    H278414   6.675   2.470  13.642 -0.4087 -0.1072 -0.2554
18975TIP3   OH278415   1.165   0.198  14.963  0.5774 -0.1572  0.1242
18975TIP3    H178416   1.198   0.257  14.895 -1.0848 -0.3372 -0.8690
18975TIP3    H278417   1.151   0.114  14.918  1.8076 -0.9891  1.2610
18976TIP3   OH278418   4.612   4.053   2.658  0.1760  0.3346  0.1861
18976TIP3    H178419   4.602   4.061   2.753  0.5849  1.1857  0.1603
18976TIP3    H278420   4.598   3.960   2.640 -1.1373  0.3740  0.9314
18977TIP3   OH278421   5.586   5.794  12.131  0.2734 -0.8116  0.1107
18977TIP3    H178422   5.601   5.748  12.214 -0.3552 -0.4191  0.4478
18977TIP3    H278423   5.517   5.857  12.151  0.5935 -0.2482 -0.5461
18978TIP3   OH278424   0.915   3.547   3.799  0.0154 -0.4078 -0.0905
18978TIP3    H178425   0.948   3.547   3.889  0.0001 -0.2160 -0.0842
18978TIP3    H278426   0.822   3.571   3.808 -0.1570 -1.0856 -0.0957
18979TIP3   OH278427   5.431   4.325  12.923  0.2912 -0.2074 -0.6097
18979TIP3    H178428   5.482   4.244  12.926 -0.9409 -0.9756  0.2193
18979TIP3    H278429   5.473   4.383  12.986  0.4984 -0.6142 -0.3706
18980TIP3   OH278430   2.469   0.683   5.601  0.5897 -0.3888 -0.0099
18980TIP3    H178431   2.555   0.662   5.564 -0.7414 -2.8628 -1.9082
18980TIP3    H278432   2.434   0.598   5.628 -0.6692  0.7763  2.1325
18981TIP3   OH278433   4.655   5.838   1.029 -0.3542  0.0038  0.0760
18981TIP3    H178434   4.717   5.910   1.024 -0.4346 -0.0495 -2.4552
18981TIP3    H278435   4.604   5.844   0.948 -1.7803 -1.6248  0.7974
18982TIP3   OH278436   3.514   4.266   3.124  0.4058  0.5813  0.4255
18982TIP3    H178437   3.452   4.339   3.115  2.5103  2.3397 -0.5274
18982TIP3    H278438   3.538   4.245   3.034  3.5555  2.0994  0.8446
18983TIP3   OH278439   1.444   2.295   3.221 -0.3292  0.6757 -0.0997
18983TIP3    H178440   1.353   2.289   3.250  0.1808 -0.0620  1.4026
18983TIP3    H278441   1.482   2.210   3.245  0.7822  1.0254 -0.6034
18984TIP3   OH278442   1.941   4.859  15.078  0.8466 -0.2949 -0.2361
18984TIP3    H178443   1.975   4.864  14.988  0.5172 -1.1747 -0.4139
18984TIP3    H278444   1.870   4.923  15.081  0.4055 -0.7577 -0.8055
18985TIP3   OH278445   1.059   3.417  13.463  0.3842 -0.3673  0.1100
18985TIP3    H178446   1.027   3.507  13.461 -0.5778 -0.6980  0.4407
18985TIP3    H278447   1.118   3.411  13.387 -0.3250  0.2545 -0.4969
18986TIP3   OH278448   5.756   1.540  12.783  0.2410 -0.3452  0.3079
18986TIP3    H178449   5.828   1.479  12.800  0.4260 -0.0842  0.4758
18986TIP3    H278450   5.755   1.551  12.688  0.9550  0.2923  0.3749
18987TIP3   OH278451   2.657   1.512  14.925 -0.0031  0.0544  0.7221
18987TIP3    H178452   2.613   1.513  14.840 -1.3876 -1.1645  1.3917
18987TIP3    H278453   2.588   1.527  14.988  1.0188  0.9504  1.6490
18988TIP3   OH278454   5.694   0.985  12.468  0.0612  0.3623 -0.2768
18988TIP3    H178455   5.670   0.951  12.382  1.1487 -1.8474  0.2421
18988TIP3    H278456   5.730   1.072  12.452  0.4964 -0.1428 -2.0774
18989TIP3   OH278457   4.401   4.683  15.773 -0.1369  0.1416 -0.5272
18989TIP3    H178458   4.350   4.608  15.803 -0.5858  0.9912  0.8507
18989TIP3    H278459   4.456   4.648  15.703 -0.4931 -1.4213 -0.0405
18990TIP3   OH278460   6.619   5.056   3.740 -0.0094  0.8436  0.5908
18990TIP3    H178461   6.561   4.988   3.708  1.0920 -0.9719  2.3415
18990TIP3    H278462   6.606   5.129   3.680 -2.1640 -0.4348 -0.5582
18991TIP3   OH278463   4.186   3.683  14.805  0.8623 -0.5602  0.4438
18991TIP3    H178464   4.211   3.609  14.750  1.0447  0.2851 -0.6319
18991TIP3    H278465   4.097   3.705  14.776  0.6189 -0.6624  1.0997
18992TIP3   OH278466   6.619   3.177  15.494 -0.3366  0.0301 -0.5605
18992TIP3    H178467   6.635   3.270  15.476 -1.1551  0.2753 -0.0518
18992TIP3    H278468   6.590   3.141  15.409 -0.8686  0.4322 -0.5516
18993TIP3   OH278469   4.554   3.559   6.276 -0.1088  0.1696 -0.1239
18993TIP3    H178470   4.517   3.643   6.250 -0.5560  0.4350  1.3223
18993TIP3    H278471   4.481   3.510   6.312 -0.0174 -1.1792 -1.7178
18994TIP3   OH278472   4.839   3.568   2.791  0.5480  0.5757  0.1871
18994TIP3    H178473   4.874   3.657   2.785  2.7611 -0.2871 -0.3104
18994TIP3    H278474   4.884   3.530   2.866 -1.7461  0.4410  1.5178
18995TIP3   OH278475   5.255   1.288   0.909  0.0124  0.0838  1.0208
18995TIP3    H178476   5.167   1.253   0.908  0.2303 -0.4610 -1.6260
18995TIP3    H278477   5.258   1.343   0.988 -2.6667  0.1366  1.1199
18996TIP3   OH278478   1.113   3.299  11.761 -0.1741  0.0463  0.1270
18996TIP3    H178479   1.033   3.339  11.795  0.0151  0.8157 -0.3214
18996TIP3    H278480   1.170   3.373  11.740 -0.0679 -0.4250 -1.3168
18997TIP3   OH278481   5.860   5.363   2.281  0.0215 -0.2462 -0.3677
18997TIP3    H178482   5.856   5.458   2.286  0.6999 -0.2823  0.8679
18997TIP3    H278483   5.861   5.345   2.187  2.5059  1.0931 -0.6497
18998TIP3   OH278484   3.798   5.865   6.486  0.1619 -0.0281  0.6200
18998TIP3    H178485   3.724   5.925   6.471 -0.8133 -1.3420  0.0799
18998TIP3    H278486   3.789   5.798   6.418  1.8985 -0.1812  0.5121
18999TIP3   OH278487   4.856   1.668   5.648  0.2815  0.0035 -0.4630
18999TIP3    H178488   4.798   1.683   5.722  0.1501  2.0878 -0.9435
18999TIP3    H278489   4.798   1.638   5.577  0.3820 -1.8004  0.1963
19000TIP3   OH278490   1.042   4.515  11.812  0.1736 -0.4057 -0.4268
19000TIP3    H178491   1.133   4.500  11.838  0.0624  0.3702  0.4485
19000TIP3    H278492   0.992   4.500  11.892 -0.0318  3.5319  0.3145
19001TIP3   OH278493   2.992   5.915   2.144 -0.2693 -0.2056  0.3617
19001TIP3    H178494   3.055   5.922   2.073 -0.7173  0.4003  0.0156
19001TIP3    H278495   3.044   5.919   2.223  0.1307  0.2871  0.0784
19002TIP3   OH278496   0.377   1.864  13.017 -0.2121  0.1543 -0.2439
19002TIP3    H178497   0.380   1.800  13.089  1.9905  0.5699  0.0574
19002TIP3    H278498   0.447   1.836  12.957 -0.4581  1.2163 -1.0401
19003TIP3   OH278499   3.481   4.403  14.206  0.0469 -0.2813 -1.0161
19003TIP3    H178500   3.387   4.382  14.207  0.1870 -0.9188 -1.2890
19003TIP3    H278501   3.494   4.457  14.284 -0.4421 -0.6261 -0.6956
19004TIP3   OH278502   3.982   5.123  16.114 -0.0325 -0.5603  0.1384
19004TIP3    H178503   3.999   5.094  16.024 -1.5078  0.2991 -0.4326
19004TIP3    H278504   3.934   5.205  16.104  2.0982  0.9480  1.7346
19005TIP3   OH278505   1.138   1.937  17.188 -0.2280  0.1528 -0.0679
19005TIP3    H178506   1.112   1.869  17.126 -1.4710  0.1495  0.4368
19005TIP3    H278507   1.233   1.931  17.192 -0.0349  0.9446 -2.8658
19006TIP3   OH278508   5.797   2.830  14.452  0.1732  0.1671 -0.3131
19006TIP3    H178509   5.778   2.817  14.360 -1.2085  1.7119 -0.2705
19006TIP3    H278510   5.758   2.915  14.473  1.4639  0.3612  1.4110
19007TIP3   OH278511   2.169   0.187   6.333 -0.1352 -0.2697  0.0278
19007TIP3    H178512   2.084   0.176   6.290  0.4367  0.5373 -1.3466
19007TIP3    H278513   2.213   0.103   6.322 -1.3764 -1.2463  2.1983
19008TIP3   OH278514   0.916   4.246   3.839  0.1809 -0.2393  0.5997
19008TIP3    H178515   0.849   4.253   3.907  0.4138  0.5011  0.7511
19008TIP3    H278516   0.877   4.289   3.763  0.7425  0.7515  0.8774
19009TIP3   OH278517   0.318   5.906   1.914 -0.0579 -0.0052  0.3762
19009TIP3    H178518   0.259   5.850   1.964  1.7275 -2.8052 -0.5016
19009TIP3    H278519   0.278   5.913   1.827  0.4064 -1.1782  0.0495
19010TIP3   OH278520   1.391   3.986  12.687  0.2610 -0.2843  0.9728
19010TIP3    H178521   1.404   4.048  12.759  1.7361  0.1330  0.3727
19010TIP3    H278522   1.382   3.901  12.729  2.7796 -0.2810  1.5895
19011TIP3   OH278523   4.164   1.325   4.827  0.1984  0.4211 -0.5348
19011TIP3    H178524   4.181   1.418   4.816  1.5378  0.1899 -0.5321
19011TIP3    H278525   4.244   1.282   4.795 -0.1923 -0.6903 -0.0408
19012TIP3   OH278526   3.435   0.858  13.762 -0.0632 -0.0555 -0.2534
19012TIP3    H178527   3.416   0.793  13.695  2.1694 -0.2806 -0.7243
19012TIP3    H278528   3.371   0.842  13.831 -0.4974 -1.7613 -1.0410
19013TIP3   OH278529   1.942   2.171  14.542 -0.4659  0.0220  0.2444
19013TIP3    H178530   1.934   2.132  14.455 -0.5050  0.4884  0.0416
19013TIP3    H278531   1.853   2.169  14.577 -0.2611 -1.2709  0.7579
19014TIP3   OH278532   0.101   2.128  16.450 -0.0032  0.4251 -0.3513
19014TIP3    H178533   0.112   2.170  16.365 -0.9791  0.7645 -0.3173
19014TIP3    H278534   0.038   2.183  16.496  0.2317  0.0314  0.4522
19015TIP3   OH278535   6.040   4.395   5.387  0.2055  0.4194  0.0966
19015TIP3    H178536   6.079   4.337   5.321 -1.5623 -1.1589  0.3830
19015TIP3    H278537   6.009   4.470   5.337 -1.1927 -0.8038 -0.9183
19016TIP3   OH278538   2.399   3.713  15.430 -0.5083  0.1591 -0.0760
19016TIP3    H178539   2.372   3.783  15.490  0.2058 -0.3575  0.8616
19016TIP3    H278540   2.438   3.759  15.356  0.3195  0.7465  0.7184
19017TIP3   OH278541   4.116   4.720  15.161 -0.4378  0.1065  0.1348
19017TIP3    H178542   4.067   4.638  15.170 -0.4859  0.2746  1.4835
19017TIP3    H278543   4.165   4.728  15.243 -0.7706  1.6451  0.1938
19018TIP3   OH278544   5.799   5.511  13.535 -0.2667  0.2715  0.2136
19018TIP3    H178545   5.763   5.554  13.458 -2.2165 -0.7493  0.5457
19018TIP3    H278546   5.754   5.551  13.609 -1.3384 -1.5507  0.5884
19019TIP3   OH278547   6.346   4.592  11.051  0.1473  0.6493  0.2677
19019TIP3    H178548   6.256   4.590  11.019  0.2810  1.1028 -0.1346
19019TIP3    H278549   6.338   4.595  11.146 -0.2576  0.2520  0.2455
19020TIP3   OH278550   1.335   3.925   5.976  0.0873 -0.4082  0.0858
19020TIP3    H178551   1.250   3.934   5.933 -1.1336  0.3593  2.5749
19020TIP3    H278552   1.375   4.012   5.969  0.0202 -0.3634  0.2763
19021TIP3   OH278553   4.198   4.150  11.242 -0.5017  0.0985 -0.0198
19021TIP3    H178554   4.140   4.220  11.213 -1.0054  0.3920  1.7028
19021TIP3    H278555   4.281   4.194  11.261 -0.6841  0.1624  0.6310
19022TIP3   OH278556   0.152   6.212  13.210  0.6268  0.2413  0.3077
19022TIP3    H178557   0.132   6.269  13.284  0.5910 -0.6550  0.9981
19022TIP3    H278558   0.201   6.139  13.249  0.4955 -0.3022 -0.5343
19023TIP3   OH278559   2.036   4.725   1.468 -0.1160 -0.0356  0.0116
19023TIP3    H178560   2.114   4.737   1.413 -0.7316  0.1537 -0.8468
19023TIP3    H278561   2.009   4.635   1.451  0.3840 -0.3560  0.9328
19024TIP3   OH278562   5.367   0.240  12.016 -0.4389  0.5696 -0.3165
19024TIP3    H178563   5.279   0.223  12.049 -0.5915  1.2270 -0.3894
19024TIP3    H278564   5.410   0.291  12.085  0.0087 -0.0697 -0.1163
19025TIP3   OH278565   5.161   1.756  15.418  0.0618  0.0938  0.1025
19025TIP3    H178566   5.165   1.694  15.345  0.3069  0.0645  0.1391
19025TIP3    H278567   5.113   1.709  15.486 -0.3115  0.1829 -0.1001
19026TIP3   OH278568   0.054   2.409  16.952  0.9847 -0.3136 -0.4583
19026TIP3    H178569  -0.002   2.434  17.025  0.8105  0.9264 -0.9928
19026TIP3    H278570   0.131   2.369  16.992  0.7564  0.0850  0.3786
19027TIP3   OH278571   0.898   4.140   5.054 -0.1093  0.0356 -0.0850
19027TIP3    H178572   0.840   4.214   5.035 -0.5579 -0.3714 -0.3029
19027TIP3    H278573   0.987   4.177   5.048 -0.2055 -0.1228 -3.1530
19028TIP3   OH278574   3.192   1.524   1.253  0.2831 -0.2359  0.5072
19028TIP3    H178575   3.260   1.532   1.187  0.2298 -1.5916  0.2916
19028TIP3    H278576   3.232   1.559   1.333  0.4716  1.0378 -0.1283
19029TIP3   OH278577   1.688   5.029  15.148 -0.2356 -0.0630 -0.1622
19029TIP3    H178578   1.601   4.990  15.150 -0.7715  1.0547 -0.8260
19029TIP3    H278579   1.687   5.093  15.220 -0.5941  1.2141 -1.2787
19030TIP3   OH278580   5.297   3.504  14.264  0.6623  0.1058 -0.5735
19030TIP3    H178581   5.301   3.589  14.219  2.4954  0.1520 -0.3931
19030TIP3    H278582   5.353   3.447  14.212  0.1537 -0.7502 -0.1901
19031TIP3   OH278583   5.383   4.963   2.017 -0.2050  0.0142  0.1030
19031TIP3    H178584   5.317   4.969   1.949 -1.3042  2.3412  1.2874
19031TIP3    H278585   5.405   5.055   2.037  1.3549 -0.6538  1.6381
19032TIP3   OH278586   3.749   2.561  10.544  0.4896  0.2289 -0.2316
19032TIP3    H178587   3.816   2.629  10.550 -1.7081  2.7698 -3.0393
19032TIP3    H278588   3.761   2.523  10.458  0.6499 -1.8886  0.6934
19033TIP3   OH278589   1.490   3.592  11.882  0.3517 -0.3546  0.5922
19033TIP3    H178590   1.574   3.633  11.902 -0.5140  1.5807  0.3669
19033TIP3    H278591   1.497   3.505  11.921  1.6129  0.5840  2.6076
19034TIP3   OH278592   0.715   5.408   6.324 -0.1287  0.3489  0.0399
19034TIP3    H178593   0.759   5.491   6.343  1.1846 -0.2338 -0.3694
19034TIP3    H278594   0.755   5.346   6.385 -2.0242  0.2646  1.2446
19035TIP3   OH278595   2.757   2.996   1.958 -0.4117 -0.2380 -0.3217
19035TIP3    H178596   2.702   2.951   2.021  1.0439 -2.9646 -0.9534
19035TIP3    H278597   2.795   3.069   2.007 -1.0223 -1.0356  1.3539
19036TIP3   OH278598   5.815   2.955   0.093 -0.3488  0.0461 -0.0923
19036TIP3    H178599   5.769   2.917   0.168  0.1939 -2.3846 -0.9492
19036TIP3    H278600   5.747   2.965   0.026 -0.4047  0.1829 -0.0153
19037TIP3   OH278601   2.090   6.245  14.402 -0.1205 -0.3218  0.0030
19037TIP3    H178602   2.043   6.254  14.484 -0.0724  0.7338 -0.0736
19037TIP3    H278603   2.179   6.221  14.428 -0.2511 -0.5593  0.2299
19038TIP3   OH278604   5.168   1.432   3.111 -0.1018 -0.1615  0.2782
19038TIP3    H178605   5.097   1.421   3.174  0.2325  0.4266  0.7654
19038TIP3    H278606   5.131   1.489   3.043 -0.2278 -0.1862  0.3260
19039TIP3   OH278607   3.652   2.357  13.195  0.1331 -0.1372  0.4911
19039TIP3    H178608   3.693   2.444  13.198 -1.0132  0.4779 -0.6769
19039TIP3    H278609   3.622   2.349  13.104 -0.6149 -1.3542  0.8397
19040TIP3   OH278610   1.478   6.475   1.159  0.2536 -0.3114 -1.1213
19040TIP3    H178611   1.573   6.482   1.149  0.3375  0.7509  0.2551
19040TIP3    H278612   1.442   6.534   1.094  0.5868  0.5378 -0.5436
19041TIP3   OH278613   2.329   3.784  12.717 -0.8007  0.4208  0.2068
19041TIP3    H178614   2.351   3.864  12.668  2.6750  0.2979  1.3881
19041TIP3    H278615   2.280   3.815  12.793 -1.0729  1.2498 -0.3035
19042TIP3   OH278616   6.553   2.137  12.890  0.3789 -0.3379  0.2401
19042TIP3    H178617   6.529   2.182  12.971 -1.9477 -2.0661  0.5763
19042TIP3    H278618   6.564   2.045  12.916  0.4643 -0.7602 -1.2560
19043TIP3   OH278619   1.541   5.389  13.320 -0.2210  0.0826  0.0216
19043TIP3    H178620   1.536   5.349  13.233 -0.0302 -0.1693  0.1287
19043TIP3    H278621   1.575   5.477  13.303 -2.1962  0.7926 -0.3947
19044TIP3   OH278622   0.468   6.638   4.427 -0.2190  0.2164 -0.3656
19044TIP3    H178623   0.396   6.701   4.425  0.2125  0.8642  2.3777
19044TIP3    H278624   0.525   6.664   4.354 -1.4713  1.2691 -0.9836
19045TIP3   OH278625   6.728   1.658  13.113 -0.2209 -0.7414  0.1412
19045TIP3    H178626   6.772   1.651  13.028  2.1546  2.2278  1.0366
19045TIP3    H278627   6.794   1.696  13.171 -2.5221 -0.6273  2.7737
19046TIP3   OH278628   5.556   5.584   2.148 -0.1025  0.1302 -0.5393
19046TIP3    H178629   5.537   5.556   2.059 -1.9989  1.3817 -0.5499
19046TIP3    H278630   5.493   5.654   2.166  0.4986  0.1641  1.6383
19047TIP3   OH278631   2.162   3.300  14.317 -0.1972  0.0684 -0.5677
19047TIP3    H178632   2.253   3.279  14.336 -0.7112 -2.2905 -0.5516
19047TIP3    H278633   2.166   3.356  14.239  1.3323  1.4630  0.4814
19048TIP3   OH278634   2.848   5.364  14.577 -0.0469 -0.1805 -0.2737
19048TIP3    H178635   2.862   5.354  14.671  0.7202  0.5617 -0.3008
19048TIP3    H278636   2.891   5.288  14.538 -2.4238 -1.7804  0.1121
19049TIP3   OH278637   4.008   4.641  12.449  0.1477 -0.4891  0.2324
19049TIP3    H178638   3.945   4.655  12.520  0.3842 -0.9981  0.5471
19049TIP3    H278639   4.035   4.729  12.424 -0.3610 -0.2846  0.3891
19050TIP3   OH278640   1.866   1.692  11.954  0.2001  0.3229 -0.6478
19050TIP3    H178641   1.896   1.615  12.003  0.0556  1.1435  0.7598
19050TIP3    H278642   1.777   1.707  11.986 -0.1907  0.4040 -1.7518
19051TIP3   OH278643   0.767   1.184   3.935 -0.1344 -0.3155 -0.0526
19051TIP3    H178644   0.752   1.270   3.895 -0.7441 -0.6122 -0.4758
19051TIP3    H278645   0.777   1.202   4.028 -1.1552  0.1147 -0.0244
19052TIP3   OH278646   1.095   1.587  13.552  0.3587  0.4595 -0.1130
19052TIP3    H178647   1.077   1.632  13.470 -0.2671  0.2007 -0.1218
19052TIP3    H278648   1.140   1.652  13.606 -1.3565  1.3990  0.2118
19053TIP3   OH278649   3.411   3.672  14.211 -0.0907  0.7303 -0.0728
19053TIP3    H178650   3.369   3.716  14.286  0.9584  1.1006  0.3083
19053TIP3    H278651   3.338   3.631  14.163 -0.7189 -0.1136  1.5425
19054TIP3   OH278652   5.051   2.063   3.257  0.7348  0.0986  0.4984
19054TIP3    H178653   5.103   2.016   3.191 -0.3249 -0.4840  0.0664
19054TIP3    H278654   4.966   2.076   3.215  0.7862  1.7613  0.9091
19055TIP3   OH278655   3.042   0.813   6.280  0.2960 -0.2338  0.8397
19055TIP3    H178656   2.992   0.823   6.361 -0.2939 -1.4958  0.6426
19055TIP3    H278657   3.064   0.720   6.276  0.1603 -0.2293 -0.5339
19056TIP3   OH278658   1.330   1.032   5.667  0.3154  0.6509 -0.2108
19056TIP3    H178659   1.314   0.995   5.580  0.7037  1.0515 -0.4564
19056TIP3    H278660   1.365   0.960   5.718 -1.8303 -0.1246  0.2044
19057TIP3   OH278661   5.396   5.793  16.991  1.1420  0.6181  0.3630
19057TIP3    H178662   5.344   5.824  16.917  1.4123 -0.1868 -0.1704
19057TIP3    H278663   5.483   5.829  16.977  1.5025 -0.5284 -0.3515
19058TIP3   OH278664   6.391   2.191  11.816  0.5098  0.0181  0.1263
19058TIP3    H178665   6.433   2.199  11.902  0.1577  0.1062  0.2916
19058TIP3    H278666   6.298   2.197  11.835  0.3638 -1.3337 -0.0991
19059TIP3   OH278667   1.160   1.338   2.213 -0.1570  0.4341  0.1427
19059TIP3    H178668   1.092   1.403   2.196 -0.6100 -0.0906 -0.0867
19059TIP3    H278669   1.142   1.268   2.150 -1.6110 -1.3629  2.5002
19060TIP3   OH278670   0.473   4.738   5.073  0.2283 -0.2902 -0.6954
19060TIP3    H178671   0.439   4.655   5.106 -0.6962  0.2557 -0.2559
19060TIP3    H278672   0.460   4.733   4.978  0.4052 -0.7518 -0.6973
19061TIP3   OH278673   3.594   1.318   1.040  0.4973  0.3996 -0.1867
19061TIP3    H178674   3.678   1.282   1.070  1.3101  1.8739 -0.5926
19061TIP3    H278675   3.537   1.242   1.031  1.6500 -0.5849  0.5571
19062TIP3   OH278676   3.165   2.682  12.628  0.1992  0.1969  0.8182
19062TIP3    H178677   3.247   2.662  12.584  0.1059 -1.7980  1.5365
19062TIP3    H278678   3.138   2.767  12.590  0.8515 -0.7516 -1.9158
19063TIP3   OH278679   2.971   0.918  16.166  0.1992 -0.1195  0.3307
19063TIP3    H178680   2.953   0.834  16.122  0.7143 -0.6335  1.0823
19063TIP3    H278681   2.993   0.893  16.256  1.1623  0.7605  0.3449
19064TIP3   OH278682   5.393   3.394   4.629  0.5804 -0.4286  0.3178
19064TIP3    H178683   5.344   3.474   4.609  2.2004  0.3507 -0.5984
19064TIP3    H278684   5.404   3.396   4.724  2.0817  1.3092  0.1153
19065TIP3   OH278685   5.462   4.425   0.104 -0.7253  0.5549  0.1442
19065TIP3    H178686   5.382   4.432   0.156 -1.1685  1.3776 -0.6542
19065TIP3    H278687   5.510   4.353   0.145 -2.5793 -0.9807 -0.3200
19066TIP3   OH278688   6.034   4.850  13.861 -0.3858 -0.7541  0.0042
19066TIP3    H178689   5.975   4.774  13.856  1.3163 -2.0131 -2.1415
19066TIP3    H278690   6.117   4.813  13.892  0.7310  0.0198 -1.9573
19067TIP3   OH278691   4.585   4.118  15.422 -1.0815  0.3617 -0.3744
19067TIP3    H178692   4.587   4.082  15.511 -0.6780 -2.2806 -1.3907
19067TIP3    H278693   4.677   4.135  15.401 -1.0578 -0.2313 -0.7507
19068TIP3   OH278694   3.810   5.030   0.193 -0.1498 -0.4383  0.3667
19068TIP3    H178695   3.795   4.997   0.104  1.2459  0.4118 -0.2048
19068TIP3    H278696   3.806   4.953   0.249 -0.3408 -1.0801 -0.5195
19069TIP3   OH278697   4.011   5.960  12.061 -0.1607  0.1939 -0.3465
19069TIP3    H178698   3.916   5.959  12.072 -0.1373  0.8894 -0.0307
19069TIP3    H278699   4.025   5.939  11.968 -0.5881 -0.5112 -0.2567
19070TIP3   OH278700   2.388   6.233  13.736  0.6626 -0.1294 -0.2477
19070TIP3    H178701   2.451   6.281  13.790  0.2166  0.4886 -0.2758
19070TIP3    H278702   2.358   6.297  13.671  2.5159 -1.3247 -2.3715
19071TIP3   OH278703   3.702   0.261  11.388  0.0067  0.8914 -1.1345
19071TIP3    H178704   3.608   0.256  11.370 -0.1501  2.1567 -0.6830
19071TIP3    H278705   3.719   0.353  11.407  1.0476  0.4104  0.4251
19072TIP3   OH278706   3.386   3.291   6.170  0.1653 -0.7185  0.5227
19072TIP3    H178707   3.297   3.300   6.136  0.8001 -0.6551 -1.2044
19072TIP3    H278708   3.375   3.260   6.260 -1.5890 -0.7493  0.3159
19073TIP3   OH278709   2.899   2.463   6.171  0.6618 -0.2530  0.1407
19073TIP3    H178710   2.826   2.481   6.112  0.6756  1.3591  0.5816
19073TIP3    H278711   2.859   2.457   6.258  1.0483  0.6697  0.3864
19074TIP3   OH278712   4.951   3.420  14.847 -0.1940  0.3201 -0.2426
19074TIP3    H178713   4.939   3.327  14.827  1.1025  0.3693 -1.2861
19074TIP3    H278714   5.020   3.421  14.914  0.0169  0.5594 -0.4661
19075TIP3   OH278715   6.157   3.732   4.118 -0.4703 -0.5360  0.2654
19075TIP3    H178716   6.123   3.793   4.052  1.2870 -1.0598 -1.1923
19075TIP3    H278717   6.205   3.788   4.180 -1.0764 -0.1634  0.3944
19076TIP3   OH278718   4.182   3.522  11.663 -0.0001  0.0545 -0.2486
19076TIP3    H178719   4.117   3.487  11.602  0.2726 -0.5884 -0.1778
19076TIP3    H278720   4.233   3.584  11.612  0.6165 -0.9256 -0.8424
19077TIP3   OH278721   2.675   6.638  11.868  0.0047  0.5494 -0.2992
19077TIP3    H178722   2.675   6.725  11.829  0.0937 -0.4665 -2.6389
19077TIP3    H278723   2.583   6.615  11.878 -0.0269  1.1863  1.0182
19078TIP3   OH278724   5.274   3.657  15.521 -0.0624  0.1436 -0.4085
19078TIP3    H178725   5.287   3.644  15.615  1.6349  0.9675 -0.5247
19078TIP3    H278726   5.314   3.581  15.480 -1.1492 -0.4135 -0.4673
19079TIP3   OH278727   5.708   5.057   1.753  0.0717 -0.5793  0.5975
19079TIP3    H178728   5.690   5.023   1.665  1.0628 -0.5631  0.3828
19079TIP3    H278729   5.646   5.010   1.810 -1.1176 -0.0051 -0.2120
19080TIP3   OH278730   2.067   4.427  12.146 -0.5623 -0.3780 -0.2092
19080TIP3    H178731   2.006   4.488  12.188 -0.7740  0.0524 -1.1295
19080TIP3    H278732   2.141   4.422  12.207 -2.1909 -2.1640  1.6955
19081TIP3   OH278733   3.298   0.295   2.465 -0.5301  0.0469  0.3223
19081TIP3    H178734   3.380   0.328   2.430 -2.5745  4.2895 -0.9157
19081TIP3    H278735   3.266   0.366   2.522 -3.6488 -1.1460  0.1912
19082TIP3   OH278736   2.130   3.003  12.127  0.4339  0.3772  0.5923
19082TIP3    H178737   2.078   3.081  12.110  1.3840  0.9457  0.2352
19082TIP3    H278738   2.110   2.943  12.055  0.8771  0.9082  0.0244
19083TIP3   OH278739   1.304   3.907  16.436  0.4561 -0.2929 -0.3408
19083TIP3    H178740   1.376   3.844  16.432  0.7939  0.0893 -0.3210
19083TIP3    H278741   1.225   3.854  16.423  0.9063 -0.3662 -3.2411
19084TIP3   OH278742   3.463   6.528  16.416  0.0241 -0.2311  0.0799
19084TIP3    H178743   3.429   6.617  16.424  0.8367  0.0922 -0.0321
19084TIP3    H278744   3.390   6.472  16.443  0.0554  0.5359  1.8288
19085TIP3   OH278745   2.543   6.169  12.770  0.6123 -0.2091 -0.1299
19085TIP3    H178746   2.566   6.206  12.855  2.7257 -0.0744 -0.7507
19085TIP3    H278747   2.476   6.103  12.790 -0.7429  1.5621  1.3444
19086TIP3   OH278748   1.644   2.459   4.902  0.3830 -0.0730  0.2634
19086TIP3    H178749   1.639   2.537   4.957 -1.6226  1.6176 -2.2071
19086TIP3    H278750   1.555   2.448   4.869  1.1131 -2.2463 -1.0317
19087TIP3   OH278751   4.366   4.954  15.717 -0.2151 -0.6900 -0.0795
19087TIP3    H178752   4.336   4.958  15.626 -0.2640 -1.0532 -0.0801
19087TIP3    H278753   4.391   4.863  15.730  0.1698 -0.5535  0.1545
19088TIP3   OH278754   3.791   6.378   5.320  0.1802  0.2412 -0.1531
19088TIP3    H178755   3.841   6.362   5.240 -0.5178 -0.4732 -0.4492
19088TIP3    H278756   3.812   6.304   5.377  1.2789  1.1342  0.6463
19089TIP3   OH278757   2.462   5.689   5.113 -0.1294 -0.3385  0.3403
19089TIP3    H178758   2.443   5.691   5.020 -1.7535 -0.7997  0.6527
19089TIP3    H278759   2.422   5.769   5.147  1.9321  0.7179  0.3932
19090TIP3   OH278760   0.203   2.855   0.793 -0.3551  0.2869 -0.4333
19090TIP3    H178761   0.172   2.879   0.880 -1.1895 -2.7861  0.1968
19090TIP3    H278762   0.150   2.908   0.733  0.5481  2.7643  0.9019
19091TIP3   OH278763   1.231   5.855   3.883  0.3214  0.7548 -0.2770
19091TIP3    H178764   1.198   5.771   3.849 -0.4130  1.8444 -2.3510
19091TIP3    H278765   1.322   5.859   3.851  0.5128  0.5429  0.2326
19092TIP3   OH278766   0.449   5.295  13.389  0.3612  0.8868  0.4705
19092TIP3    H178767   0.510   5.268  13.320  0.4421 -1.6220  1.4681
19092TIP3    H278768   0.502   5.294  13.469 -0.3302  1.3669  0.9393
19093TIP3   OH278769   1.423   1.078  11.169  0.4753  0.4919  0.4345
19093TIP3    H178770   1.478   1.113  11.239  0.7967 -0.2485  0.5542
19093TIP3    H278771   1.365   1.151  11.145 -0.7827  0.2540  2.6361
19094TIP3   OH278772   1.505   6.734  13.713  0.7910 -0.0637  0.0317
19094TIP3    H178773   1.430   6.677  13.699  2.6869 -3.2267  2.2260
19094TIP3    H278774   1.467   6.820  13.735 -2.1030 -0.6809 -2.3438
19095TIP3   OH278775   3.322   4.965   4.208 -0.0103 -0.2730  0.2996
19095TIP3    H178776   3.342   4.969   4.115  1.5755 -1.5542  0.5744
19095TIP3    H278777   3.307   4.872   4.226  3.2127 -0.5412  1.9978
19096TIP3   OH278778   5.202   5.790  14.830 -0.3237  0.0250 -0.1603
19096TIP3    H178779   5.278   5.734  14.848  0.6538  1.3204 -0.1730
19096TIP3    H278780   5.150   5.785  14.910  0.8968  0.8705  0.7050
19097TIP3   OH278781   5.255   3.054  13.722  0.6181 -0.2211 -0.1389
19097TIP3    H178782   5.207   3.033  13.802  1.0666 -2.1522 -0.3465
19097TIP3    H278783   5.191   3.098  13.667 -0.3917 -1.0630  0.3358
19098TIP3   OH278784   4.956   2.674  16.060 -0.0383 -0.1832 -0.5450
19098TIP3    H178785   4.933   2.749  16.005 -0.8718 -0.9668 -1.2648
19098TIP3    H278786   4.997   2.713  16.137 -1.2040  1.0619 -0.5462
19099TIP3   OH278787   2.104   3.353  13.731 -0.3718 -0.1981 -0.1464
19099TIP3    H178788   2.069   3.269  13.760  1.4330 -0.8551  0.2012
19099TIP3    H278789   2.197   3.349  13.752 -0.5156  2.5105  1.3734
19100TIP3   OH278790   5.727   6.758   2.543 -0.0435 -0.3971  0.0574
19100TIP3    H178791   5.755   6.794   2.628  2.0166 -1.5991 -0.0733
19100TIP3    H278792   5.688   6.673   2.565  1.9018 -1.4155 -0.3066
19101TIP3   OH278793   5.459   4.527  15.342  0.1849 -0.3921 -0.3838
19101TIP3    H178794   5.492   4.452  15.392  0.3427 -0.0588  0.0116
19101TIP3    H278795   5.535   4.559  15.293  0.0338 -0.7096 -0.8349
19102TIP3   OH278796   0.519   1.788  12.709  0.3094 -0.5380  0.1947
19102TIP3    H178797   0.589   1.840  12.669  0.3835 -1.4005 -0.8298
19102TIP3    H278798   0.452   1.853  12.732 -0.1169 -0.0697 -2.1561
19103TIP3   OH278799   6.352   6.190  16.433 -0.1267  0.3841  0.0478
19103TIP3    H178800   6.345   6.115  16.492  1.1002  0.5844  0.4657
19103TIP3    H278801   6.444   6.192  16.409  0.2557  2.9024  1.5529
19104TIP3   OH278802   5.796   4.051  13.224 -0.4952  0.4292  0.1571
19104TIP3    H178803   5.836   4.047  13.137  0.8054  0.4315  0.7478
19104TIP3    H278804   5.777   4.144  13.238 -1.8405  0.2945 -0.6081
19105TIP3   OH278805   4.409   1.690  11.425  0.4368  0.3498 -0.6462
19105TIP3    H178806   4.469   1.617  11.407 -0.5730 -1.5080  2.9523
19105TIP3    H278807   4.465   1.759  11.460  0.8954 -0.3476  0.0351
19106TIP3   OH278808   5.228   3.627   4.557  0.0896  0.0301 -0.0911
19106TIP3    H178809   5.237   3.686   4.482  0.1792  1.5464  1.0788
19106TIP3    H278810   5.134   3.607   4.561  0.4579 -2.2646 -2.2290
19107TIP3   OH278811   5.462   3.423   4.134 -0.2377 -0.0181 -0.1686
19107TIP3    H178812   5.529   3.432   4.067 -0.3836  0.3026 -0.2688
19107TIP3    H278813   5.477   3.496   4.194 -0.8665  0.3898 -0.5104
19108TIP3   OH278814   6.657   1.437  16.894  0.4112  0.7511  0.1693
19108TIP3    H178815   6.668   1.404  16.805 -0.0501  0.6979  0.1303
19108TIP3    H278816   6.572   1.480  16.893  0.0225  0.0217  0.8031
19109TIP3   OH278817   3.022   6.463  16.255 -0.6222 -0.7438 -0.6669
19109TIP3    H178818   2.990   6.541  16.211  1.9818  0.5646 -0.3582
19109TIP3    H278819   2.995   6.473  16.346  0.4331  0.2425 -0.4513
19110TIP3   OH278820   1.646   0.869  11.622 -0.1619 -0.2427 -0.3227
19110TIP3    H178821   1.718   0.844  11.680  0.6590 -0.6794 -1.5068
19110TIP3    H278822   1.629   0.961  11.643  1.2979  0.0965 -0.5993
19111TIP3   OH278823   6.289   2.881  15.842 -0.3395 -0.1381 -0.5925
19111TIP3    H178824   6.256   2.944  15.906 -0.7185 -0.7257 -0.2076
19111TIP3    H278825   6.383   2.900  15.835 -0.5421  0.8088 -0.8693
19112TIP3   OH278826   2.952   6.658   1.432 -0.1689  0.5308 -0.1484
19112TIP3    H178827   2.984   6.568   1.422  0.4858  0.8180 -0.7219
19112TIP3    H278828   3.019   6.701   1.485 -0.3928  0.7278 -0.0280
19113TIP3   OH278829   0.915   3.610  10.667 -0.2082 -0.1406 -0.0733
19113TIP3    H178830   0.854   3.536  10.669  0.7279 -0.9171  0.2282
19113TIP3    H278831   0.907   3.645  10.578  0.0160 -1.1866 -0.5163
19114TIP3   OH278832   5.518   1.031  15.388  0.0177 -0.8187 -0.2912
19114TIP3    H178833   5.498   1.073  15.472  0.5413 -0.5182 -0.3163
19114TIP3    H278834   5.458   1.073  15.326 -2.8814 -3.5113  0.5591
19115TIP3   OH278835   5.903   4.627   3.113 -0.6767 -0.3324 -0.4202
19115TIP3    H178836   5.816   4.612   3.075 -1.0828  1.5905 -0.2747
19115TIP3    H278837   5.902   4.718   3.140  0.1262 -1.2476  2.9257
19116TIP3   OH278838   4.762   4.427  11.776  0.7711 -0.4073 -0.5237
19116TIP3    H178839   4.704   4.381  11.837  1.3291  0.4431  0.6905
19116TIP3    H278840   4.850   4.412  11.812  1.0914  0.2769 -1.0128
19117TIP3   OH278841   1.797   0.538   3.518  0.4498  0.3459  0.1596
19117TIP3    H178842   1.785   0.449   3.486  0.6616 -0.4340  2.1807
19117TIP3    H278843   1.885   0.563   3.488  0.0979  0.1554 -1.0415
19118TIP3   OH278844   6.569   5.299  14.647  0.3002 -0.2010 -0.6912
19118TIP3    H178845   6.643   5.257  14.604  0.7234  0.8307 -0.9817
19118TIP3    H278846   6.579   5.277  14.739  1.1334  0.1879 -0.6862
19119TIP3   OH278847   3.565   6.175   0.208  0.0551 -0.1444  0.0320
19119TIP3    H178848   3.621   6.243   0.171  0.4521 -1.0085 -0.9863
19119TIP3    H278849   3.477   6.214   0.209 -0.1634 -0.4435 -2.8479
19120TIP3   OH278850   2.794   1.674  12.254  0.2122  0.9146  0.5046
19120TIP3    H178851   2.846   1.623  12.316 -1.0232  0.8964  1.5669
19120TIP3    H278852   2.703   1.656  12.280 -0.3134  1.2464 -1.0569
19121TIP3   OH278853   0.987   6.629  13.850  0.0125  0.2646  0.3861
19121TIP3    H178854   1.040   6.550  13.852 -0.7216 -0.2723 -0.9106
19121TIP3    H278855   0.927   6.621  13.925 -0.8508 -0.9648 -0.4281
19122TIP3   OH278856   5.235   5.894   4.445 -0.3685  0.3875 -0.2715
19122TIP3    H178857   5.327   5.917   4.461 -0.6882  0.5598  1.4243
19122TIP3    H278858   5.220   5.919   4.354  1.0979  0.9097 -0.3923
19123TIP3   OH278859   3.668   5.655   5.392 -0.0143  0.0145  0.2725
19123TIP3    H178860   3.615   5.576   5.380  1.6465 -0.8316 -1.9413
19123TIP3    H278861   3.625   5.721   5.338 -0.2103  0.0424  0.4604
19124TIP3   OH278862   3.650   1.675  13.706  0.4656 -0.6295 -0.4440
19124TIP3    H178863   3.722   1.628  13.665 -1.4048 -1.7676 -2.5264
19124TIP3    H278864   3.574   1.658  13.649 -0.5905  3.7677 -0.5906
19125TIP3   OH278865   1.361   1.320   0.093 -0.0793 -0.3910 -0.2678
19125TIP3    H178866   1.305   1.256   0.048 -0.3691  1.3396 -2.5016
19125TIP3    H278867   1.450   1.290   0.076 -0.2592 -1.0698  0.0093
19126TIP3   OH278868   5.882   3.284   4.141  0.3993 -0.4449 -0.6211
19126TIP3    H178869   5.880   3.249   4.052 -1.2400  0.8074 -1.0985
19126TIP3    H278870   5.949   3.352   4.139  0.7480 -0.7871 -0.7340
19127TIP3   OH278871   4.174   2.953  15.961  1.1316 -0.1257  0.4105
19127TIP3    H178872   4.212   3.033  15.997  0.3515  0.1724  0.5973
19127TIP3    H278873   4.229   2.883  15.994  0.9399  0.2207  1.4607
19128TIP3   OH278874   3.119   2.386  13.355 -0.4665  0.4400  0.0177
19128TIP3    H178875   3.177   2.439  13.409 -1.0782  1.1684 -0.0248
19128TIP3    H278876   3.172   2.361  13.280  0.3121 -0.3610  0.8275
19129TIP3   OH278877   0.523   4.545  16.879  0.3084 -0.4316  1.0183
19129TIP3    H178878   0.448   4.586  16.837  0.1675 -0.4187  1.2789
19129TIP3    H278879   0.599   4.581  16.832  0.1406 -0.6720  0.5562
19130TIP3   OH278880   2.534   5.300  14.588 -0.4358  0.0954  0.2156
19130TIP3    H178881   2.582   5.319  14.508 -0.4238 -0.2792  0.1306
19130TIP3    H278882   2.558   5.370  14.648 -1.0646  0.8136 -0.3726
19131TIP3   OH278883   4.171   5.785  10.728  0.5188 -0.6788 -0.5900
19131TIP3    H178884   4.159   5.819  10.640 -0.5345 -0.3988 -0.3523
19131TIP3    H278885   4.262   5.803  10.750 -0.2012  2.7143 -0.1578
19132TIP3   OH278886   6.577   1.243  15.075  0.0737 -0.6565 -0.1418
19132TIP3    H178887   6.537   1.273  15.157 -1.6691 -2.0859 -0.4328
19132TIP3    H278888   6.581   1.148  15.084  3.7844 -0.5647  0.0004
19133TIP3   OH278889   5.997   5.859  16.611 -0.8220 -0.0625 -0.3108
19133TIP3    H178890   5.907   5.866  16.644 -0.8588 -0.1691 -0.3881
19133TIP3    H278891   6.041   5.802  16.674 -0.9440 -0.4249 -0.5506
19134TIP3   OH278892   4.083   1.989  16.373  0.0550  0.1123 -0.9992
19134TIP3    H178893   4.005   1.969  16.323 -0.6398 -0.1326  0.1578
19134TIP3    H278894   4.059   2.066  16.425  0.0361 -0.9133  0.5478
19135TIP3   OH278895   1.598   2.384   0.688  0.2590 -0.3540 -0.0062
19135TIP3    H178896   1.509   2.409   0.712  0.2995 -0.5834  0.3897
19135TIP3    H278897   1.630   2.335   0.763  1.0301  0.4918  0.2255
19136TIP3   OH278898   5.580   0.107  15.506  0.0385 -0.3671 -0.2895
19136TIP3    H178899   5.669   0.122  15.538 -0.2771  0.1727  0.3303
19136TIP3    H278900   5.567   0.176  15.440  0.1442 -0.5606 -0.5137
19137TIP3   OH278901   0.879   4.097  12.831  0.0512 -0.2754 -0.1595
19137TIP3    H178902   0.869   4.153  12.908  1.0253  0.5605 -0.6224
19137TIP3    H278903   0.974   4.087  12.821 -0.0229  0.4637 -1.8241
19138TIP3   OH278904   2.978   2.413   2.676 -0.3691 -0.1191 -0.1208
19138TIP3    H178905   2.920   2.487   2.658 -0.7627 -0.4663 -0.2630
19138TIP3    H278906   3.038   2.411   2.602  0.0200  0.4285  0.1747
19139TIP3   OH278907   1.946   1.557  12.851 -0.3147  0.2699 -0.5673
19139TIP3    H178908   1.877   1.605  12.898  0.3340 -1.6823  2.5426
19139TIP3    H278909   2.028   1.593  12.884  0.2122  1.4209 -3.0124
19140TIP3   OH278910   3.439   6.417  15.255 -0.0253  0.6498 -0.3807
19140TIP3    H178911   3.346   6.418  15.277 -0.6791  0.7193 -2.9688
19140TIP3    H278912   3.447   6.351  15.186  2.0228 -0.0064  0.4198
19141TIP3   OH278913   4.146   3.026   0.005  0.2303  0.2301 -0.5134
19141TIP3    H178914   4.066   2.974   0.004  0.5289 -0.2219 -1.3187
19141TIP3    H278915   4.213   2.967  -0.030  0.6774  0.9884 -0.9326
19142TIP3   OH278916   0.661   0.460  14.682 -0.0476  0.3233 -1.1260
19142TIP3    H178917   0.624   0.548  14.676  1.1207  0.9811  0.7482
19142TIP3    H278918   0.755   0.474  14.689  0.0877 -1.0172 -0.0154
19143TIP3   OH278919   4.349   5.113   5.825  0.0058 -0.2923  0.0543
19143TIP3    H178920   4.425   5.172   5.833 -0.6992  0.6700 -0.2585
19143TIP3    H278921   4.386   5.026   5.837  0.6934  0.3517  3.0790
19144TIP3   OH278922   2.243   2.143  14.144  0.4997  0.7147 -1.1961
19144TIP3    H178923   2.254   2.196  14.222  1.3925  0.5318 -1.1999
19144TIP3    H278924   2.182   2.074  14.171  1.7840 -0.0935 -0.2827
19145TIP3   OH278925   3.656   3.963  15.080  0.3809 -0.3989 -0.4278
19145TIP3    H178926   3.708   3.913  15.017  0.2098  1.3402 -2.0091
19145TIP3    H278927   3.612   4.030  15.027  0.5794  1.4143  1.6140
19146TIP3   OH278928   0.519   2.321   1.009  0.1761 -0.3928 -0.3213
19146TIP3    H178929   0.506   2.390   1.074 -0.7260 -0.7486 -0.1062
19146TIP3    H278930   0.482   2.358   0.928 -0.7305 -0.7838 -0.0975
19147TIP3   OH278931   2.995   4.459   0.253 -0.3415  0.3778  0.3477
19147TIP3    H178932   2.967   4.372   0.282 -0.8054  0.9654  1.7365
19147TIP3    H278933   2.991   4.455   0.158 -0.2980 -1.1379  0.3938
19148TIP3   OH278934   3.933   5.416  11.755 -0.4003  0.2562  0.2140
19148TIP3    H178935   3.935   5.386  11.664 -0.6100 -0.6839  0.5231
19148TIP3    H278936   3.868   5.360  11.798  0.5426 -0.0697  1.2235
19149TIP3   OH278937   4.971   1.056   1.465 -0.0553  0.2307  0.4147
19149TIP3    H178938   4.971   1.102   1.549  1.1059  0.5933  0.2226
19149TIP3    H278939   5.050   1.001   1.468 -1.1920 -1.4320  0.4637
19150TIP3   OH278940   2.760   1.086   0.294  0.1019 -0.0964  0.1825
19150TIP3    H178941   2.774   1.143   0.369  0.2544 -1.8024  1.4952
19150TIP3    H278942   2.667   1.097   0.273  0.2946  1.1634 -0.0325
19151TIP3   OH278943   3.742   6.717   3.307  0.1752  0.6101 -0.3361
19151TIP3    H178944   3.805   6.757   3.368  0.2719 -0.8814  0.5715
19151TIP3    H278945   3.796   6.684   3.236  0.4954 -1.0640  0.6573
19152TIP3   OH278946   3.352   5.477   3.534  0.4049 -0.0669 -0.1291
19152TIP3    H178947   3.309   5.481   3.448 -1.7356  1.4644  0.9925
19152TIP3    H278948   3.422   5.543   3.529 -0.9250  1.3614 -0.0514
19153TIP3   OH278949   3.420   6.033  14.293 -0.1825 -0.0434 -0.0607
19153TIP3    H178950   3.403   5.940  14.303 -0.6928  0.2630  1.9985
19153TIP3    H278951   3.344   6.076  14.331  0.7969  1.2344  0.4751
19154TIP3   OH278952   0.728   1.545   6.609  0.4226  0.2356  0.4471
19154TIP3    H178953   0.639   1.535   6.642  0.5355 -2.8289 -0.0236
19154TIP3    H278954   0.781   1.488   6.665  1.2969 -1.6976 -2.2698
19155TIP3   OH278955   0.142   1.856  15.668  0.3413 -0.3310 -0.2008
19155TIP3    H178956   0.069   1.810  15.627 -0.2169  0.1554  0.2405
19155TIP3    H278957   0.141   1.827  15.759  0.7424 -0.3689 -0.2049
19156TIP3   OH278958   3.795   1.451   3.368 -0.0427 -0.8712 -0.5319
19156TIP3    H178959   3.843   1.389   3.314 -0.3498  0.1642 -2.0112
19156TIP3    H278960   3.722   1.400   3.404  1.9303 -2.3857  1.5061
19157TIP3   OH278961   2.919   5.977   2.439  0.1049 -0.6738  0.3010
19157TIP3    H178962   2.831   5.972   2.402  0.8783  1.6727 -1.9944
19157TIP3    H278963   2.962   5.896   2.411 -0.9408 -1.2839  0.4351
19158TIP3   OH278964   2.819   2.637  12.842 -0.1320  0.1288  0.0046
19158TIP3    H178965   2.779   2.723  12.855  1.0885  0.5260  1.2949
19158TIP3    H278966   2.905   2.645  12.883  0.3923 -1.3990 -0.7717
19159TIP3   OH278967   6.434   5.991  11.915 -0.0275  0.0164  0.3719
19159TIP3    H178968   6.503   5.993  11.848  0.6064  2.3529  1.0476
19159TIP3    H278969   6.353   6.001  11.866  0.4608  2.2355 -0.0665
19160TIP3   OH278970   2.098   4.452   4.904  0.3634 -0.6121  0.3375
19160TIP3    H178971   2.142   4.478   4.985  0.9922  1.4324 -0.6301
19160TIP3    H278972   2.097   4.356   4.908  3.4095 -0.6754  1.1754
19161TIP3   OH278973   3.746   2.503  12.136 -0.2107 -0.4924  0.0349
19161TIP3    H178974   3.717   2.416  12.163  0.4555 -0.2819  1.4306
19161TIP3    H278975   3.791   2.488  12.053  0.2386 -1.5319  0.4574
19162TIP3   OH278976   1.458   6.443   1.929  0.3602 -0.2063 -0.5319
19162TIP3    H178977   1.416   6.454   1.844  2.5696 -0.1826 -1.6658
19162TIP3    H278978   1.500   6.527   1.947  0.4239 -0.4036  0.3055
19163TIP3   OH278979   2.842   5.214  15.327  0.3309  0.1736  0.6421
19163TIP3    H178980   2.828   5.120  15.330 -0.8339  0.3561  1.4744
19163TIP3    H278981   2.930   5.225  15.291 -0.2646 -1.1711 -1.2745
19164TIP3   OH278982   2.015   4.427   5.959  0.2881 -0.5937 -0.8405
19164TIP3    H178983   1.933   4.376   5.961 -1.1736  1.7103  0.1203
19164TIP3    H278984   2.047   4.418   5.869 -0.5636 -2.2101 -1.0044
19165TIP3   OH278985   4.806   5.452   2.070  0.3827 -0.1285 -0.4579
19165TIP3    H178986   4.827   5.540   2.038 -0.8280  0.6886  0.9428
19165TIP3    H278987   4.716   5.438   2.042  0.2032 -0.4630  0.2829
19166TIP3   OH278988   4.802   1.978   1.294 -0.1268 -0.0962  0.0356
19166TIP3    H178989   4.778   2.056   1.245  0.6465  0.5169  0.6318
19166TIP3    H278990   4.823   2.009   1.382 -2.5795 -1.3174  1.1088
19167TIP3   OH278991   2.490   0.765   3.326 -0.2943 -0.3006 -0.1388
19167TIP3    H178992   2.442   0.689   3.294 -1.0403  0.0150  0.2224
19167TIP3    H278993   2.485   0.759   3.422  0.8171 -0.5407 -0.0945
19168TIP3   OH278994   1.466   2.568   5.548 -0.4316 -0.2054 -0.0857
19168TIP3    H178995   1.386   2.616   5.526  0.7294  1.8965  0.0945
19168TIP3    H278996   1.534   2.610   5.496  0.6727 -1.5115  0.2866
19169TIP3   OH278997   4.175   1.502   0.792 -0.1325 -0.2697  0.3522
19169TIP3    H178998   4.169   1.547   0.708  2.0791 -4.5828 -2.2973
19169TIP3    H278999   4.088   1.465   0.806 -0.3294 -0.0948 -0.4098
19170TIP3   OH279000   2.091   6.101  12.039  0.4753  0.3087 -0.0454
19170TIP3    H179001   2.153   6.046  12.087  0.8804  1.1236  0.3711
19170TIP3    H279002   2.045   6.040  11.981  0.4372 -0.5810  0.9022
19171TIP3   OH279003   4.697   6.727   1.816 -0.3489 -0.3113  0.0023
19171TIP3    H179004   4.792   6.736   1.818 -0.5680  2.5558 -0.7346
19171TIP3    H279005   4.680   6.639   1.848  2.6307 -1.3799 -1.2546
19172TIP3   OH279006   6.712   2.323  14.508  0.3031 -0.1611 -0.0976
19172TIP3    H179007   6.741   2.307  14.597 -1.9468  2.9351  1.2883
19172TIP3    H279008   6.787   2.301  14.453  1.8198 -1.7685  2.5772
19173TIP3   OH279009   6.782   2.014   2.753 -1.1342  0.0985  0.1970
19173TIP3    H179010   6.803   1.932   2.798 -1.3077 -0.4411 -0.6864
19173TIP3    H279011   6.816   2.082   2.810  1.3955 -0.6808 -0.3123
19174TIP3   OH279012   2.518   1.599  16.108 -0.4094 -0.1954  0.0395
19174TIP3    H179013   2.494   1.679  16.155 -1.2149  0.0864 -0.8446
19174TIP3    H279014   2.596   1.622  16.059 -1.0042  0.2301 -0.7067
19175TIP3   OH279015   3.862   1.560  12.698 -0.0945 -0.1371 -0.6919
19175TIP3    H179016   3.808   1.483  12.679  2.0468 -1.5801 -1.0528
19175TIP3    H279017   3.835   1.625  12.634 -1.8613 -0.6099 -0.4498
19176TIP3   OH279018   5.458   5.695  14.027 -0.0371  0.2441 -0.1073
19176TIP3    H179019   5.529   5.647  13.983  1.2834 -0.6521  2.8382
19176TIP3    H279020   5.400   5.626  14.059 -0.1484  0.7898  0.8612
19177TIP3   OH279021   4.995   2.220   6.503  0.5621  0.0059 -0.3780
19177TIP3    H179022   5.029   2.309   6.513  0.5910 -0.0444 -0.0386
19177TIP3    H279023   5.072   2.166   6.485  0.8764 -0.3745  2.0190
19178TIP3   OH279024   1.884   3.613   0.872  0.1266  0.1809 -0.2246
19178TIP3    H179025   1.812   3.674   0.858  1.4682  1.2390 -2.9049
19178TIP3    H279026   1.842   3.535   0.909 -1.9312  1.8789  1.1283
19179TIP3   OH279027   5.102   2.104   6.181 -0.2188  0.8372  0.0055
19179TIP3    H179028   5.013   2.112   6.214  0.0834 -0.4364  1.1655
19179TIP3    H279029   5.156   2.149   6.246  0.0562  1.1341 -0.4202
19180TIP3   OH279030   0.071   1.707  14.421  0.1271  0.3026  0.3495
19180TIP3    H179031   0.144   1.646  14.432 -0.2200 -0.4810 -1.4051
19180TIP3    H279032   0.031   1.680  14.338 -1.6981  1.2002  0.9223
19181TIP3   OH279033   0.655   0.613   2.228 -0.5437 -0.2838 -0.2082
19181TIP3    H179034   0.600   0.541   2.260  0.2114 -0.3621  0.9187
19181TIP3    H279035   0.629   0.623   2.136 -2.0253 -0.7054  0.1498
19182TIP3   OH279036   2.490   6.776  13.664  0.4505 -0.6620 -0.2706
19182TIP3    H179037   2.421   6.842  13.660  1.8567  0.8547  0.1370
19182TIP3    H279038   2.533   6.781  13.579  0.9489 -0.6244 -0.0173
19183TIP3   OH279039   3.882   1.568  13.600 -0.1529  0.0370 -0.4224
19183TIP3    H179040   3.962   1.620  13.603 -0.0890  0.0216 -1.4455
19183TIP3    H279041   3.891   1.515  13.520 -0.6412 -0.8376  0.0927
19184TIP3   OH279042   1.818   3.747   1.231 -0.5683  0.1030 -0.1265
19184TIP3    H179043   1.749   3.682   1.215  0.0519 -0.7382  0.5760
19184TIP3    H279044   1.898   3.695   1.241 -0.1959  0.9231  1.2285
19185TIP3   OH279045   6.158   3.309  12.798 -0.8348  0.1930  0.2732
19185TIP3    H179046   6.175   3.215  12.792 -0.5212  0.2926 -0.4354
19185TIP3    H279047   6.183   3.343  12.712 -0.4029  1.0154  0.7294
19186TIP3   OH279048   6.005   0.179  11.246 -0.2944  0.4663 -0.0908
19186TIP3    H179049   6.076   0.122  11.214  0.5865  2.4089 -1.6798
19186TIP3    H279050   5.925   0.138  11.214  0.0817 -1.6161  1.5053
19187TIP3   OH279051   4.696   5.783  12.474  0.8669  0.4580 -0.1798
19187TIP3    H179052   4.610   5.806  12.437 -0.4061 -1.1577  1.6910
19187TIP3    H279053   4.690   5.809  12.566  1.6546 -1.4919  0.4527
19188TIP3   OH279054   6.303   0.819  12.729 -0.7439  0.1819 -0.0671
19188TIP3    H179055   6.356   0.829  12.808 -2.8337 -1.2820  1.5790
19188TIP3    H279056   6.227   0.875  12.743 -0.6881  0.6218 -1.4489
19189TIP3   OH279057   4.107   3.569  11.940 -0.3161 -0.6232 -0.0576
19189TIP3    H179058   4.143   3.564  11.851  0.0844 -2.3551  0.1746
19189TIP3    H279059   4.013   3.564  11.928 -0.3656  1.1591 -0.5016
19190TIP3   OH279060   6.346   2.934  13.733  0.2762  0.0181  0.2550
19190TIP3    H179061   6.263   2.930  13.687  0.4896  0.1336 -0.1453
19190TIP3    H279062   6.364   2.844  13.760  0.0878 -0.0271  0.2269
19191TIP3   OH279063   1.964   4.396   4.668  0.3197  0.4861 -0.2804
19191TIP3    H179064   1.978   4.409   4.762 -0.1641 -1.7981  0.1427
19191TIP3    H279065   2.045   4.356   4.637  1.0456  2.5734 -1.1558
19192TIP3   OH279066   4.483   0.449   0.525 -0.3978  0.4532  0.7006
19192TIP3    H179067   4.434   0.367   0.531 -1.2207  0.6919 -1.8439
19192TIP3    H279068   4.508   0.455   0.433  5.1017  0.0222  1.9886
19193TIP3   OH279069   5.091   2.777  13.657  0.2772  0.0463 -0.0481
19193TIP3    H179070   5.013   2.730  13.685 -0.2082 -0.3830 -2.0631
19193TIP3    H279071   5.058   2.861  13.625  0.6413 -0.1050 -0.8335
19194TIP3   OH279072   3.894   2.456  15.119 -0.5827  0.1538  0.0949
19194TIP3    H179073   3.924   2.478  15.031  0.9271 -0.0200  0.5359
19194TIP3    H279074   3.945   2.515  15.176  1.2712 -2.3355  1.0980
19195TIP3   OH279075   5.272   0.998  14.531  0.1891  0.2644 -0.6569
19195TIP3    H179076   5.218   1.053  14.590  1.7104 -0.4745  1.4890
19195TIP3    H279077   5.208   0.941  14.488 -0.7130 -1.3886  2.6951
19196TIP3   OH279078   2.326   1.785  15.363 -0.0444  0.5625  0.4869
19196TIP3    H179079   2.419   1.781  15.338 -0.2534 -0.8851 -0.0988
19196TIP3    H279080   2.320   1.862  15.419  1.1589  1.7731 -1.0064
19197TIP3   OH279081   3.471   2.773  13.127 -0.1198  0.3679  0.0221
19197TIP3    H179082   3.521   2.779  13.046 -0.2863 -1.5886 -0.2305
19197TIP3    H279083   3.522   2.826  13.190  1.2831 -0.0941 -0.7105
19198TIP3   OH279084   0.993   0.667  14.266 -0.3406  0.0996  0.0929
19198TIP3    H179085   0.935   0.650  14.192 -1.7796 -1.2545  1.5011
19198TIP3    H279086   0.982   0.760  14.284 -0.1892  0.3780 -1.1960
19199TIP3   OH279087   3.143   0.365   4.901 -0.1810 -0.5535 -0.1908
19199TIP3    H179088   3.127   0.315   4.981 -0.0869 -0.6123 -0.2085
19199TIP3    H279089   3.085   0.440   4.908 -0.8368 -1.0238 -0.4924
19200TIP3   OH279090   2.075   4.609   4.007 -0.2500  0.3722  0.4515
19200TIP3    H179091   2.024   4.581   3.932 -0.7611  0.1794  0.8709
19200TIP3    H279092   2.107   4.528   4.047 -2.5930  0.2884  2.2741
19201TIP3   OH279093   0.841   3.341  10.683  0.3056  0.2528  0.5491
19201TIP3    H179094   0.925   3.311  10.717  0.7712  1.3227  0.3637
19201TIP3    H279095   0.813   3.272  10.623  0.9176 -0.2376  0.8286
19202TIP3   OH279096   0.254   4.228   1.007  0.0114 -0.1306  0.2088
19202TIP3    H179097   0.196   4.155   1.026  0.8275 -0.7355  0.4059
19202TIP3    H279098   0.205   4.283   0.945 -1.3446  0.1406  1.4934
19203TIP3   OH279099   0.985   3.777  11.165  0.1297  0.2199  0.0186
19203TIP3    H179100   0.994   3.838  11.238 -1.2183  2.1232 -1.3744
19203TIP3    H279101   0.935   3.704  11.202  2.2698 -0.3613  1.8453
19204TIP3   OH279102   6.345   5.000   6.151  0.0730  0.8684  0.0981
19204TIP3    H179103   6.359   5.066   6.219 -0.2676  1.0746 -0.0313
19204TIP3    H279104   6.404   4.929   6.174  2.4968  2.3743 -1.3210
19205TIP3   OH279105   4.692   5.369  15.003 -0.0251  0.2556 -0.1549
19205TIP3    H179106   4.787   5.358  15.008  0.1951  1.9216 -0.1835
19205TIP3    H279107   4.671   5.356  14.910  0.1324 -0.3764 -0.1046
19206TIP3   OH279108   3.919   2.298  14.736  0.2824 -0.6133 -0.0371
19206TIP3    H179109   3.933   2.204  14.720 -2.4386 -0.8740 -1.1760
19206TIP3    H279110   3.934   2.339  14.651 -0.0331 -0.2205  0.0971
19207TIP3   OH279111   3.243   3.961   6.218  0.8255  0.0663 -0.3137
19207TIP3    H179112   3.321   3.999   6.177  1.6126  2.8963  3.5169
19207TIP3    H279113   3.277   3.892   6.275  0.0628 -1.5086 -1.7093
19208TIP3   OH279114   3.168   2.594  11.743 -0.4004 -0.0552 -0.3479
19208TIP3    H179115   3.108   2.563  11.811 -1.3243  2.5447  0.0431
19208TIP3    H279116   3.123   2.575  11.661  0.2343 -2.1766 -0.2519
19209TIP3   OH279117   5.218   0.073   1.638 -0.2472  0.1143  0.0844
19209TIP3    H179118   5.277   0.019   1.586 -0.6965  0.6905 -1.0372
19209TIP3    H279119   5.132   0.061   1.598 -0.9227 -0.7875  1.7649
19210TIP3   OH279120   4.407   6.570   3.533 -0.2412  0.3501 -0.6258
19210TIP3    H179121   4.432   6.639   3.594 -0.3099  1.5231 -1.9075
19210TIP3    H279122   4.475   6.503   3.542  0.7966  1.3991 -0.7011
19211TIP3   OH279123   5.639   2.223   1.334  0.0996 -0.4231 -0.4940
19211TIP3    H179124   5.677   2.154   1.389 -2.1227 -0.0924  1.5142
19211TIP3    H279125   5.642   2.302   1.388  0.2605  0.5073 -1.8276
19212TIP3   OH279126   1.243   1.690   2.456  0.1114 -0.3038 -0.3483
19212TIP3    H179127   1.152   1.666   2.470 -0.1377  1.6791  1.7807
19212TIP3    H279128   1.294   1.617   2.490 -0.6751 -0.3909  0.6421
19213TIP3   OH279129   4.040   0.225  15.379 -0.6861  0.0453 -0.4563
19213TIP3    H179130   4.015   0.232  15.286 -1.3405 -0.9655 -0.3586
19213TIP3    H279131   4.006   0.305  15.418 -0.0931  0.6539 -1.1565
19214TIP3   OH279132   5.864   4.081  12.961  0.2380  0.5674  0.3804
19214TIP3    H179133   5.815   4.046  12.886 -0.9915  0.0072  1.4112
19214TIP3    H279134   5.855   4.176  12.953  2.0488  0.6122 -1.4307
19215TIP3   OH279135   4.491   3.392   5.532 -0.5503 -0.2251 -0.1232
19215TIP3    H179136   4.503   3.424   5.443 -1.2743  1.0472  0.2208
19215TIP3    H279137   4.416   3.333   5.527 -0.3034 -0.5183 -0.4327
19216TIP3   OH279138   6.361   6.230  15.434 -0.0034 -0.7670  0.9267
19216TIP3    H179139   6.298   6.302  15.439  0.7454  0.1537 -1.9222
19216TIP3    H279140   6.446   6.273  15.445  0.3268 -1.5473  1.4561
19217TIP3   OH279141   0.423   3.676  10.338  0.0384 -0.1132  0.3902
19217TIP3    H179142   0.377   3.632  10.410 -0.0793 -0.0599  0.3470
19217TIP3    H279143   0.486   3.734  10.382 -1.0649  1.0388  0.4612
19218TIP3   OH279144   6.814   5.752  15.069  0.3284  0.1462  0.5037
19218TIP3    H179145   6.806   5.841  15.036  0.2895  0.6311  1.7893
19218TIP3    H279146   6.740   5.705  15.031 -0.0627  0.8431  0.4002
19219TIP3   OH279147   6.245   2.144  16.196 -0.3883 -0.3192  0.4701
19219TIP3    H179148   6.322   2.173  16.246 -0.9750 -0.6916  1.6058
19219TIP3    H279149   6.236   2.210  16.127 -0.3335  0.9488  1.6309
19220TIP3   OH279150   2.429   5.477  13.502 -0.3681  0.1167 -0.0325
19220TIP3    H179151   2.492   5.546  13.520 -0.9289  0.7654 -0.5196
19220TIP3    H279152   2.360   5.520  13.450 -1.5883 -0.3967  1.1178
19221TIP3   OH279153   3.594   4.515  12.251 -0.6725 -0.1149 -0.7570
19221TIP3    H179154   3.583   4.508  12.156  0.0935  2.5603 -1.0807
19221TIP3    H279155   3.687   4.533  12.263 -1.1091  1.5529  0.3584
19222TIP3   OH279156   0.039   5.763   4.793  0.3237  0.1892  0.3112
19222TIP3    H179157   0.003   5.681   4.758 -0.0890 -0.0790  1.3604
19222TIP3    H279158  -0.020   5.788   4.863  1.4449  0.4423  1.1878
19223TIP3   OH279159   3.082   3.187   1.251 -0.2680 -0.4736 -0.2280
19223TIP3    H179160   3.001   3.146   1.282 -0.1143 -0.6291 -0.0357
19223TIP3    H279161   3.147   3.117   1.252  0.0269 -0.1947  0.2164
19224TIP3   OH279162   4.056   4.201  16.012 -0.5821 -0.0724  0.1731
19224TIP3    H179163   3.968   4.208  16.049  0.0464  1.9465  1.3640
19224TIP3    H279164   4.111   4.175  16.086  0.6111  3.5510  0.6812
19225TIP3   OH279165   0.362   1.393  16.892 -0.7539 -0.1025 -0.4805
19225TIP3    H179166   0.285   1.373  16.945 -2.0312  0.2245 -2.1892
19225TIP3    H279167   0.381   1.313  16.844 -0.9288  0.2632 -1.1709
19226TIP3   OH279168   1.598   5.505  12.365 -0.1821 -0.6370  0.6976
19226TIP3    H179169   1.628   5.581  12.317 -0.5167 -1.1074 -0.2672
19226TIP3    H279170   1.573   5.539  12.451 -0.6089  0.3885  0.1736
19227TIP3   OH279171   2.167   6.742  12.038  0.1689 -0.1570  0.1731
19227TIP3    H179172   2.133   6.711  11.954  1.4138 -0.8799 -0.0890
19227TIP3    H279173   2.138   6.677  12.101 -0.6863  0.3353  0.2841
19228TIP3   OH279174   6.573   0.493  13.689  0.4096 -0.9695 -0.0635
19228TIP3    H179175   6.552   0.528  13.602 -1.2890  0.4306  0.9025
19228TIP3    H279176   6.489   0.466  13.725  1.0164 -0.8900  1.4251
19229TIP3   OH279177   1.635   4.995  14.408  0.9151  0.3665 -0.2731
19229TIP3    H179178   1.622   4.903  14.383  0.7980  0.1178  0.6836
19229TIP3    H279179   1.720   5.018  14.370  1.3687 -0.4115  0.2463
19230TIP3   OH279180   3.764   6.772  12.896  0.3222 -0.5688 -0.0952
19230TIP3    H179181   3.732   6.795  12.983 -0.3196 -2.7408  0.2713
19230TIP3    H279182   3.855   6.802  12.895 -0.0687  0.6718  0.8285
19231TIP3   OH279183   1.621   0.037   4.666  0.2911 -0.6769 -0.0188
19231TIP3    H179184   1.598   0.007   4.754  1.6823 -0.3345  0.4681
19231TIP3    H279185   1.711   0.067   4.674 -0.3753  1.6667 -0.9867
19232TIP3   OH279186   4.846   1.739   4.631  0.0023  0.2465 -0.3407
19232TIP3    H179187   4.837   1.650   4.596  1.6125 -0.1922  0.3017
19232TIP3    H279188   4.802   1.794   4.567  0.9075 -0.7824 -1.9036
19233TIP3   OH279189   6.546   6.667   4.057 -0.2697  1.1146  0.0941
19233TIP3    H179190   6.469   6.625   4.019 -1.2189  0.2123  2.9032
19233TIP3    H279191   6.524   6.760   4.059 -0.4641  1.1041 -0.8808
19234TIP3   OH279192   6.331   6.592   6.124 -0.6452 -0.1004  0.3397
19234TIP3    H179193   6.361   6.660   6.184 -1.4742  0.9111 -0.3896
19234TIP3    H279194   6.329   6.635   6.038 -0.4505 -1.2494 -0.2465
19235TIP3   OH279195   4.272   4.582  14.806 -0.6012  0.0532 -0.1560
19235TIP3    H179196   4.183   4.619  14.802  0.4741  2.7153 -0.8288
19235TIP3    H279197   4.299   4.577  14.714  0.3350  0.2218  0.1142
19236TIP3   OH279198   5.450   3.784   0.217  0.2770 -0.1448  0.0064
19236TIP3    H179199   5.460   3.699   0.261 -0.0914  0.8268  2.0021
19236TIP3    H279200   5.356   3.790   0.199  0.2774 -0.0498  0.0403
19237TIP3   OH279201   4.824   6.233  17.124 -0.0253  0.3479  0.3761
19237TIP3    H179202   4.866   6.308  17.080 -0.5859  0.4918  0.0798
19237TIP3    H279203   4.895   6.190  17.171  0.5121  0.4178 -0.3610
19238TIP3   OH279204   0.734   5.425   4.607  0.0601  0.1469  0.9930
19238TIP3    H179205   0.647   5.386   4.606  0.7032 -1.3486  1.1970
19238TIP3    H279206   0.732   5.490   4.677 -1.0424  0.4812  0.6467
19239TIP3   OH279207   5.110   3.423   5.079 -0.0054 -0.5930  0.6501
19239TIP3    H179208   5.175   3.358   5.106  0.2988  0.4076  2.4538
19239TIP3    H279209   5.105   3.483   5.154 -0.0375  1.6314 -1.0958
19240TIP3   OH279210   0.445   2.375   3.633 -0.4197 -0.3174  0.0166
19240TIP3    H179211   0.443   2.459   3.587  0.3742 -0.0002  0.5420
19240TIP3    H279212   0.411   2.394   3.720 -0.1036 -0.5103  0.1827
19241TIP3   OH279213   0.886   5.321  15.950 -0.6744 -0.1411  0.0165
19241TIP3    H179214   0.921   5.402  15.987 -1.2174  0.1098 -0.0165
19241TIP3    H279215   0.964   5.272  15.922 -0.4373  1.6139 -2.6007
19242TIP3   OH279216   6.028   2.852   5.068 -0.1782 -0.1657  0.4771
19242TIP3    H179217   6.033   2.816   5.157 -1.0715  1.4180  1.1940
19242TIP3    H279218   6.051   2.779   5.011  1.2024 -0.9901  2.0507
19243TIP3   OH279219   1.896   6.211   5.940 -0.3501 -0.0382 -0.4274
19243TIP3    H179220   1.821   6.210   5.881  0.5549 -0.6127 -1.5962
19243TIP3    H279221   1.926   6.120   5.941  0.0940  0.1186  0.3323
19244TIP3   OH279222   1.566   2.642   6.107  0.7051  0.1620  0.0205
19244TIP3    H179223   1.567   2.562   6.160 -0.0191  1.7640  2.5485
19244TIP3    H279224   1.652   2.682   6.123  0.2060  1.0207  0.5852
19245TIP3   OH279225   5.542   3.216  15.718  0.3799 -0.0202  0.2620
19245TIP3    H179226   5.567   3.214  15.625 -0.2682 -0.0581  0.0855
19245TIP3    H279227   5.470   3.279  15.722 -1.3783 -1.9552  0.2770
19246TIP3   OH279228   4.972   1.867  15.817  0.1158 -0.3107 -0.3312
19246TIP3    H179229   5.018   1.929  15.873  0.5190  0.1416 -1.1706
19246TIP3    H279230   4.892   1.846  15.866 -0.3230  1.3367 -0.3183
19247TIP3   OH279231   6.157   4.476   2.751 -0.4673  0.3809  0.8045
19247TIP3    H179232   6.072   4.480   2.707  0.2332 -0.1038 -0.6523
19247TIP3    H279233   6.212   4.425   2.691  0.9077  0.9002  1.6064
19248TIP3   OH279234   4.468   3.029   0.952 -0.2657 -0.1682 -0.0925
19248TIP3    H179235   4.436   2.944   0.983 -1.5709  1.1616  2.4013
19248TIP3    H279236   4.563   3.018   0.945 -0.3987 -1.7777  0.4552
19249TIP3   OH279237   3.933   4.982   0.911 -0.2365  0.2450 -0.2552
19249TIP3    H179238   3.989   4.905   0.905 -0.3521  0.2239 -1.1761
19249TIP3    H279239   3.904   4.998   0.821 -0.5696  1.0977 -0.0068
19250TIP3   OH279240   3.628   3.669   2.579  0.4066  0.4369  0.2640
19250TIP3    H179241   3.662   3.671   2.489  0.5516  0.5441  0.3222
19250TIP3    H279242   3.553   3.729   2.576 -0.1573 -0.2766 -0.0172
19251TIP3   OH279243   2.312   1.712   4.688  0.3327  0.2071 -0.2227
19251TIP3    H179244   2.305   1.698   4.594  2.7941  0.2109 -0.4434
19251TIP3    H279245   2.222   1.720   4.719 -0.4525  1.5713 -2.7735
19252TIP3   OH279246   4.008   3.183   4.867  0.8685  0.1361 -0.0389
19252TIP3    H179247   3.914   3.169   4.855  0.8677  0.3430 -0.2756
19252TIP3    H279248   4.040   3.101   4.903  0.1040  1.0129  2.8143
19253TIP3   OH279249   1.972   5.217  13.609 -0.2571 -0.0617 -0.3375
19253TIP3    H179250   2.010   5.305  13.616  0.3963 -0.5530  2.9978
19253TIP3    H279251   1.886   5.232  13.569 -1.2087  2.4587  2.4461
19254TIP3   OH279252   6.403   3.687   1.507  0.2575  0.3929  0.1504
19254TIP3    H179253   6.356   3.621   1.557  0.6720 -0.8595 -1.0757
19254TIP3    H279254   6.437   3.639   1.431 -0.4718  2.2618 -1.3960
19255TIP3   OH279255   1.264   4.554  16.004  0.1954  0.3401 -0.1521
19255TIP3    H179256   1.229   4.503  16.077 -0.2331  1.3760  0.3853
19255TIP3    H279257   1.325   4.615  16.045 -0.1654  1.0365 -0.6283
19256TIP3   OH279258   4.569   1.253  15.323 -0.0034  0.4717  0.5243
19256TIP3    H179259   4.609   1.305  15.394 -1.4962  0.3917  1.4498
19256TIP3    H279260   4.491   1.216  15.363 -0.0464 -0.8242 -0.7543
19257TIP3   OH279261   0.927   0.848   5.453  0.3894  0.0956 -0.2948
19257TIP3    H179262   0.940   0.773   5.396  0.4158 -1.0621  1.1967
19257TIP3    H279263   0.945   0.924   5.398  4.0130 -1.0950 -0.8661
19258TIP3   OH279264   0.408   3.963   4.777 -0.0033  0.2126  0.4659
19258TIP3    H179265   0.454   3.882   4.756 -1.5154 -0.6099  0.2328
19258TIP3    H279266   0.348   3.938   4.848 -0.2937  1.1789  0.5673
19259TIP3   OH279267   4.866   5.634  12.075  0.3391 -0.2698  0.3869
19259TIP3    H179268   4.904   5.589  11.999  0.2466 -2.9009  1.8604
19259TIP3    H279269   4.937   5.638  12.139  0.8663  3.2479 -0.2725
19260TIP3   OH279270   0.790   2.764  14.617 -0.7091  0.5994 -0.1227
19260TIP3    H179271   0.710   2.716  14.595 -0.1629 -1.6410  2.5849
19260TIP3    H279272   0.759   2.854  14.633 -2.8342 -0.3891  1.6329
19261TIP3   OH279273   3.798   0.592   5.723  0.1498  0.0374 -0.0542
19261TIP3    H179274   3.770   0.629   5.639  1.2394  1.3083  0.1217
19261TIP3    H279275   3.893   0.600   5.722  0.4163 -2.5497  0.1309
19262TIP3   OH279276   3.815   5.064   5.954 -0.1696  0.0195  0.4458
19262TIP3    H179277   3.788   5.114   6.031 -0.7649  1.2230 -0.5179
19262TIP3    H279278   3.755   5.093   5.885  0.8083 -0.5289 -0.6446
19263TIP3   OH279279   1.822   4.468  15.307 -0.6403  0.2657 -0.3025
19263TIP3    H179280   1.730   4.457  15.333 -0.6042 -1.3026 -0.7957
19263TIP3    H279281   1.822   4.551  15.258 -1.7633  0.3765 -0.1476
19264TIP3   OH279282   6.544   5.427  12.080  0.0370  0.4857 -0.6636
19264TIP3    H179283   6.630   5.408  12.040  0.3800 -0.2725  0.4229
19264TIP3    H279284   6.482   5.375  12.029  0.1454  1.3895 -1.7520
19265TIP3   OH279285   1.440   3.115   3.748  0.0661  0.4923 -0.3264
19265TIP3    H179286   1.524   3.104   3.703 -0.1182  1.4162 -0.9122
19265TIP3    H279287   1.457   3.182   3.814  0.2508 -0.6266  0.7916
19266TIP3   OH279288   6.624   1.118   0.957 -0.4744 -0.8578  0.0657
19266TIP3    H179289   6.717   1.133   0.937 -0.2962 -1.0869  0.7236
19266TIP3    H279290   6.615   1.142   1.049 -0.7961 -2.0767  0.3472
19267TIP3   OH279291   0.432   4.937   0.762  0.1991 -0.1216 -0.4007
19267TIP3    H179292   0.390   4.881   0.697  2.6218 -0.8583 -1.3572
19267TIP3    H279293   0.370   4.938   0.836 -1.7945 -0.6329 -2.0105
19268TIP3   OH279294   0.879   0.003   5.164  0.5240 -0.1052  0.0087
19268TIP3    H179295   0.900   0.096   5.165 -2.2626  0.5648 -0.2655
19268TIP3    H279296   0.879  -0.021   5.071 -0.9520  0.1707 -0.0744
19269TIP3   OH279297   2.405   6.323   2.000  0.1116  0.0282  0.1142
19269TIP3    H179298   2.326   6.337   1.948 -0.9741 -2.8948  0.8244
19269TIP3    H279299   2.470   6.294   1.937 -0.1621 -0.0630 -0.1298
19270TIP3   OH279300   1.072   3.495   6.021  0.2741  0.3435 -0.1717
19270TIP3    H179301   1.123   3.428   6.066  2.8236  1.7430 -0.9056
19270TIP3    H279302   1.012   3.529   6.088  2.1844  0.5671  1.4494
19271TIP3   OH279303   5.882   1.290   0.795 -0.1171 -0.1607 -0.1515
19271TIP3    H179304   5.799   1.245   0.808 -1.0126  1.4890 -0.1058
19271TIP3    H279305   5.905   1.322   0.883  0.5339 -0.5329 -0.1803
19272TIP3   OH279306   2.022   3.227   5.245  0.5335  0.6497  0.1445
19272TIP3    H179307   1.949   3.275   5.282 -1.7392 -1.8583 -0.9040
19272TIP3    H279308   2.082   3.294   5.214 -0.7781  2.7507  2.0511
19273TIP3   OH279309   2.986   1.341  15.484 -0.3236 -0.0103 -0.1395
19273TIP3    H179310   2.954   1.277  15.548 -0.1182 -0.1634 -0.1938
19273TIP3    H279311   2.973   1.300  15.399 -0.1481  0.0037 -0.1718
19274TIP3   OH279312   5.680   3.663   2.380  0.3163 -0.0493  0.4864
19274TIP3    H179313   5.737   3.730   2.417 -0.3361  0.2635  0.9377
19274TIP3    H279314   5.727   3.581   2.394  1.3916  0.3708 -0.6141
19275TIP3   OH279315   2.440   4.463   5.373  0.6861 -0.2272  0.3555
19275TIP3    H179316   2.386   4.539   5.395 -0.4349 -1.0043  0.3049
19275TIP3    H279317   2.385   4.388   5.391  1.3194 -1.0037 -0.8809
19276TIP3   OH279318   2.005   2.448   1.550 -0.4202 -0.0841  0.0655
19276TIP3    H179319   1.963   2.365   1.571 -1.0496 -0.0687 -1.1186
19276TIP3    H279320   1.999   2.499   1.631  0.5045 -1.4064  0.9728
19277TIP3   OH279321   3.080   5.843   5.934 -0.1426  0.3475 -0.7848
19277TIP3    H179322   3.098   5.755   5.900  0.7982  0.3224 -0.2578
19277TIP3    H279323   3.165   5.888   5.930 -0.4978  1.0516 -0.5321
19278TIP3   OH279324   2.739   3.862  14.885 -0.4287  0.7321 -0.8501
19278TIP3    H179325   2.793   3.885  14.962 -1.0575 -0.8544  0.0849
19278TIP3    H279326   2.782   3.907  14.812  1.1311  0.9731  0.1755
19279TIP3   OH279327   1.719   6.531  12.183 -0.1625  0.6301 -0.4209
19279TIP3    H179328   1.677   6.616  12.197 -1.9228 -0.2680 -0.0128
19279TIP3    H279329   1.812   6.547  12.198 -0.3219  2.7250 -1.4706
19280TIP3   OH279330   2.749   2.476   1.543 -0.1672  0.1035  0.0436
19280TIP3    H179331   2.662   2.467   1.582  0.3559  0.1757  1.2440
19280TIP3    H279332   2.785   2.387   1.545  0.0662  0.1998  0.2373
19281TIP3   OH279333   2.246   5.162  12.322 -0.3681  0.1432 -0.3826
19281TIP3    H179334   2.207   5.085  12.279  2.3802 -1.9149  0.6395
19281TIP3    H279335   2.281   5.214  12.250  1.1433 -1.5298 -0.8921
19282TIP3   OH279336   4.763   2.068  16.846 -0.3876  0.0698  0.2854
19282TIP3    H179337   4.800   1.981  16.860 -0.7855 -0.3044 -0.8802
19282TIP3    H279338   4.677   2.051  16.808 -0.0952  0.9916 -0.8055
19283TIP3   OH279339   1.445   0.982  14.127 -0.2584  0.0170 -0.0991
19283TIP3    H179340   1.535   1.004  14.104  0.6522 -3.1887  0.0745
19283TIP3    H279341   1.404   0.959  14.044 -0.4860  0.0321  0.0091
19284TIP3   OH279342   0.787   6.313  16.222 -0.0177  0.1109  0.2462
19284TIP3    H179343   0.722   6.371  16.182 -0.2388 -1.1380 -1.2429
19284TIP3    H279344   0.867   6.366  16.226 -0.4366  0.8001 -0.3268
19285TIP3   OH279345   1.166   2.806  11.584 -0.2066 -0.2764  0.0255
19285TIP3    H179346   1.075   2.823  11.607  0.0359 -0.2806  0.9735
19285TIP3    H279347   1.163   2.786  11.490 -0.9418  1.4923 -0.3335
19286TIP3   OH279348   1.819   5.882   5.713 -0.4007  0.2766  0.0918
19286TIP3    H179349   1.807   5.824   5.637 -0.6941 -0.4684  0.7063
19286TIP3    H279350   1.880   5.949   5.682 -0.6082  0.0488 -0.8436
19287TIP3   OH279351   6.720   0.128   1.726  0.4200 -0.6273 -0.5953
19287TIP3    H179352   6.719   0.032   1.729  1.5706 -0.6596 -0.8422
19287TIP3    H279353   6.771   0.148   1.648 -1.0658  0.1909 -1.3665
19288TIP3   OH279354   5.201   2.742  16.923 -0.3917 -0.0782  0.1350
19288TIP3    H179355   5.133   2.679  16.948  0.6954 -1.5205 -0.4364
19288TIP3    H279356   5.182   2.820  16.974 -3.3301  0.0546 -1.0401
19289TIP3   OH279357   2.286   0.498  15.308  0.7731 -0.2527 -0.1355
19289TIP3    H179358   2.302   0.530  15.397  0.9895 -0.1703 -0.2035
19289TIP3    H279359   2.345   0.423  15.299  0.3380 -0.6132 -0.0089
19290TIP3   OH279360   3.940   5.828  16.596 -0.3138 -0.2879  0.0033
19290TIP3    H179361   3.959   5.920  16.578 -0.5384 -0.4247 -0.9619
19290TIP3    H279362   3.985   5.810  16.679  0.7246  0.3722 -0.4018
19291TIP3   OH279363   6.435   3.522   0.277  0.0574 -0.5885  0.2037
19291TIP3    H179364   6.401   3.599   0.232  0.4557 -0.4696  0.1075
19291TIP3    H279365   6.526   3.515   0.248  0.4441 -0.2753  1.2775
19292TIP3   OH279366   3.923   3.383   2.150 -0.3356  0.1493  0.0698
19292TIP3    H179367   3.998   3.325   2.158  0.4867  1.2794  0.6106
19292TIP3    H279368   3.848   3.329   2.174  0.0269 -1.5649 -2.4420
19293TIP3   OH279369   6.755   2.007  14.096 -0.0472 -0.3315 -0.6178
19293TIP3    H179370   6.816   2.080  14.108  1.0222 -1.1190 -1.2479
19293TIP3    H279371   6.761   1.986  14.003 -0.5216 -1.0825 -0.4800
19294TIP3   OH279372   3.385   4.695   3.986 -0.2637  0.4231  0.3066
19294TIP3    H179373   3.308   4.642   3.965  0.2923  0.1891 -1.2635
19294TIP3    H279374   3.456   4.632   3.994 -0.4886  0.4851  3.3146
19295TIP3   OH279375   5.550   5.114  11.715 -0.4023 -0.1168  0.0914
19295TIP3    H179376   5.551   5.084  11.806 -1.5208  2.1515  0.8983
19295TIP3    H279377   5.578   5.038  11.664 -1.0536 -1.8223  2.2063
19296TIP3   OH279378   3.962   3.637   2.327  0.2754 -0.1151  0.1182
19296TIP3    H179379   4.047   3.604   2.297  0.3110 -1.2818  1.4321
19296TIP3    H279380   3.899   3.572   2.294  0.0408  0.0094  0.3261
19297TIP3   OH279381   2.285   4.749  15.934 -0.1036  0.1554 -0.0451
19297TIP3    H179382   2.354   4.762  15.999  0.1788  1.0202 -0.5129
19297TIP3    H279383   2.331   4.751  15.850 -0.6765  0.5118 -0.3447
19298TIP3   OH279384   2.592   3.486  16.526  0.7672  0.0594  0.1402
19298TIP3    H179385   2.622   3.450  16.442  0.8909  0.4221  0.0285
19298TIP3    H279386   2.672   3.506  16.574  0.7137 -1.9263  1.1269
19299TIP3   OH279387   0.862   0.848  13.863 -0.8148 -0.0829 -0.1402
19299TIP3    H179388   0.826   0.891  13.786 -1.5807  0.0212  0.2670
19299TIP3    H279389   0.928   0.908  13.896 -1.0290  0.2237 -0.2690
19300TIP3   OH279390   2.259   6.139  15.884  0.6351 -0.3441 -0.3078
19300TIP3    H179391   2.290   6.147  15.974 -1.5349  1.2346  0.3585
19300TIP3    H279392   2.205   6.060  15.884  0.1665 -0.0284 -0.0583
19301TIP3   OH279393   1.408   2.273  13.678 -0.4805  0.2004  0.1084
19301TIP3    H179394   1.350   2.335  13.723 -0.0607  0.7162 -0.0568
19301TIP3    H279395   1.464   2.328  13.623 -0.3238 -0.3527 -0.2851
19302TIP3   OH279396   4.381   3.253  15.125  0.3077 -0.0186 -0.0451
19302TIP3    H179397   4.382   3.347  15.108  1.3649 -0.1585 -0.8174
19302TIP3    H279398   4.324   3.217  15.058 -0.6192  0.1365  0.6482
19303TIP3   OH279399   5.095   1.714   5.524  0.4833 -0.0913  0.3320
19303TIP3    H179400   5.069   1.720   5.433 -0.0234  1.2698  0.5565
19303TIP3    H279401   5.013   1.710   5.573  0.6351  3.0998  0.9665
19304TIP3   OH279402   0.798   4.971   1.799  0.5018 -0.6960  0.0054
19304TIP3    H179403   0.828   5.040   1.740  3.2460 -0.7615  1.2453
19304TIP3    H279404   0.775   4.898   1.742 -1.9738  1.0115 -1.2887
19305TIP3   OH279405   1.731   4.477  13.801  0.5926  0.0053 -0.4628
19305TIP3    H179406   1.667   4.545  13.820 -0.1260 -0.4206 -1.3179
19305TIP3    H279407   1.757   4.443  13.887 -1.4702 -0.8582 -0.1475
19306TIP3   OH279408   5.098   4.677   4.938  0.3619  0.2452 -0.2162
19306TIP3    H179409   5.012   4.686   4.979  1.3244  0.3207  1.8604
19306TIP3    H279410   5.157   4.723   4.997  1.9126 -0.2573 -1.3501
19307TIP3   OH279411   4.401   2.096   0.390  0.6747  0.1122 -0.5397
19307TIP3    H179412   4.409   2.139   0.476 -2.7250 -2.0481  0.9702
19307TIP3    H279413   4.430   2.006   0.405 -0.4673 -0.4265 -1.4929
19308TIP3   OH279414   5.996   2.376  12.243 -0.6117  0.1483 -0.4786
19308TIP3    H179415   5.926   2.404  12.184 -1.4522 -0.0952  0.4003
19308TIP3    H279416   5.961   2.390  12.331  0.3961 -0.0894 -0.0255
19309TIP3   OH279417   6.117   5.043   4.634 -0.1615 -0.5769 -0.5302
19309TIP3    H179418   6.146   5.026   4.723 -1.0282  0.5353 -0.0250
19309TIP3    H279419   6.197   5.043   4.582  0.5469  0.6216  0.5492
19310TIP3   OH279420   2.350   3.331  16.893 -0.1911 -0.1211 -0.1529
19310TIP3    H179421   2.392   3.415  16.875  0.2697  0.1213  1.9438
19310TIP3    H279422   2.334   3.332  16.987 -0.8633 -2.0799 -0.2221
19311TIP3   OH279423   4.930   0.053  12.947 -0.0857  0.0139  0.4628
19311TIP3    H179424   4.937  -0.035  12.985  1.2793  0.0644  0.3590
19311TIP3    H279425   5.002   0.102  12.988  0.7047  0.3786 -1.3506
19312TIP3   OH279426   4.206   6.340  13.539 -0.1527 -0.1965 -0.0259
19312TIP3    H179427   4.162   6.330  13.454 -0.9803  1.0374  0.2452
19312TIP3    H279428   4.221   6.434  13.547  0.0484 -0.3278  1.1369
19313TIP3   OH279429   1.387   3.991   6.374  0.3410  0.4141  0.1762
19313TIP3    H179430   1.333   3.941   6.313 -1.1133  1.6928  0.3826
19313TIP3    H279431   1.352   3.970   6.460  0.9320  0.3562  0.4082
19314TIP3   OH279432   6.035   2.921   3.307 -0.2120 -0.2138 -0.1770
19314TIP3    H179433   6.033   2.956   3.218  0.8221 -0.4964 -0.3158
19314TIP3    H279434   6.070   2.993   3.360  2.5308 -1.2074 -0.5639
19315TIP3   OH279435   1.136   5.878   3.371 -0.6066 -0.0504 -0.1272
19315TIP3    H179436   1.211   5.852   3.317 -0.3760 -2.6560  1.3968
19315TIP3    H279437   1.060   5.859   3.317 -0.2688  1.3890 -1.1671
19316TIP3   OH279438   5.929   1.081  15.587 -0.1120 -0.2345  0.1061
19316TIP3    H179439   5.961   1.113  15.671 -0.9800 -0.5636  0.5631
19316TIP3    H279440   5.870   1.149  15.555 -0.7141 -0.6518  0.3263
19317TIP3   OH279441   5.092   6.366  16.087 -0.1926  0.4142  0.3037
19317TIP3    H179442   5.170   6.421  16.075 -0.6491  0.7528 -1.2985
19317TIP3    H279443   5.035   6.416  16.144 -0.2576  1.2377 -0.4791
19318TIP3   OH279444   0.113   5.016  13.478  0.0675  0.3418  0.4752
19318TIP3    H179445   0.149   5.028  13.566  1.9369 -0.3472 -0.1752
19318TIP3    H279446   0.182   5.047  13.419 -1.6093  1.8995 -0.7502
19319TIP3   OH279447   5.674   5.543  13.956 -0.5923 -0.3191  0.2269
19319TIP3    H179448   5.691   5.474  14.020  0.6055 -0.0443  0.2216
19319TIP3    H279449   5.761   5.577  13.933 -0.6990 -2.3594 -3.7243
19320TIP3   OH279450   0.399   0.028  13.694 -0.3515 -0.2668 -0.3160
19320TIP3    H179451   0.493   0.030  13.714 -1.0251 -0.9252  3.2007
19320TIP3    H279452   0.370   0.118  13.708 -0.2151 -0.0178 -1.6136
19321TIP3   OH279453   0.873   3.242   4.055  0.4132 -0.4202 -1.0326
19321TIP3    H179454   0.779   3.257   4.045  0.5141  0.4658 -0.6344
19321TIP3    H279455   0.882   3.209   4.145  0.6171  0.5524 -0.6995
19322TIP3   OH279456   3.808   6.782  14.897  0.3133 -0.0257 -0.0602
19322TIP3    H179457   3.762   6.831  14.830  1.1593  2.0477  0.8330
19322TIP3    H279458   3.900   6.789  14.873  0.4592 -1.0531  0.1723
19323TIP3   OH279459   6.366   0.426  16.621 -0.2587 -0.1650 -0.4036
19323TIP3    H179460   6.294   0.430  16.684 -0.3852  0.2090 -0.5725
19323TIP3    H279461   6.428   0.363  16.659 -0.7628 -0.6318 -0.3531
19324TIP3   OH279462   1.535   6.030   3.268  0.2769  0.1178 -0.1102
19324TIP3    H179463   1.495   5.988   3.193  0.9827 -0.4560 -0.1689
19324TIP3    H279464   1.586   6.103   3.231 -1.1492  1.2021  0.0142
19325TIP3   OH279465   3.736   3.559  15.336  0.4486  0.0034 -0.0058
19325TIP3    H179466   3.741   3.624  15.407  2.5124 -1.0266  0.8185
19325TIP3    H279467   3.713   3.477  15.380 -0.0811 -0.2570 -0.7704
19326TIP3   OH279468   4.230   6.529   2.591 -0.7825 -0.4836  0.2152
19326TIP3    H179469   4.163   6.501   2.528 -1.0313  0.6178 -0.0349
19326TIP3    H279470   4.302   6.561   2.536  0.3918 -2.5955  0.4655
19327TIP3   OH279471   3.557   5.961   3.902 -0.6698 -0.0829 -0.2854
19327TIP3    H179472   3.493   5.892   3.884 -1.2912  0.7516 -1.3376
19327TIP3    H279473   3.631   5.916   3.942 -2.0122 -1.0419  1.1721
19328TIP3   OH279474   2.648   4.242  11.441  0.1819 -0.1207 -0.1377
19328TIP3    H179475   2.623   4.230  11.350 -1.3980 -0.0028  0.2601
19328TIP3    H279476   2.653   4.337  11.452  4.1918 -0.1264 -1.0620
19329TIP3   OH279477   4.299   0.062  14.349 -0.5976  0.1774 -0.1626
19329TIP3    H179478   4.211   0.100  14.353 -0.0403  1.7016 -1.8367
19329TIP3    H279479   4.285  -0.030  14.328 -1.7684  0.6480 -1.5216
19330TIP3   OH279480   5.371   6.019  17.169  0.1374 -0.3422  0.4370
19330TIP3    H179481   5.382   5.975  17.085 -1.2766  2.0460 -1.0731
19330TIP3    H279482   5.326   6.101  17.147 -2.6220 -0.8269  3.8165
19331TIP3   OH279483   6.474   1.869   0.660  0.3893  0.1477  0.0419
19331TIP3    H179484   6.517   1.860   0.745  1.2995  0.2314 -0.4046
19331TIP3    H279485   6.531   1.928   0.610  0.4622 -0.7982 -1.0166
19332TIP3   OH279486   6.395   0.499  17.290  0.0811  0.6700  1.1615
19332TIP3    H179487   6.398   0.444  17.368 -0.4604  0.4834  1.0557
19332TIP3    H279488   6.375   0.439  17.218 -0.5797  1.0117  1.0537
19333TIP3   OH279489   1.365   3.369  13.402 -0.0895  0.7618 -0.0337
19333TIP3    H179490   1.381   3.276  13.421 -0.6533  0.7097  0.2068
19333TIP3    H279491   1.339   3.370  13.309  1.0152  0.8161 -0.3489
19334TIP3   OH279492   5.786   1.250   5.917  0.0333  0.3449  1.0319
19334TIP3    H179493   5.731   1.298   5.855 -0.6886  0.7294  1.9630
19334TIP3    H279494   5.731   1.238   5.994  1.1128  0.3501  1.8176
19335TIP3   OH279495   4.551   3.713  10.820  0.1634  0.3105 -0.5209
19335TIP3    H179496   4.509   3.792  10.854 -2.0769 -0.3311 -1.7215
19335TIP3    H279497   4.643   3.723  10.844 -0.5730  1.9406  1.8233
19336TIP3   OH279498   0.787   2.374  15.774  0.1285 -0.2738 -0.0178
19336TIP3    H179499   0.855   2.397  15.837  0.3839 -0.2259 -0.3116
19336TIP3    H279500   0.706   2.375  15.825  0.2984  0.0520  0.2433
19337TIP3   OH279501   3.020   0.065  12.675 -0.0060  0.0510 -0.1931
19337TIP3    H179502   2.945   0.013  12.646 -0.7850  1.5513 -0.9035
19337TIP3    H279503   3.031   0.041  12.767 -2.1631  0.7483  0.2806
19338TIP3   OH279504   6.360   1.292   1.340 -0.0083 -0.2946 -0.1260
19338TIP3    H179505   6.273   1.268   1.373  0.3809  0.4575  1.4809
19338TIP3    H279506   6.419   1.276   1.413  0.9084  1.1630 -0.5244
19339TIP3   OH279507   4.760   3.120  12.963 -0.7757 -0.3273 -0.6985
19339TIP3    H179508   4.795   3.141  12.877  0.7112  1.2015  0.2526
19339TIP3    H279509   4.766   3.024  12.968 -1.3960 -0.4858 -2.4801
19340TIP3   OH279510   1.716   3.302   1.786  0.1309  0.6785  0.2324
19340TIP3    H179511   1.723   3.294   1.881 -0.9755 -0.1162  0.2545
19340TIP3    H279512   1.642   3.361   1.772 -0.4475 -0.1345 -0.1479
19341TIP3   OH279513   3.222   0.246   5.775  0.0459  0.3075 -0.0419
19341TIP3    H179514   3.178   0.166   5.805  1.6125 -0.9141 -0.8765
19341TIP3    H279515   3.308   0.241   5.817  0.5288  1.0137 -0.9502
19342TIP3   OH279516   3.336   1.601  16.269 -0.1830 -0.0802 -0.2209
19342TIP3    H179517   3.337   1.619  16.363  0.5460 -0.2015 -0.2023
19342TIP3    H279518   3.323   1.686  16.228  1.8792  0.3101 -0.0845
19343TIP3   OH279519   0.481   0.416  16.963 -0.3456  0.5579 -0.3010
19343TIP3    H179520   0.404   0.363  16.939 -0.9460  1.4012 -0.2709
19343TIP3    H279521   0.471   0.496  16.911  1.0326  0.2586 -1.0321
19344TIP3   OH279522   4.357   5.742   1.403  0.5617  0.9414 -0.3766
19344TIP3    H179523   4.283   5.723   1.345  1.5035 -1.4527 -0.8155
19344TIP3    H279524   4.419   5.790   1.347  0.0632  1.5148 -0.4455
19345TIP3   OH279525   4.311   5.533   4.369  0.2946  0.1250  0.4056
19345TIP3    H179526   4.308   5.623   4.337  0.1987  0.0119  0.0934
19345TIP3    H279527   4.329   5.541   4.462  2.1495  0.4169  0.0472
19346TIP3   OH279528   1.137   3.242   2.019 -0.1897 -0.2185 -0.8444
19346TIP3    H179529   1.160   3.160   1.975 -0.6114 -0.6464 -0.2844
19346TIP3    H279530   1.044   3.253   2.001 -0.0874  0.2475 -1.0906
19347TIP3   OH279531   4.979   1.923   2.604  0.0684  0.7665 -0.7212
19347TIP3    H179532   5.000   1.979   2.679  0.2833  1.0065 -0.9555
19347TIP3    H279533   5.007   1.975   2.528  3.3551 -0.9993 -0.8088
19348TIP3   OH279534   5.730   6.369  16.576  0.2523  0.2709  0.6018
19348TIP3    H179535   5.640   6.345  16.598  0.5516 -0.0015  1.5602
19348TIP3    H279536   5.736   6.462  16.601  0.1425  0.3830  0.2162
19349TIP3   OH279537   1.600   5.425  12.854  0.3114 -0.2381 -0.4117
19349TIP3    H179538   1.592   5.506  12.904 -1.8924 -0.5323 -0.2443
19349TIP3    H279539   1.689   5.393  12.874  0.7526  1.4947  0.4669
19350TIP3   OH279540   0.726   2.860  15.455 -0.0887  0.1799  0.0357
19350TIP3    H179541   0.778   2.876  15.377 -0.3296  1.1729  0.0696
19350TIP3    H279542   0.773   2.792  15.503 -0.4810 -1.1764 -1.4737
19351TIP3   OH279543   0.092   4.966   6.000 -0.2588  0.0831  0.0001
19351TIP3    H179544   0.016   4.908   5.996 -1.0594  1.1750 -1.0710
19351TIP3    H279545   0.150   4.933   5.932 -1.4176  1.4805 -1.7009
19352TIP3   OH279546   5.539   1.907   3.550  0.0128  0.5809  0.5223
19352TIP3    H179547   5.475   1.850   3.507  1.3255  0.2875 -1.0916
19352TIP3    H279548   5.606   1.923   3.483  1.8159  0.5903  2.2707
19353TIP3   OH279549   3.575   6.015   6.354  0.4339 -0.2854  0.2188
19353TIP3    H179550   3.577   6.098   6.307 -0.0017 -0.2210  0.3149
19353TIP3    H279551   3.513   5.961   6.305  0.1748 -0.3062  0.5700
19354TIP3   OH279552   2.123   6.132   5.137  0.1831  0.2074 -0.4590
19354TIP3    H179553   2.183   6.071   5.094 -0.2699 -1.6339  1.4439
19354TIP3    H279554   2.037   6.093   5.124 -0.2571  1.1190 -0.3131
19355TIP3   OH279555   3.930   1.447   4.867  0.5495  0.1014 -0.3300
19355TIP3    H179556   4.006   1.389   4.880  0.8300  0.4357 -0.4867
19355TIP3    H279557   3.885   1.410   4.791  0.1661 -0.5101  0.1850
19356TIP3   OH279558   1.458   5.034   3.024 -0.1320 -0.3715  0.6693
19356TIP3    H179559   1.464   5.103   2.958 -1.2168 -0.0652  0.8733
19356TIP3    H279560   1.546   5.027   3.060 -0.0805  1.1366  0.8687
19357TIP3   OH279561   4.019   2.081   1.030 -0.2659  0.1924  0.6717
19357TIP3    H179562   3.923   2.083   1.037 -0.3286  2.3454 -0.5395
19357TIP3    H279563   4.041   1.988   1.035 -2.2830 -0.2319  2.5924
19358TIP3   OH279564   0.826   4.449  14.412 -0.0622 -0.5326  0.2183
19358TIP3    H179565   0.801   4.399  14.489  0.6253 -3.9236 -1.6757
19358TIP3    H279566   0.745   4.461  14.364  0.0362 -1.2734 -0.1354
19359TIP3   OH279567   2.017   5.347  12.176  0.3458 -0.2849  0.1578
19359TIP3    H179568   2.055   5.344  12.088  2.2730 -0.0189  0.9436
19359TIP3    H279569   1.991   5.438  12.188  0.1445 -0.3064 -0.1242
19360TIP3   OH279570   3.637   2.271  15.377 -0.0056  0.1720 -0.3815
19360TIP3    H179571   3.665   2.289  15.288 -0.3526  1.8939 -0.1493
19360TIP3    H279572   3.562   2.211  15.368  1.6756 -1.8847 -1.1154
19361TIP3   OH279573   6.368   3.036  16.576  0.1890  0.7815 -0.1515
19361TIP3    H179574   6.305   2.995  16.517 -0.1884 -0.0024  0.7918
19361TIP3    H279575   6.444   3.055  16.521 -0.7414  1.4373 -1.2232
19362TIP3   OH279576   0.067   2.279  13.788  0.0025 -0.1080  0.0613
19362TIP3    H179577   0.109   2.311  13.868  0.0196  1.0870 -0.4208
19362TIP3    H279578   0.031   2.357  13.747  0.7542 -0.6003 -1.5632
19363TIP3   OH279579   1.897   6.393   4.004 -0.3969  0.5717 -0.6823
19363TIP3    H179580   1.906   6.325   3.937  0.7408  0.2488 -0.2284
19363TIP3    H279581   1.988   6.416   4.027 -0.7444  0.0880  1.3174
19364TIP3   OH279582   6.590   2.547  15.906  0.0247  0.2574 -0.0314
19364TIP3    H179583   6.544   2.464  15.893  1.7946 -0.8248  0.4258
19364TIP3    H279584   6.648   2.555  15.830 -1.0984  1.7580 -0.7640
19365TIP3   OH279585   6.501   0.881   0.867  0.1292  0.6357 -0.2023
19365TIP3    H179586   6.516   0.963   0.914  0.4020 -0.2096  1.2242
19365TIP3    H279587   6.407   0.879   0.850 -0.0061  0.8533  0.5095
19366TIP3   OH279588   1.404   0.530   1.844  0.0823 -0.2963 -0.0956
19366TIP3    H179589   1.455   0.609   1.829 -1.2547  0.8223  1.1382
19366TIP3    H279590   1.409   0.516   1.939 -1.9555 -0.0957  0.0726
19367TIP3   OH279591   1.049   1.861   5.051  0.0079 -0.1712  0.4649
19367TIP3    H179592   1.099   1.943   5.059 -0.5257  0.2257 -0.2670
19367TIP3    H279593   1.011   1.849   5.138 -0.4839  0.7353  0.3862
19368TIP3   OH279594   4.576   2.981  13.501  0.3718 -0.2333  0.1622
19368TIP3    H179595   4.544   2.948  13.585  0.8321  1.3048  0.9593
19368TIP3    H279596   4.517   2.942  13.436  0.9665 -2.6422  1.0628
19369TIP3   OH279597   2.110   1.875   1.905 -0.4326 -0.0663 -0.9029
19369TIP3    H179598   2.113   1.781   1.887 -0.2092 -0.2373 -0.0139
19369TIP3    H279599   2.121   1.882   2.000  1.3560  0.9473 -1.1572
19370TIP3   OH279600   1.460   1.883   4.916 -0.2641 -0.0183 -0.1239
19370TIP3    H179601   1.532   1.836   4.959 -1.4671 -0.5205  1.4118
19370TIP3    H279602   1.456   1.846   4.828  1.9574  0.6886 -0.5493
19371TIP3   OH279603   5.200   3.282   0.297 -0.4431 -0.2324  0.7028
19371TIP3    H179604   5.222   3.359   0.349  0.4452 -0.0201  0.0296
19371TIP3    H279605   5.284   3.254   0.259 -1.0457 -0.4369 -0.5173
19372TIP3   OH279606   2.622   4.974  12.116  0.1210 -0.5786 -0.2331
19372TIP3    H179607   2.692   4.915  12.145  3.2146  2.4990 -1.0815
19372TIP3    H279608   2.616   5.039  12.186 -0.0789  0.6445 -1.3765
19373TIP3   OH279609   1.853   3.829  15.686  0.6327  0.3140  0.1355
19373TIP3    H179610   1.822   3.884  15.614 -0.8070 -0.1085  0.4169
19373TIP3    H279611   1.846   3.739  15.653  1.4533  0.2075  0.2444
19374TIP3   OH279612   2.099   5.274  14.323  0.1747  0.0900  0.4110
19374TIP3    H179613   2.139   5.256  14.238  0.2671  0.6858  0.3219
19374TIP3    H279614   2.023   5.329  14.303 -1.6988 -2.4013  0.4184
19375TIP3   OH279615   4.052   0.068   4.649 -0.4131 -0.4689  0.0621
19375TIP3    H179616   4.049  -0.027   4.647 -2.6745 -0.4109 -1.0219
19375TIP3    H279617   4.002   0.096   4.572  0.5044  1.5968  0.1598
19376TIP3   OH279618   6.015   3.291   3.490 -0.0522  0.2094 -0.1014
19376TIP3    H179619   6.050   3.299   3.401 -1.1910 -0.6799 -0.6321
19376TIP3    H279620   5.951   3.362   3.496 -1.9227 -1.3532 -0.9332
19377TIP3   OH279621   4.000   1.909  13.424 -0.1996  0.4130 -0.3347
19377TIP3    H179622   4.062   1.861  13.480  1.1074  1.4244 -0.9022
19377TIP3    H279623   3.986   1.851  13.349 -0.7402 -0.2622  0.2792
19378TIP3   OH279624   1.238   5.508  12.864 -0.7432  0.2465  0.0202
19378TIP3    H179625   1.212   5.518  12.956  0.7249  0.3981  0.4233
19378TIP3    H279626   1.262   5.416  12.856  0.9262  0.6450  0.2705
19379TIP3   OH279627   4.728   1.951  11.275 -0.2195 -0.4152 -0.3521
19379TIP3    H179628   4.721   1.901  11.356 -0.0851 -0.4002 -0.3305
19379TIP3    H279629   4.638   1.960  11.244 -0.2604 -0.5155 -0.2617
19380TIP3   OH279630   6.400   6.509   1.086 -0.4920  1.3100  0.4943
19380TIP3    H179631   6.400   6.524   1.181 -2.1637 -1.4631  0.9775
19380TIP3    H279632   6.445   6.425   1.075 -0.8092  1.3382 -1.1136
19381TIP3   OH279633   1.238   0.857  14.297 -0.0855 -0.7330  0.1892
19381TIP3    H179634   1.311   0.890  14.244 -0.7518 -0.0915 -0.3430
19381TIP3    H279635   1.165   0.915  14.276 -1.1898 -2.3291 -0.4981
19382TIP3   OH279636   5.810   6.253  11.266 -0.1771 -0.3439 -0.2002
19382TIP3    H179637   5.882   6.307  11.234  0.9054 -2.2910 -1.1010
19382TIP3    H279638   5.850   6.197  11.334 -1.4073  0.3735  1.1511
19383TIP3   OH279639   1.364   2.933   2.497 -0.5063 -0.3739  0.2343
19383TIP3    H179640   1.315   3.013   2.478  0.9929  0.2432 -1.1107
19383TIP3    H279641   1.312   2.889   2.565 -2.2670  0.8568 -0.2744
19384TIP3   OH279642   0.718   3.817   0.044 -0.5699  0.0787  0.0889
19384TIP3    H179643   0.706   3.800   0.137 -1.9158 -0.0283 -0.0950
19384TIP3    H279644   0.706   3.732   0.001  2.9622 -0.4657  0.0391
19385TIP3   OH279645   6.656   0.685  12.377 -0.1404  0.0400 -0.8124
19385TIP3    H179646   6.662   0.775  12.408 -0.6953  0.0181 -0.6380
19385TIP3    H279647   6.573   0.681  12.330  0.2575 -0.1740 -1.4932
19386TIP3   OH279648   0.413   5.189   3.478  0.1939 -0.8365 -0.5548
19386TIP3    H179649   0.445   5.243   3.550 -4.6357  2.5302 -0.7188
19386TIP3    H279650   0.347   5.132   3.518 -0.7770 -0.6456 -1.8433
19387TIP3   OH279651   5.534   1.296  11.389 -0.9070  0.2322 -0.4022
19387TIP3    H179652   5.543   1.246  11.469 -1.0033  0.3916 -0.2911
19387TIP3    H279653   5.525   1.230  11.320 -1.6449  0.1053 -0.1845
19388TIP3   OH279654   2.643   0.736   3.935 -0.1547 -0.0968  0.4161
19388TIP3    H179655   2.639   0.641   3.945 -0.6620 -0.0242  0.9446
19388TIP3    H279656   2.712   0.751   3.870 -2.4777 -0.9852 -2.3304
19389TIP3   OH279657   6.106   6.001  13.378  0.5720 -0.3983 -0.3284
19389TIP3    H179658   6.102   6.087  13.419  2.0904  0.2567 -1.5090
19389TIP3    H279659   6.018   5.987  13.344 -0.1862 -0.1330  1.4965
19390TIP3   OH279660   0.251   0.573   0.526 -0.1090  0.4202 -0.4937
19390TIP3    H179661   0.289   0.496   0.484  1.1966  1.2854 -0.9126
19390TIP3    H279662   0.157   0.565   0.509 -0.4009 -2.6490  2.0636
19391TIP3   OH279663   0.694   4.346  10.431 -0.1439  0.0582  0.0448
19391TIP3    H179664   0.750   4.342  10.509  0.1430  0.9752 -0.1073
19391TIP3    H279665   0.608   4.318  10.462 -0.6489  2.7378  1.2709
19392TIP3   OH279666   2.371   0.184   4.104  0.2356  0.2934  0.6287
19392TIP3    H179667   2.345   0.107   4.155 -2.8545  0.5701 -0.4064
19392TIP3    H279668   2.466   0.184   4.107  0.2605 -2.9252  1.6059
19393TIP3   OH279669   5.280   2.345  14.255 -0.0268 -0.2533  0.0488
19393TIP3    H179670   5.275   2.418  14.193 -0.6212 -0.1291  0.2408
19393TIP3    H279671   5.261   2.384  14.340  1.4273 -0.3041  0.4140
19394TIP3   OH279672   3.045   2.764  12.292 -0.0666  0.0359 -0.6180
19394TIP3    H179673   3.014   2.806  12.212 -0.9924  2.6067  1.0055
19394TIP3    H279674   2.969   2.715  12.324 -0.1142  0.1158 -0.6098
19395TIP3   OH279675   3.474   4.077   5.565  0.6604  0.0419  0.7478
19395TIP3    H179676   3.438   4.138   5.500  1.7410 -0.0165  0.0703
19395TIP3    H279677   3.402   4.060   5.625 -0.9788 -1.4341 -1.5420
19396TIP3   OH279678   6.501   5.196  11.726  0.0418  0.0713 -0.2208
19396TIP3    H179679   6.579   5.250  11.737  2.1242 -2.7046 -0.6850
19396TIP3    H279680   6.489   5.190  11.631  0.4769 -1.0927 -0.2196
19397TIP3   OH279681   2.539   6.797  15.944 -0.0453  0.0916 -0.5582
19397TIP3    H179682   2.511   6.797  16.036 -1.1432  1.1858 -0.8860
19397TIP3    H279683   2.458   6.807  15.894  0.5768 -0.2371 -1.6343
19398TIP3   OH279684   3.357   5.831  16.700  0.5326  0.5374 -0.4867
19398TIP3    H179685   3.431   5.872  16.655  0.5011  0.9906 -0.1228
19398TIP3    H279686   3.304   5.904  16.731  0.1099  0.2146 -0.4480
19399TIP3   OH279687   1.596   1.417   3.768 -0.1776 -0.0856  0.2328
19399TIP3    H179688   1.669   1.358   3.787 -0.5952 -0.3229  1.1481
19399TIP3    H279689   1.632   1.505   3.781  0.3180 -0.1514 -0.6801
19400TIP3   OH279690   6.050   5.329   4.419 -0.4496  0.0223 -0.7741
19400TIP3    H179691   6.001   5.377   4.486  1.3979  0.4375  0.3212
19400TIP3    H279692   6.052   5.389   4.344 -1.8557 -0.1300 -0.9536
19401TIP3   OH279693   6.081   0.705   4.073  0.6743  0.0040  0.4222
19401TIP3    H179694   5.991   0.737   4.063  0.6003 -0.2837  0.1692
19401TIP3    H279695   6.133   0.784   4.089  0.8055  0.4868 -2.1836
19402TIP3   OH279696   5.600   2.536   1.044 -0.0041  0.6194 -0.6943
19402TIP3    H179697   5.624   2.443   1.044  1.0602  0.8718 -2.0119
19402TIP3    H279698   5.653   2.573   0.973 -1.4960  1.9526 -1.1144
19403TIP3   OH279699   6.231   4.550   1.849 -0.2216 -0.3607 -0.2771
19403TIP3    H179700   6.264   4.525   1.762 -0.2131  0.9284 -0.6520
19403TIP3    H279701   6.169   4.621   1.831 -1.1875 -0.9511  0.6639
19404TIP3   OH279702   3.265   0.119   6.362 -0.5651  0.2244 -0.4611
19404TIP3    H179703   3.208   0.180   6.315  0.1756  1.7389  0.5695
19404TIP3    H279704   3.222   0.105   6.446 -0.7839 -0.7711 -0.7316
19405TIP3   OH279705   5.614   0.184  15.923  0.0814 -0.2192 -0.3194
19405TIP3    H179706   5.560   0.119  15.878  1.0214 -0.1796 -1.5284
19405TIP3    H279707   5.702   0.147  15.924  0.3103  0.3273  0.4127
19406TIP3   OH279708   6.239   1.202   4.999  0.1545 -0.1115 -0.2501
19406TIP3    H179709   6.207   1.293   4.995  0.0465 -0.1836 -1.0934
19406TIP3    H279710   6.290   1.191   4.919  1.1285 -0.4431  0.4060
19407TIP3   OH279711   1.010   3.502  11.408 -0.2828 -0.0648  0.2104
19407TIP3    H179712   1.071   3.477  11.339 -0.8663 -0.1908 -0.2697
19407TIP3    H279713   0.926   3.512  11.363 -0.1920  2.1092  0.5107
19408TIP3   OH279714   3.150   3.959   2.200  0.2731  0.0419  0.4097
19408TIP3    H179715   3.203   4.037   2.181  0.3644 -0.0674  0.2113
19408TIP3    H279716   3.214   3.892   2.225  0.1618  0.1505  0.9940
19409TIP3   OH279717   0.842   3.538  12.303 -0.2634 -0.3598  0.3958
19409TIP3    H179718   0.780   3.519  12.374  0.6724 -2.1433  0.7622
19409TIP3    H279719   0.869   3.452  12.272  1.6337  0.4082 -0.1108
19410TIP3   OH279720   6.645   6.476   4.401  0.0431 -0.3780  0.2753
19410TIP3    H179721   6.615   6.515   4.484  1.1924  2.3333 -0.5285
19410TIP3    H279722   6.740   6.486   4.403 -0.0640  1.5283 -2.2092
19411TIP3   OH279723   4.967   3.552  14.535 -0.4552 -0.2314  0.2057
19411TIP3    H179724   4.909   3.476  14.540 -1.0763  0.2799  0.8901
19411TIP3    H279725   4.958   3.595  14.620  0.5654  0.1236  0.1449
19412TIP3   OH279726   6.749   1.130  15.827 -0.8132 -0.1901 -0.1163
19412TIP3    H179727   6.808   1.135  15.902 -1.4818 -1.9249  0.5568
19412TIP3    H279728   6.798   1.080  15.762 -1.7662 -2.2434  0.7021
19413TIP3   OH279729   4.344   3.709   1.058 -0.8779  0.3685 -0.4232
19413TIP3    H179730   4.258   3.677   1.088 -0.7018  2.1095  2.0082
19413TIP3    H279731   4.333   3.803   1.049  1.6539  1.1123  3.1525
19414TIP3   OH279732   5.741   2.036  11.152  0.0434 -0.1609 -0.6324
19414TIP3    H179733   5.781   2.119  11.175  0.8437 -0.0200 -2.4392
19414TIP3    H279734   5.799   1.970  11.189 -0.6062  0.0699  0.8258
19415TIP3   OH279735   3.417   0.678  11.665  0.3649 -0.4717  0.0516
19415TIP3    H179736   3.507   0.649  11.680  0.9606  0.9324 -0.5985
19415TIP3    H279737   3.364   0.630  11.728  2.0606  1.4468  3.0391
19416TIP3   OH279738   2.310   6.670  11.385 -0.3075 -0.2561 -0.0769
19416TIP3    H179739   2.264   6.687  11.303 -0.5619 -1.1705 -0.1218
19416TIP3    H279740   2.384   6.731  11.384 -1.2038  0.8353 -0.2458
19417TIP3   OH279741   3.160   5.869  11.390 -0.1098  0.3843  0.8015
19417TIP3    H179742   3.252   5.863  11.367 -0.5414 -1.0758 -0.6295
19417TIP3    H279743   3.140   5.786  11.433 -1.0721  0.0935 -0.1652
19418TIP3   OH279744   5.332   1.353   6.206  0.1624 -0.0114 -0.4930
19418TIP3    H179745   5.354   1.266   6.174  1.8474 -0.0310  0.6562
19418TIP3    H279746   5.257   1.339   6.264  0.4233 -0.6854 -0.3179
19419TIP3   OH279747   1.099   1.943  16.186 -0.1008 -1.0714 -0.4077
19419TIP3    H179748   1.118   1.862  16.233 -0.2718 -1.8732 -1.6948
19419TIP3    H279749   1.115   2.012  16.250  2.8923 -1.9439 -0.1322
19420TIP3   OH279750   6.655   2.823   3.302 -0.3620 -0.3518 -0.0884
19420TIP3    H179751   6.725   2.821   3.238  0.2112 -1.5264  0.5508
19420TIP3    H279752   6.612   2.738   3.294 -0.4139 -0.4345  0.9326
19421TIP3   OH279753   2.864   3.014   1.269 -0.1058 -0.0538  0.6661
19421TIP3    H179754   2.890   2.929   1.302 -0.1903 -0.7072 -0.8920
19421TIP3    H279755   2.769   3.017   1.281 -0.1313 -0.2707  0.5164
19422TIP3   OH279756   5.015   6.190   4.900  0.0080  0.3994  0.7571
19422TIP3    H179757   5.009   6.102   4.862  0.5925  0.6147  0.1660
19422TIP3    H279758   4.929   6.229   4.882  0.5548  0.8019 -1.1129
19423TIP3   OH279759   6.516   5.056   2.647 -0.0003 -0.4106  0.1285
19423TIP3    H179760   6.577   5.016   2.586  2.5015  2.7057  0.4388
19423TIP3    H279761   6.485   5.135   2.603  0.0633  0.6616  1.9148
19424TIP3   OH279762   4.511   2.239  11.064 -0.2549 -0.3826  0.4061
19424TIP3    H179763   4.421   2.262  11.086  0.1344  1.2992  0.3373
19424TIP3    H279764   4.510   2.222  10.970 -0.4506 -0.1019  0.3594
19425TIP3   OH279765   5.637   6.605  13.789 -0.3942 -0.1763  0.6185
19425TIP3    H179766   5.687   6.537  13.835 -1.3189 -1.0574  0.3292
19425TIP3    H279767   5.627   6.675  13.854 -0.7020 -0.9292  1.3928
19426TIP3   OH279768   6.691   4.748  11.156  0.2581  0.2559 -0.4383
19426TIP3    H179769   6.705   4.780  11.245 -0.0545  0.5258 -0.4830
19426TIP3    H279770   6.686   4.653  11.165  0.5681  0.2612 -0.2154
19427TIP3   OH279771   4.462   5.549   2.247 -0.2124  0.4170 -0.2770
19427TIP3    H179772   4.495   5.639   2.256  0.8118 -0.0833  1.1267
19427TIP3    H279773   4.399   5.554   2.175 -0.0391  2.2235 -0.3299
19428TIP3   OH279774   0.860   4.593  13.270 -0.1659 -0.1157  0.2670
19428TIP3    H179775   0.886   4.639  13.190 -2.9042 -0.8187 -1.1037
19428TIP3    H279776   0.887   4.502  13.255  1.1793  0.1542  1.0357
19429TIP3   OH279777   2.297   5.994  16.816 -0.4060 -0.0684 -0.6464
19429TIP3    H179778   2.364   6.050  16.777  0.6746 -0.4236  0.6685
19429TIP3    H279779   2.224   6.053  16.835  1.0493  1.1136  1.5384
19430TIP3   OH279780   2.182   0.586   3.722 -0.4902  0.7065 -0.7375
19430TIP3    H179781   2.204   0.589   3.815 -1.0672  1.1422 -0.6117
19430TIP3    H279782   2.143   0.671   3.704 -1.2644  0.2774 -1.1495
19431TIP3   OH279783   4.048   2.665   2.617  0.5500  0.5738 -0.5343
19431TIP3    H179784   4.044   2.608   2.694  0.5832  1.3422  0.0419
19431TIP3    H279785   3.988   2.625   2.555  1.0609 -0.4510 -0.3790
19432TIP3   OH279786   4.252   4.536   2.461 -0.1427 -0.4545 -0.4139
19432TIP3    H179787   4.342   4.570   2.469 -0.5774  0.3848  1.0976
19432TIP3    H279788   4.243   4.477   2.536 -0.6102 -1.1041 -0.9851
19433TIP3   OH279789   4.427   5.313  15.150 -0.1800 -0.0204 -0.1394
19433TIP3    H179790   4.472   5.372  15.089  0.7922  0.8071  1.3340
19433TIP3    H279791   4.392   5.371  15.217 -0.8121 -0.9662  0.3540
19434TIP3   OH279792   1.732   6.469   6.268 -0.2444  0.0128 -0.3164
19434TIP3    H179793   1.773   6.547   6.305  0.6978 -0.8611  0.5379
19434TIP3    H279794   1.640   6.475   6.293  0.1779 -0.0310  1.2895
19435TIP3   OH279795   6.261   1.511   0.014 -0.5482 -0.3357 -0.7671
19435TIP3    H179796   6.271   1.600  -0.018 -2.2967  0.5471  1.0254
19435TIP3    H279797   6.167   1.500   0.029 -0.3570 -2.4660 -0.9119
19436TIP3   OH279798   6.161   2.370  16.464 -0.1431 -0.0150  0.2571
19436TIP3    H179799   6.099   2.375  16.391  1.1891 -0.4393 -0.9395
19436TIP3    H279800   6.185   2.461  16.482  1.2258 -0.0175 -1.3708
19437TIP3   OH279801   1.448   1.013   4.088 -0.1981 -0.0400 -0.1136
19437TIP3    H179802   1.450   0.918   4.104 -0.6318  0.1657  1.1974
19437TIP3    H279803   1.540   1.039   4.094  0.0064 -0.4902 -1.2013
19438TIP3   OH279804   2.647   3.345  15.263  0.3291  0.2258 -0.7129
19438TIP3    H179805   2.580   3.298  15.213  0.6602 -0.5982 -0.3982
19438TIP3    H279806   2.616   3.341  15.353  1.6437 -1.6488 -0.3286
19439TIP3   OH279807   1.469   5.328  10.791 -0.0679  0.3607  0.0443
19439TIP3    H179808   1.458   5.285  10.707  0.6731  0.4196 -0.0840
19439TIP3    H279809   1.564   5.339  10.801 -0.2847  3.0516 -0.4923
19440TIP3   OH279810   5.372   0.240   0.722 -0.6599  0.2361  0.1249
19440TIP3    H179811   5.459   0.213   0.754 -0.8960 -0.5279  0.1478
19440TIP3    H279812   5.334   0.289   0.795 -0.3888  0.2566  0.2544
19441TIP3   OH279813   5.745   2.196  14.869 -0.6394 -0.4300 -0.6757
19441TIP3    H179814   5.779   2.264  14.927 -0.9084 -1.3551  0.5795
19441TIP3    H279815   5.672   2.238  14.823 -0.0277  0.4957 -0.8199
19442TIP3   OH279816   5.353   5.972   1.425  0.2769 -0.0402  0.0036
19442TIP3    H179817   5.301   5.951   1.347 -1.8023 -1.2405  1.6856
19442TIP3    H279818   5.422   5.905   1.426 -2.7549 -3.2517  2.0068
19443TIP3   OH279819   6.613   0.503  15.755  0.1057  0.2952 -0.6294
19443TIP3    H179820   6.648   0.529  15.840  2.9302 -2.3435 -0.9132
19443TIP3    H279821   6.520   0.485  15.772  0.1762  1.7053  1.4375
19444TIP3   OH279822   6.531   3.572   5.694  0.0111 -0.1497 -0.1731
19444TIP3    H179823   6.559   3.657   5.727 -0.1339 -0.8811  1.8722
19444TIP3    H279824   6.578   3.562   5.611  0.4588  1.6616 -0.1538
19445TIP3   OH279825   2.856   2.159  14.621 -0.2059 -0.2567 -0.4737
19445TIP3    H179826   2.914   2.086  14.598 -2.9106 -1.8195 -2.6228
19445TIP3    H279827   2.839   2.203  14.537 -0.2293  1.6277  0.5077
19446TIP3   OH279828   2.713   2.177  13.335  0.1714 -0.6372 -0.2024
19446TIP3    H179829   2.758   2.208  13.413 -0.1498 -2.8286  0.8940
19446TIP3    H279830   2.779   2.180  13.266  0.9928 -0.4809  0.5848
19447TIP3   OH279831   1.235   3.231  14.642 -0.6484 -0.1913 -0.1086
19447TIP3    H179832   1.289   3.299  14.683  1.2768 -0.5309 -1.9620
19447TIP3    H279833   1.277   3.149  14.667 -1.8096 -0.6044  0.5077
19448TIP3   OH279834   2.737   4.261  16.719  0.0982  0.3893  0.1406
19448TIP3    H179835   2.793   4.207  16.776 -0.9457 -1.5139 -0.5732
19448TIP3    H279836   2.724   4.207  16.641 -1.2731  1.5488 -0.4487
19449TIP3   OH279837   6.418   5.462  11.546  0.6839  0.5854  0.2331
19449TIP3    H179838   6.428   5.369  11.523 -0.8570  0.9453 -2.0752
19449TIP3    H279839   6.343   5.464  11.606  0.6975  0.3200  0.2582
19450TIP3   OH279840   3.766   1.479   6.236 -0.0539  0.6005 -0.0818
19450TIP3    H179841   3.769   1.419   6.310  0.3647 -0.2006 -0.7350
19450TIP3    H279842   3.804   1.429   6.163 -2.5674  0.5267 -1.4058
19451TIP3   OH279843   0.376   0.658   2.825 -0.3867  0.1876  0.3329
19451TIP3    H179844   0.419   0.632   2.744  1.4315 -0.1620  1.3923
19451TIP3    H279845   0.282   0.648   2.806  0.0095  0.0131 -1.6716
19452TIP3   OH279846   5.288   2.363  11.464  0.2395 -0.3522  0.2086
19452TIP3    H179847   5.263   2.294  11.403  1.9411  1.6612 -2.8923
19452TIP3    H279848   5.381   2.351  11.479  0.3989  0.8123  0.2449
19453TIP3   OH279849   5.872   5.972   2.405  0.3997  0.8607 -0.6333
19453TIP3    H179850   5.825   5.920   2.339 -2.6250  1.6650  0.8118
19453TIP3    H279851   5.852   5.928   2.488  1.3114  1.8677  0.1292
19454TIP3   OH279852   3.308   4.323  12.963  0.8632 -0.1402 -0.6080
19454TIP3    H179853   3.287   4.303  13.054 -0.0041 -0.1634 -0.8062
19454TIP3    H279854   3.284   4.415  12.953  1.5525  0.0345 -0.6409
19455TIP3   OH279855   0.412   0.646  16.303 -0.5532  0.1293 -0.0926
19455TIP3    H179856   0.492   0.684  16.265 -0.6365  3.4328  2.8370
19455TIP3    H279857   0.344   0.663  16.238  0.0665  2.2726 -0.2208
19456TIP3   OH279858   6.437   0.046  16.982 -0.4363  0.2911  0.5492
19456TIP3    H179859   6.458   0.013  17.069  0.4284 -0.1034  0.2042
19456TIP3    H279860   6.504   0.007  16.925 -1.3543  0.0507 -0.3848
19457TIP3   OH279861   1.964   6.072   4.787 -0.0533 -0.5477 -0.0831
19457TIP3    H179862   2.008   6.154   4.809 -0.4415 -0.7190  1.3988
19457TIP3    H279863   1.988   6.055   4.696 -0.7556  1.6995 -0.7011
19458TIP3   OH279864   3.330   6.083   0.901 -0.7024  0.3277 -0.5690
19458TIP3    H179865   3.353   6.176   0.896 -0.8154  0.5892  2.3586
19458TIP3    H279866   3.240   6.083   0.933  0.1715 -0.7407  2.0911
19459TIP3   OH279867   3.608   4.745  14.610 -0.2567 -0.8932  0.3807
19459TIP3    H179868   3.642   4.722  14.696  0.9251 -1.0034 -0.1088
19459TIP3    H279869   3.584   4.838  14.618  0.2196 -0.7967  0.7237
19460TIP3   OH279870   1.606   4.623  12.078  0.0096  0.4487 -0.4525
19460TIP3    H179871   1.563   4.705  12.103  2.9106  3.2541 -4.0971
19460TIP3    H279872   1.570   4.602  11.992  0.6702 -1.1632 -0.3620
19461TIP3   OH279873   1.861   0.725   4.294 -0.5326  0.1179 -0.6218
19461TIP3    H179874   1.780   0.714   4.245 -0.5382  1.2911 -0.8878
19461TIP3    H279875   1.922   0.663   4.254 -0.9418  0.1034 -1.2185
19462TIP3   OH279876   5.582   4.775   5.718  0.0742  0.1939 -0.4074
19462TIP3    H179877   5.568   4.869   5.702  1.2199  0.6364  1.0497
19462TIP3    H279878   5.577   4.767   5.813 -0.4305 -1.3082 -0.5566
19463TIP3   OH279879   1.377   3.556   4.545 -0.0050  0.4590 -0.0269
19463TIP3    H179880   1.300   3.608   4.570  0.1616  0.1081  1.2672
19463TIP3    H279881   1.435   3.561   4.622  0.4938 -0.7158 -0.3202
19464TIP3   OH279882   2.286   2.782  16.413  0.0091 -0.2002  0.4067
19464TIP3    H179883   2.192   2.764  16.420  0.4048 -1.6329  2.4143
19464TIP3    H279884   2.327   2.720  16.473  2.4370 -0.9823 -1.9719
19465TIP3   OH279885   0.051   3.823   5.618 -0.2178  0.8692 -0.1895
19465TIP3    H179886   0.061   3.884   5.545 -0.1822  1.7658  0.5471
19465TIP3    H279887   0.065   3.736   5.580 -0.5851  1.2985 -1.3174
19466TIP3   OH279888   5.552   1.811  12.058 -0.6353 -0.1778 -0.7608
19466TIP3    H179889   5.476   1.779  12.106  0.3410  0.3100  1.2012
19466TIP3    H279890   5.613   1.737  12.058 -0.2429  0.1381 -0.3491
19467TIP3   OH279891   2.383   3.161  13.545 -0.0666 -0.1509  0.3742
19467TIP3    H179892   2.366   3.164  13.451 -0.8337  1.1512  0.5426
19467TIP3    H279893   2.299   3.134  13.583  0.0049  0.1549  0.7476
19468TIP3   OH279894   5.934   4.662   4.182  0.2380 -0.2331 -0.1056
19468TIP3    H179895   6.004   4.699   4.129  1.0557  0.5486  1.4867
19468TIP3    H279896   5.859   4.720   4.165  0.7298  0.5143  0.2217
19469TIP3   OH279897   6.188   3.691   0.798  0.0365 -0.2595 -0.2428
19469TIP3    H179898   6.132   3.616   0.817  0.9237 -1.0165 -0.5927
19469TIP3    H279899   6.126   3.762   0.779 -0.8471 -0.1750  2.7035
19470TIP3   OH279900   3.209   3.655  15.522  0.2065 -0.3827 -0.1981
19470TIP3    H179901   3.203   3.740  15.565  0.6831 -0.4614  0.0239
19470TIP3    H279902   3.283   3.611  15.564  1.3009 -0.0919 -1.7452
19471TIP3   OH279903   5.521   4.767  12.516  0.6696 -0.1526  0.4610
19471TIP3    H179904   5.501   4.808  12.432 -0.0102 -1.4825 -0.0474
19471TIP3    H279905   5.505   4.835  12.581  0.8688  0.7823 -0.4593
19472TIP3   OH279906   2.793   5.132  16.480 -0.4696 -0.1909  0.4458
19472TIP3    H179907   2.867   5.176  16.522 -0.4573  0.1532  0.0652
19472TIP3    H279908   2.786   5.048  16.526  1.1005 -0.8725 -0.4963
19473TIP3   OH279909   5.474   1.251  16.584  0.3609  0.1309  0.6328
19473TIP3    H179910   5.519   1.272  16.502 -0.3084 -1.2328 -0.0990
19473TIP3    H279911   5.399   1.311  16.585 -0.4358 -0.8226 -0.4743
19474TIP3   OH279912   0.063   2.187   2.945 -0.0557  0.0878  0.3602
19474TIP3    H179913   0.008   2.131   3.000  1.0487 -1.1321  0.2580
19474TIP3    H279914   0.118   2.234   3.008 -1.4636  1.6195  0.4864
19475TIP3   OH279915   4.623   3.228  14.223 -0.5970 -0.0739  0.1835
19475TIP3    H179916   4.606   3.135  14.209 -2.0649  0.3104 -0.6835
19475TIP3    H279917   4.601   3.243  14.315 -0.1484 -0.6151  0.3831
19476TIP3   OH279918   6.557   2.446  16.950 -0.5469  0.3093 -0.1783
19476TIP3    H179919   6.537   2.375  16.889 -0.0978 -0.1511  0.2024
19476TIP3    H279920   6.482   2.449  17.009 -0.4412 -0.0353 -0.0264
19477TIP3   OH279921   1.740   2.028   1.967 -0.0930  0.1963  0.6281
19477TIP3    H179922   1.798   1.997   1.898 -1.7613  0.3915 -0.9173
19477TIP3    H279923   1.658   1.980   1.952 -1.1885  1.8892  1.0983
19478TIP3   OH279924   4.946   0.641   4.871  0.5416 -0.2539  0.2322
19478TIP3    H179925   4.976   0.559   4.832  1.0402  0.4804 -0.9898
19478TIP3    H279926   4.874   0.616   4.928 -1.3664 -1.2298 -2.4674
19479TIP3   OH279927   3.822   0.322  13.150 -0.5897 -0.4708 -0.0527
19479TIP3    H179928   3.742   0.366  13.178  0.1942 -0.0209  1.5128
19479TIP3    H279929   3.865   0.295  13.231  0.7375 -0.9049 -0.8780
19480TIP3   OH279930   4.229   5.329  14.788 -0.0557  0.4463 -0.1060
19480TIP3    H179931   4.207   5.315  14.881  2.4168 -1.1795  0.2744
19480TIP3    H279932   4.307   5.383  14.790  1.5654 -1.7765 -1.1383
19481TIP3   OH279933   1.050   5.032   5.613  0.5791  0.7069 -0.4921
19481TIP3    H179934   1.112   5.098   5.641  1.3573  0.7056 -2.1934
19481TIP3    H279935   1.013   5.065   5.532 -1.2900  0.4732  0.2316
19482TIP3   OH279936   5.646   1.938   0.486 -0.5746 -0.0199 -0.1106
19482TIP3    H179937   5.713   1.938   0.554 -0.3139 -1.8903 -0.3206
19482TIP3    H279938   5.646   1.848   0.452 -0.9892  0.7660 -2.3052
19483TIP3   OH279939   5.820   4.772   2.691  0.0645 -0.4134 -0.1455
19483TIP3    H179940   5.910   4.802   2.678 -0.0070  0.6296  1.5305
19483TIP3    H279941   5.775   4.790   2.609  0.9071  0.8758 -0.3324
19484TIP3   OH279942   6.339   3.301   2.119 -0.1542  0.3415  0.4338
19484TIP3    H179943   6.340   3.261   2.206 -2.0479  0.4426  0.5376
19484TIP3    H279944   6.349   3.395   2.135 -1.7427  0.4903  0.6645
19485TIP3   OH279945   2.528   1.964   3.103  0.0406  0.2426  0.8161
19485TIP3    H179946   2.572   1.880   3.120 -1.4177 -0.7071 -0.0458
19485TIP3    H279947   2.591   2.013   3.050 -0.5961 -1.8168 -1.9646
19486TIP3   OH279948   0.035   0.023  13.782 -0.2395 -0.2086 -0.6082
19486TIP3    H179949   0.042   0.086  13.854 -1.6817 -1.0428  0.2819
19486TIP3    H279950  -0.010   0.072  13.712  0.1251  0.2429 -0.5335
19487TIP3   OH279951   5.183   3.396  14.487 -1.1472 -0.0835  0.3018
19487TIP3    H179952   5.122   3.460  14.523 -1.4765 -0.8862  1.2100
19487TIP3    H279953   5.229   3.442  14.417 -0.3866  1.5577  1.8636
19488TIP3   OH279954   6.540   5.595   1.626 -0.2910  0.1507 -0.9543
19488TIP3    H179955   6.486   5.516   1.626 -0.9437  0.5657 -3.3112
19488TIP3    H279956   6.514   5.642   1.546  0.9376  2.1594 -0.2051
19489TIP3   OH279957   0.483   1.771   5.058  0.4011 -0.6388 -0.2983
19489TIP3    H179958   0.453   1.817   5.136 -0.3434  0.5859 -1.2991
19489TIP3    H279959   0.518   1.840   5.002 -3.0303 -0.8943 -2.8944
19490TIP3   OH279960   5.516   2.748   2.001  0.7299  0.5417 -0.3953
19490TIP3    H179961   5.522   2.652   2.009  0.9109  0.7113  1.7750
19490TIP3    H279962   5.496   2.763   1.908 -2.3669 -1.7439 -0.1843
19491TIP3   OH279963   4.938   5.370   3.382 -0.3741  0.3796 -0.3695
19491TIP3    H179964   5.020   5.419   3.374 -1.5392  2.3953 -0.1812
19491TIP3    H279965   4.924   5.333   3.295  0.4192  0.5299 -0.5677
19492TIP3   OH279966   0.166   6.347   4.644 -0.0853  0.4155 -0.0409
19492TIP3    H179967   0.095   6.297   4.605  1.6421 -2.0741 -0.1089
19492TIP3    H279968   0.173   6.426   4.590 -1.8035 -0.0275 -0.9224
19493TIP3   OH279969   1.765   3.876   6.336 -0.0184 -0.3084 -0.6749
19493TIP3    H179970   1.818   3.864   6.257 -2.2394 -0.4939 -2.2089
19493TIP3    H279971   1.725   3.791   6.351 -0.7178  0.1006 -0.1891
19494TIP3   OH279972   6.322   3.103  11.779 -0.3324  0.6182 -0.7442
19494TIP3    H179973   6.370   3.147  11.849  0.1594 -0.1328 -0.6099
19494TIP3    H279974   6.391   3.069  11.721 -0.6818 -1.1592 -0.1320
19495TIP3   OH279975   1.614   3.567   5.401 -0.3065 -0.2592  1.2013
19495TIP3    H179976   1.631   3.649   5.449  1.1024 -0.3417  0.8690
19495TIP3    H279977   1.670   3.502   5.444  1.2919 -0.2432 -0.7840
19496TIP3   OH279978   0.071   4.552  15.046 -0.1308  0.3424 -0.3383
19496TIP3    H179979   0.035   4.464  15.057  0.8588 -0.5295 -3.5772
19496TIP3    H279980   0.159   4.538  15.011  0.4736  2.6224  0.1660
19497TIP3   OH279981   4.804   0.129   5.672  0.6875 -0.2996  0.6737
19497TIP3    H179982   4.811   0.146   5.578  2.0037  0.4624  0.9042
19497TIP3    H279983   4.743   0.055   5.678 -1.9929  1.7236 -0.5913
19498TIP3   OH279984   4.832   1.155   5.005 -0.1403  0.0368 -0.0695
19498TIP3    H179985   4.768   1.151   4.934  0.0435  2.6474 -0.4293
19498TIP3    H279986   4.915   1.177   4.963  0.1837  0.5601  0.8212
19499TIP3   OH279987   2.677   2.035   3.377 -0.0694 -0.1275 -0.0539
19499TIP3    H179988   2.724   2.051   3.459 -0.4906  1.1181 -0.0479
19499TIP3    H279989   2.743   2.046   3.309  0.3414 -1.4133  0.1104
19500TIP3   OH279990   5.641   6.606  12.254  0.2347  0.6025  0.1430
19500TIP3    H179991   5.677   6.528  12.296  2.1899 -0.1177 -2.7414
19500TIP3    H279992   5.692   6.678  12.291  1.6707  0.0175 -0.6642
19501TIP3   OH279993   3.326   2.959   4.633  0.3119 -0.1869  0.4247
19501TIP3    H179994   3.409   2.960   4.585 -0.1942  0.7115 -0.4489
19501TIP3    H279995   3.259   2.972   4.566 -0.2873  3.4404  1.6048
19502TIP3   OH279996   1.358   5.901  11.301 -0.2215  0.1424  0.4349
19502TIP3    H179997   1.396   5.955  11.231 -0.9453  0.3372  0.1909
19502TIP3    H279998   1.278   5.866  11.263  0.1600 -0.9839  0.6462
19503TIP3   OH279999   3.842   5.278  15.261 -0.4233  0.0005  0.0288
19503TIP3    H180000   3.796   5.209  15.214  0.1147 -1.3496  1.4417
19503TIP3    H280001   3.892   5.232  15.329  1.5230  1.5886 -0.2665
19504TIP3   OH280002   3.338   1.998  14.620 -0.1430  0.2290 -0.1458
19504TIP3    H180003   3.353   1.914  14.576 -0.5849  0.2476 -0.3276
19504TIP3    H280004   3.409   2.004  14.684 -0.7849 -0.8348  0.6815
19505TIP3   OH280005   2.202   6.203   0.843  0.0929  0.5342  0.3965
19505TIP3    H180006   2.254   6.279   0.866 -0.4450  1.0527 -0.0942
19505TIP3    H280007   2.258   6.152   0.784  0.1982  0.8829  0.1952
19506TIP3   OH280008   4.556   5.101  11.548  0.8518 -0.1007  0.2443
19506TIP3    H180009   4.627   5.131  11.491 -1.6989  3.9057 -1.1040
19506TIP3    H280010   4.507   5.038  11.495  0.3250  1.2224 -0.8779
19507TIP3   OH280011   1.577   0.599   3.842  0.0046  0.5463 -0.0632
19507TIP3    H180012   1.531   0.520   3.814  0.8685 -0.0473  0.1780
19507TIP3    H280013   1.597   0.646   3.761 -0.1515  0.3177 -0.2325
19508TIP3   OH280014   4.850   2.069  12.284 -0.1268 -0.1091 -0.2995
19508TIP3    H180015   4.800   2.121  12.347 -0.5399  1.3587 -1.7906
19508TIP3    H280016   4.783   2.023  12.233  0.0363  1.2833 -1.8127
19509TIP3   OH280017   0.445   3.562  11.637 -0.1810 -0.3809  0.1228
19509TIP3    H180018   0.431   3.498  11.567  0.3068  2.1465 -2.3626
19509TIP3    H280019   0.365   3.558  11.689 -1.4569 -0.8242 -1.8241
19510TIP3   OH280020   6.028   0.808   4.370  0.1101 -0.2607 -0.2594
19510TIP3    H180021   6.088   0.882   4.370 -0.8519  0.5944  2.4345
19510TIP3    H280022   6.070   0.743   4.426 -0.2125 -0.7710 -0.5998
19511TIP3   OH280023   5.825   4.283   5.518  0.8276 -0.4809 -0.0832
19511TIP3    H180024   5.905   4.311   5.475  1.1617 -0.3150  0.6441
19511TIP3    H280025   5.762   4.270   5.447  1.5183 -0.6733 -0.6573
19512TIP3   OH280026   3.049   6.643  15.041 -0.3698 -0.0203  0.9227
19512TIP3    H180027   2.977   6.586  15.015  1.3767 -0.7558 -2.7544
19512TIP3    H280028   3.036   6.658  15.134 -3.8900 -2.0621  0.8468
19513TIP3   OH280029   2.238   4.829   4.902  0.5041  0.0565  0.4897
19513TIP3    H180030   2.210   4.919   4.919  0.5078  0.2574 -0.5615
19513TIP3    H280031   2.164   4.789   4.857  1.0957 -0.0204 -0.4237
19514TIP3   OH280032   5.458   3.501   0.288  0.1452  0.0030  0.4754
19514TIP3    H180033   5.440   3.466   0.375  1.5981  0.3780  0.9397
19514TIP3    H280034   5.443   3.426   0.229 -1.1304 -0.1687  1.0011
19515TIP3   OH280035   4.633   2.207  11.403  0.0224 -0.3856 -0.0383
19515TIP3    H180036   4.719   2.229  11.438  0.6254 -1.6697 -0.6851
19515TIP3    H280037   4.649   2.133  11.344 -1.4549 -0.3456 -0.5109
19516TIP3   OH280038   5.137   4.009  15.540 -0.2389 -0.5619 -0.1028
19516TIP3    H180039   5.115   3.952  15.467  1.6354  0.8659 -1.8627
19516TIP3    H280040   5.159   4.093  15.499 -2.2910  1.2695  2.3466
19517TIP3   OH280041   1.307   2.951   4.141 -0.5256 -0.5216 -0.1065
19517TIP3    H180042   1.238   2.992   4.090  0.3509  0.6260 -0.3996
19517TIP3    H280043   1.264   2.923   4.222 -1.5808 -0.9268 -0.8035
19518TIP3   OH280044   2.037   4.372  11.328 -0.1698  0.0559 -0.0741
19518TIP3    H180045   1.956   4.366  11.279 -0.7541  0.6533  0.7995
19518TIP3    H280046   2.014   4.422  11.407  0.6539 -1.2390  1.0041
19519TIP3   OH280047   6.385   3.985   1.405 -0.3600 -0.2240 -0.2185
19519TIP3    H180048   6.362   3.893   1.412 -1.0304  0.0442  1.2899
19519TIP3    H280049   6.305   4.028   1.372 -0.5873  0.0538  0.6859
19520TIP3   OH280050   0.515   3.377   2.501  0.0909  0.0666  0.1708
19520TIP3    H180051   0.439   3.430   2.525  1.2549  2.5101 -1.3758
19520TIP3    H280052   0.548   3.343   2.584 -1.8998  0.0607  0.9899
19521TIP3   OH280053   3.513   5.682   3.423 -0.2054 -0.6579 -0.0477
19521TIP3    H180054   3.453   5.712   3.355  0.1993 -0.0152 -0.1279
19521TIP3    H280055   3.599   5.712   3.394  0.2029 -1.8627 -0.0917
19522TIP3   OH280056   4.209   3.654  15.312  0.1882 -0.6975 -0.0164
19522TIP3    H180057   4.277   3.628  15.375  1.2655  0.0404 -0.8382
19522TIP3    H280058   4.194   3.746  15.330 -1.1589 -1.0316  0.6477
19523TIP3   OH280059   2.548   2.769  14.532  0.1601 -0.4746 -0.6008
19523TIP3    H180060   2.560   2.709  14.459 -0.2346 -1.2166 -0.0604
19523TIP3    H280061   2.633   2.768  14.578  0.5387  0.3033 -1.2801
19524TIP3   OH280062   5.100   5.712  12.239  0.1983  0.6421 -0.2996
19524TIP3    H180063   5.134   5.731  12.327  0.4946  1.4284 -0.5806
19524TIP3    H280064   5.140   5.628  12.216 -0.4653  0.0616  0.6121
19525TIP3   OH280065   0.134   6.247   3.794  0.4382  0.0162  0.3511
19525TIP3    H180066   0.092   6.222   3.877  0.3417  0.4011  0.4200
19525TIP3    H280067   0.197   6.177   3.777  0.5937  0.0320  0.8506
19526TIP3   OH280068   0.913   0.987   5.813 -0.2478 -0.2150 -0.4805
19526TIP3    H180069   0.956   1.053   5.758  0.5883  0.3920  0.8843
19526TIP3    H280070   0.982   0.956   5.872 -1.2086 -0.6383  0.4304
19527TIP3   OH280071   4.428   1.554  13.920  0.2012 -0.2516 -0.3539
19527TIP3    H180072   4.425   1.631  13.976  0.7408 -0.1038 -0.5225
19527TIP3    H280073   4.411   1.481  13.979 -0.9840  0.0489 -0.3126
19528TIP3   OH280074   2.317   5.808   3.961  0.3626  0.2857  0.4590
19528TIP3    H180075   2.285   5.876   3.902 -0.2785 -2.1565 -2.1544
19528TIP3    H280076   2.298   5.726   3.915  0.9322 -1.6817  3.5749
19529TIP3   OH280077   3.812   3.292   5.539  0.1362 -0.0833 -0.2213
19529TIP3    H180078   3.898   3.250   5.541 -0.5929 -1.5526  0.7382
19529TIP3    H280079   3.764   3.245   5.471 -0.9469 -1.3706  1.3951
19530TIP3   OH280080   4.823   6.762  14.233 -0.1299 -0.5937 -0.1796
19530TIP3    H180081   4.807   6.758  14.138  0.5135  0.1485 -0.3234
19530TIP3    H280082   4.862   6.677  14.255 -1.6765 -1.3611 -0.3092
19531TIP3   OH280083   1.861   4.797   6.027 -0.1438  0.3400 -0.0400
19531TIP3    H180084   1.947   4.766   6.056  0.6717  1.1853 -1.4960
19531TIP3    H280085   1.818   4.828   6.107  0.2919 -1.4844  0.9312
19532TIP3   OH280086   5.130   5.796  11.298  0.0390 -0.1814  0.2242
19532TIP3    H180087   5.138   5.772  11.390 -0.9567  1.6426  0.8082
19532TIP3    H280088   5.215   5.837  11.277  0.2691 -0.6030  0.3244
19533TIP3   OH280089   0.997   4.793  15.711  0.1093 -0.1432 -0.2084
19533TIP3    H180090   0.904   4.775  15.725  0.1785  0.4770  1.1977
19533TIP3    H280091   1.037   4.707  15.697 -0.6609 -0.4205 -0.6824
19534TIP3   OH280092   6.441   2.808  12.368 -0.3504 -0.1465  0.2417
19534TIP3    H180093   6.438   2.899  12.339  0.9749  0.5115  2.0691
19534TIP3    H280094   6.531   2.794  12.396 -1.2909 -0.9727  3.1023
19535TIP3   OH280095   4.106   1.594  14.766 -0.0587 -0.0938 -0.1419
19535TIP3    H180096   4.100   1.635  14.680  1.1308 -0.9409 -0.6385
19535TIP3    H280097   4.196   1.563  14.772 -0.0030  0.3444  1.5951
19536TIP3   OH280098   6.372   2.959   4.310 -0.3303  0.1254 -0.7599
19536TIP3    H180099   6.429   2.888   4.282 -0.5974 -0.3091 -0.2139
19536TIP3    H280100   6.419   3.001   4.382  0.4828  1.4178 -2.0205
19537TIP3   OH280101   6.616   3.463  15.392  0.1749 -0.1090  0.6521
19537TIP3    H180102   6.668   3.534  15.353  0.1464  1.0074  2.5674
19537TIP3    H280103   6.566   3.506  15.461  0.3355 -2.0373  1.9980
19538TIP3   OH280104   3.764   5.482   3.596 -0.0476  0.4827  0.6573
19538TIP3    H180105   3.769   5.547   3.667 -0.2349  2.8136 -1.3730
19538TIP3    H280106   3.839   5.503   3.540 -1.3645  0.3470 -1.1703
19539TIP3   OH280107   0.829   2.445   3.115 -0.2024 -0.7568  0.1836
19539TIP3    H180108   0.824   2.394   3.034  0.4773  1.9548 -1.6181
19539TIP3    H280109   0.772   2.520   3.100  0.4027  0.1050  2.0078
19540TIP3   OH280110   5.073   2.219  15.265 -0.0786 -0.0899 -0.2760
19540TIP3    H180111   5.157   2.246  15.302 -0.3570  1.3547 -0.6515
19540TIP3    H280112   5.013   2.220  15.339  0.0390 -0.2329 -0.1787
19541TIP3   OH280113   3.475   3.799  15.192 -0.4642 -0.1689 -0.1269
19541TIP3    H180114   3.497   3.781  15.100  3.1866 -1.1119  0.8661
19541TIP3    H280115   3.525   3.878  15.213 -2.2689  0.7800  0.7577
19542TIP3   OH280116   2.283   2.363   2.424 -0.4031  0.5938 -0.7559
19542TIP3    H180117   2.294   2.328   2.336  0.2380  0.7298 -0.7306
19542TIP3    H280118   2.192   2.344   2.446  0.6178 -3.4800  0.3217
19543TIP3   OH280119   0.640   3.477  12.479  0.3391 -0.0215  0.2828
19543TIP3    H180120   0.581   3.552  12.481 -0.0007 -0.2753 -0.3597
19543TIP3    H280121   0.685   3.480  12.564  1.2762  1.6642 -0.2433
19544TIP3   OH280122   2.120   3.485   1.578 -0.3488  0.9682  0.8967
19544TIP3    H180123   2.174   3.489   1.499 -1.9424 -0.4193 -0.3108
19544TIP3    H280124   2.168   3.538   1.642  1.7370  0.8967 -0.5271
19545TIP3   OH280125   5.249   2.210   4.684 -0.0100 -0.1134  0.0269
19545TIP3    H180126   5.165   2.180   4.650 -0.4317  0.8841  0.1602
19545TIP3    H280127   5.227   2.262   4.761  0.6713  0.6702 -0.2899
19546TIP3   OH280128   0.147   1.945  14.672  0.3926 -0.0109  0.4557
19546TIP3    H180129   0.231   1.978  14.704  0.5433 -0.3919  0.4557
19546TIP3    H280130   0.163   1.853  14.652 -0.4810 -0.5487  2.1161
19547TIP3   OH280131   1.025   5.825  15.381 -0.4155  0.4832 -0.4598
19547TIP3    H180132   0.952   5.814  15.441  1.7750  0.3083  2.2932
19547TIP3    H280133   1.050   5.735  15.356  0.9228  0.3316  1.2821
19548TIP3   OH280134   1.680   4.056  12.336  0.1787  0.2677  1.0570
19548TIP3    H180135   1.775   4.043  12.344 -0.2916 -2.5284  2.5377
19548TIP3    H280136   1.660   4.028  12.246  0.9311  2.2617  0.2391
19549TIP3   OH280137   1.809   6.246  11.402  0.1584  0.1318  0.3243
19549TIP3    H180138   1.805   6.338  11.430 -0.9529  0.0711  0.4136
19549TIP3    H280139   1.874   6.207  11.460 -0.8251  0.4210  1.6711
19550TIP3   OH280140   6.519   5.290  14.021  0.0016 -0.1199 -0.1279
19550TIP3    H180141   6.538   5.199  13.996 -1.2781 -0.5399  0.3977
19550TIP3    H280142   6.448   5.317  13.963  0.2603  0.5000 -0.1637
19551TIP3   OH280143   2.496   0.844  14.733 -0.4374 -0.0811  0.4535
19551TIP3    H180144   2.547   0.887  14.802 -0.9454 -0.7139  1.2442
19551TIP3    H280145   2.559   0.830  14.662  0.2285  0.0975  0.9965
19552TIP3   OH280146   1.650   2.147  16.997 -0.4884  0.2291  0.4964
19552TIP3    H180147   1.695   2.226  16.969  2.2546 -1.9922 -1.6297
19552TIP3    H280148   1.601   2.118  16.920 -1.9246  0.0787  1.4260
19553TIP3   OH280149   2.377   0.215   2.033  0.2247 -0.0074 -0.2578
19553TIP3    H180150   2.358   0.251   1.946 -0.2442 -1.0236 -0.5836
19553TIP3    H280151   2.451   0.267   2.064 -0.0897  0.8735 -0.9412
19554TIP3   OH280152   1.068   0.227   4.907 -0.5714 -0.0912 -0.1401
19554TIP3    H180153   1.045   0.313   4.941 -0.4381 -0.0595 -0.1311
19554TIP3    H280154   1.010   0.215   4.832 -0.3740  0.1369 -0.3273
19555TIP3   OH280155   2.571   1.679   0.017  0.5130  0.1912 -0.6891
19555TIP3    H180156   2.571   1.590   0.053 -1.2034  0.2268 -0.5778
19555TIP3    H280157   2.633   1.675  -0.056  2.4768 -0.3959  0.9472
19556TIP3   OH280158   0.035   1.665  14.037  0.0131  0.2021 -0.1002
19556TIP3    H180159   0.102   1.709  14.089  0.9823 -0.8435 -0.4398
19556TIP3    H280160   0.009   1.589  14.090 -1.2714  0.8776  0.2520
19557TIP3   OH280161   1.768   1.014  16.529  0.0337 -0.5513  0.0285
19557TIP3    H180162   1.723   1.072  16.468 -1.9370 -1.8980  0.1701
19557TIP3    H280163   1.784   1.069  16.606 -0.6947  0.1579 -0.3091
19558TIP3   OH280164   4.956   4.636   0.815  0.3233  0.2473 -0.9729
19558TIP3    H180165   4.881   4.606   0.867 -1.1407  1.8304 -2.0871
19558TIP3    H280166   5.029   4.582   0.844 -0.9683 -0.4752  1.0717
19559TIP3   OH280167   4.812   4.951  10.492  0.1813  0.3359  0.0505
19559TIP3    H180168   4.792   4.879  10.432 -1.0420  0.6154  0.1198
19559TIP3    H280169   4.743   4.948  10.558  0.7890  0.8432  0.7200
19560TIP3   OH280170   1.570   1.727  14.852  0.0914 -0.3614  0.0994
19560TIP3    H180171   1.482   1.705  14.822  1.0316 -0.8085 -2.4670
19560TIP3    H280172   1.628   1.691  14.785  2.1829  0.8955  1.1676
19561TIP3   OH280173   5.515   2.542  16.653 -0.6275 -0.1719  0.3595
19561TIP3    H180174   5.571   2.506  16.584  3.1731  1.6512  2.3291
19561TIP3    H280175   5.478   2.622  16.614  1.9286  1.1432  0.5617
19562TIP3   OH280176   4.829   4.457   1.365 -0.2185 -0.2723 -0.0628
19562TIP3    H180177   4.764   4.389   1.383  0.6959 -1.1657 -0.0762
19562TIP3    H280178   4.781   4.524   1.317 -0.6344 -1.9721 -2.0911
19563TIP3   OH280179   4.586   3.746  12.383 -0.9387  0.0722 -0.2382
19563TIP3    H180180   4.571   3.716  12.472 -0.4013  1.0253  0.1914
19563TIP3    H280181   4.593   3.841  12.391  0.1746  0.0788 -1.1371
19564TIP3   OH280182   5.319   4.684   4.498 -0.4217 -0.4237  0.4212
19564TIP3    H180183   5.378   4.613   4.524 -2.2117 -1.7754  0.8913
19564TIP3    H280184   5.324   4.748   4.569  0.4153 -0.5571  0.4831
19565TIP3   OH280185   5.811   3.236  11.846  0.0020  0.2801  0.4132
19565TIP3    H180186   5.754   3.163  11.869 -0.0812 -0.2198 -1.2902
19565TIP3    H280187   5.896   3.214  11.882 -0.2245 -0.2665  0.6075
19566TIP3   OH280188   0.764   0.420   3.224 -0.1471  0.2750 -0.0247
19566TIP3    H180189   0.787   0.397   3.314 -1.8763  0.8180  0.5827
19566TIP3    H280190   0.809   0.503   3.208 -0.8713  0.8422  0.8136
19567TIP3   OH280191   5.290   3.285   2.992  0.1221  0.1464 -0.1845
19567TIP3    H180192   5.253   3.248   3.072  2.1874 -3.4678 -0.7821
19567TIP3    H280193   5.382   3.258   2.993  0.9548  2.7264 -2.2494
19568TIP3   OH280194   1.001   6.167   3.192 -0.4155  0.1506 -0.6301
19568TIP3    H180195   0.972   6.239   3.136 -1.4290 -0.1917 -0.5538
19568TIP3    H280196   0.921   6.120   3.215 -0.1106  0.7504  1.7700
19569TIP3   OH280197   6.147   4.102   1.337  0.2910 -0.2470 -0.0324
19569TIP3    H180198   6.080   4.105   1.406  0.1702  0.6177 -0.1815
19569TIP3    H280199   6.191   4.186   1.343  1.7632 -1.0380  0.4345
19570TIP3   OH280200   2.378   1.177   0.918 -0.1648  0.0661 -0.1016
19570TIP3    H180201   2.373   1.120   0.995  0.7605  1.0043  0.6771
19570TIP3    H280202   2.455   1.231   0.934 -1.2112  1.7641 -0.6587
19571TIP3   OH280203   4.395   4.035  11.525  0.5360 -0.4208 -0.0353
19571TIP3    H180204   4.433   4.120  11.503  0.7577 -0.7086 -0.7812
19571TIP3    H280205   4.439   3.973  11.467 -0.3336 -0.9026 -0.1913
19572TIP3   OH280206   2.236   4.840   4.032 -0.1900 -0.2148 -1.0270
19572TIP3    H180207   2.177   4.765   4.041  1.4555 -1.3797  0.4516
19572TIP3    H280208   2.302   4.811   3.969 -0.4379  0.5977 -1.6673
19573TIP3   OH280209   1.600   0.014   1.604 -0.5105 -0.0780  0.4137
19573TIP3    H180210   1.613   0.088   1.545 -1.1758  0.0857  0.4646
19573TIP3    H280211   1.680  -0.038   1.596 -0.2489  0.3858  0.0047
19574TIP3   OH280212   0.008   0.146   2.619 -0.6763  0.1060  0.3843
19574TIP3    H180213  -0.058   0.191   2.567 -0.9118 -0.8171 -0.1315
19574TIP3    H280214   0.066   0.106   2.555  0.7968  1.4834  0.8379
19575TIP3   OH280215   2.392   2.868  11.458 -0.1668  0.4027  0.7601
19575TIP3    H180216   2.339   2.835  11.385 -1.6402  1.4875  1.3148
19575TIP3    H280217   2.328   2.896  11.523  1.0749  2.5852  1.0802
19576TIP3   OH280218   2.116   2.063   5.123  0.4077 -0.0949  0.0128
19576TIP3    H180219   2.149   1.974   5.111 -1.2315 -0.7151 -0.0824
19576TIP3    H280220   2.027   2.051   5.156  0.9566  1.5398  2.1389
19577TIP3   OH280221   4.667   3.695   5.919  0.3275 -0.1710 -0.2996
19577TIP3    H180222   4.680   3.757   5.847 -0.4096 -0.7123 -0.9177
19577TIP3    H280223   4.747   3.644   5.922  0.5003  0.0876 -0.5053
19578TIP3   OH280224   6.301   2.512  10.759 -0.0447 -0.3470 -0.1957
19578TIP3    H180225   6.256   2.584  10.802  0.1268 -0.5016  0.2557
19578TIP3    H280226   6.394   2.538  10.760  0.3351 -1.6013  2.0964
19579TIP3   OH280227   1.166   3.165   4.352 -0.2677 -0.1346  0.1259
19579TIP3    H180228   1.138   3.079   4.384 -1.6027  1.2849  2.9108
19579TIP3    H280229   1.236   3.191   4.411 -0.4790  1.1072 -0.1627
19580TIP3   OH280230   3.210   6.637  12.521 -0.2685 -0.2376  0.1194
19580TIP3    H180231   3.133   6.684  12.488  0.8074  2.5040  1.3636
19580TIP3    H280232   3.257   6.610  12.443 -0.4106  1.6563 -0.6585
19581TIP3   OH280233   2.328   4.950  13.945 -0.0995 -0.6804 -0.1983
19581TIP3    H180234   2.272   4.872  13.938  1.5902 -1.7862 -1.7207
19581TIP3    H280235   2.377   4.952  13.863  0.6168  1.4356  0.2535
19582TIP3   OH280236   6.139   5.873  11.512  0.0312 -0.2093 -0.1702
19582TIP3    H180237   6.226   5.897  11.481 -0.0134 -1.8747 -1.7370
19582TIP3    H280238   6.095   5.839  11.434 -1.6752 -0.3353  0.8175
19583TIP3   OH280239   2.609   5.729  14.451 -0.0587  0.4799 -0.3633
19583TIP3    H180240   2.561   5.712  14.532  0.6295  2.3765  0.4688
19583TIP3    H280241   2.607   5.824  14.442  0.7575  0.3473 -2.0407
19584TIP3   OH280242   1.708   1.666   3.793  0.3057 -0.3108  0.2322
19584TIP3    H180243   1.698   1.752   3.752 -0.8106 -0.3108  0.4695
19584TIP3    H280244   1.712   1.684   3.887  1.1159 -0.4432  0.2265
19585TIP3   OH280245   1.053   0.973   6.201 -0.1223  0.8999  0.6667
19585TIP3    H180246   0.987   1.040   6.217  1.2924  1.7994  2.9096
19585TIP3    H280247   1.131   1.005   6.246  1.0306 -1.5038  0.4259
19586TIP3   OH280248   5.606   6.466  14.248 -0.7249 -0.0482 -0.2877
19586TIP3    H180249   5.608   6.507  14.334 -3.3435  0.8154 -0.5798
19586TIP3    H280250   5.638   6.377  14.264  1.7497  1.0315  0.9788
19587TIP3   OH280251   3.453   4.519  15.571  0.2485  0.5838  0.1407
19587TIP3    H180252   3.369   4.494  15.533 -0.9429  0.9693  2.3942
19587TIP3    H280253   3.498   4.436  15.588  0.8065  0.4204 -2.0927
19588TIP3   OH280254   5.732   4.760  14.410 -0.8362 -0.3165  0.0191
19588TIP3    H180255   5.785   4.831  14.445 -0.0432 -0.0703 -1.6218
19588TIP3    H280256   5.642   4.793  14.414 -0.6172  0.2314  0.5262
19589TIP3   OH280257   0.728   6.817  14.148  0.3276  0.1085  0.0779
19589TIP3    H180258   0.802   6.877  14.153  1.4054 -1.0961 -0.9176
19589TIP3    H280259   0.659   6.859  14.199  1.6418  1.3350  0.8821
19590TIP3   OH280260   2.023   4.212  12.643  0.5496  0.5107 -0.3575
19590TIP3    H180261   2.113   4.215  12.677 -0.4120  0.6660  2.2921
19590TIP3    H280262   1.988   4.299  12.661 -1.4942 -0.8377  2.6786
19591TIP3   OH280263   5.746   3.312  13.724  0.2743  0.6879 -0.5676
19591TIP3    H180264   5.746   3.359  13.808  0.7081  2.6482 -1.6444
19591TIP3    H280265   5.772   3.222  13.748  1.3178  1.4396  1.2850
19592TIP3   OH280266   5.618   5.678  11.197 -0.1771 -0.1520 -0.4982
19592TIP3    H180267   5.589   5.754  11.146  0.5479  0.8299  0.5526
19592TIP3    H280268   5.619   5.606  11.133  0.7699  1.0736 -1.9067
19593TIP3   OH280269   6.102   6.076   3.812 -0.7393  0.1767 -0.2723
19593TIP3    H180270   6.098   6.026   3.894 -1.4943  0.6849  0.0006
19593TIP3    H280271   6.016   6.064   3.772  0.0301 -1.1171 -1.6319
19594TIP3   OH280272   1.163   3.678   4.323 -0.1615 -0.3028  0.6593
19594TIP3    H180273   1.093   3.678   4.257 -0.5900 -0.9202  1.1139
19594TIP3    H280274   1.142   3.752   4.380 -0.2221 -0.2401  0.5554
19595TIP3   OH280275   1.653   0.721   0.204 -0.3834 -0.0235 -0.7808
19595TIP3    H180276   1.559   0.727   0.188 -0.6172  0.1460  0.6024
19595TIP3    H280277   1.684   0.812   0.204 -0.5117  0.0263  0.4129
19596TIP3   OH280278   1.451   5.850   0.311 -0.4089 -0.5369 -0.1034
19596TIP3    H180279   1.367   5.806   0.319 -1.4285  1.0852 -1.5577
19596TIP3    H280280   1.437   5.937   0.348  0.3468  0.0733 -1.2128
19597TIP3   OH280281   2.312   0.418   5.729  0.2473  0.0317  0.6858
19597TIP3    H180282   2.350   0.373   5.654 -1.1992  0.7414 -0.4932
19597TIP3    H280283   2.280   0.348   5.786 -0.3471 -0.4781 -0.2669
19598TIP3   OH280284   1.254   6.648   5.017 -0.1048  0.3871  0.2522
19598TIP3    H180285   1.209   6.697   4.949  0.6180  1.5845  0.6252
19598TIP3    H280286   1.236   6.556   4.996  0.2583  0.7264 -1.6579
19599TIP3   OH280287   4.125   6.305  17.143  0.3724  0.5908  0.1936
19599TIP3    H180288   4.198   6.354  17.179  0.3545 -0.0874  1.1604
19599TIP3    H280289   4.075   6.275  17.219  0.1339 -0.5479 -0.3872
19600TIP3   OH280290   1.109   0.467  15.100 -0.0615  0.3127  0.5918
19600TIP3    H180291   1.136   0.385  15.059 -2.6398 -0.6085  0.6529
19600TIP3    H280292   1.118   0.532  15.030 -1.3130 -0.6555 -0.4949
19601TIP3   OH280293   3.522   1.701   2.259  0.1952  0.3744  0.0482
19601TIP3    H180294   3.496   1.737   2.343 -0.9823 -0.5910  0.0987
19601TIP3    H280295   3.462   1.628   2.243  1.0201 -0.0665 -1.1717
19602TIP3   OH280296   1.313   4.007  14.411  0.0315 -0.5293  0.3709
19602TIP3    H180297   1.259   4.069  14.362  0.8367  0.3500  0.5852
19602TIP3    H280298   1.338   4.054  14.491  1.5758 -0.7227  0.0188
19603TIP3   OH280299   6.637   4.113   2.334 -0.0970 -0.1390  0.1819
19603TIP3    H180300   6.728   4.134   2.355  0.5428 -2.7385  0.1625
19603TIP3    H280301   6.640   4.023   2.301 -2.8522 -0.8683  1.7283
19604TIP3   OH280302   1.555   1.761  11.485 -0.0630 -0.4446 -0.8049
19604TIP3    H180303   1.476   1.794  11.443 -0.9392 -0.9699  0.3892
19604TIP3    H280304   1.621   1.759  11.416 -0.6272  1.5764 -1.4283
19605TIP3   OH280305   0.309   4.983  17.277 -0.5817 -0.0069 -0.2869
19605TIP3    H180306   0.318   4.912  17.341 -1.2437 -0.7263 -0.9801
19605TIP3    H280307   0.336   5.062  17.325  0.2776 -0.7396  0.4534
19606TIP3   OH280308   0.145   6.813   4.832 -0.0660  0.3826  0.5191
19606TIP3    H180309   0.169   6.720   4.837  1.9620  0.9866  2.7213
19606TIP3    H280310   0.220   6.855   4.791 -1.2395  0.9805 -1.0389
19607TIP3   OH280311   5.388   2.770  15.492 -0.4881  0.1778 -0.1681
19607TIP3    H180312   5.327   2.841  15.512 -0.8837 -0.6677  1.6516
19607TIP3    H280313   5.365   2.699  15.552  0.8592 -0.9677 -0.9501
19608TIP3   OH280314   2.612   1.409  17.165 -0.7528 -0.0043  0.2918
19608TIP3    H180315   2.647   1.412  17.254 -0.1073 -3.3847  0.2362
19608TIP3    H280316   2.589   1.317  17.152 -1.1357  0.4912 -2.9425
19609TIP3   OH280317   4.691   4.295  12.502 -0.0911  0.1804 -0.0522
19609TIP3    H180318   4.718   4.238  12.573 -0.6253  0.3258  0.2738
19609TIP3    H280319   4.637   4.362  12.544 -0.7664  0.0203 -0.6403
19610TIP3   OH280320   6.537   4.918  13.231 -0.6358 -0.7034 -0.0398
19610TIP3    H180321   6.539   4.828  13.265 -1.4498 -0.1655  1.4776
19610TIP3    H280322   6.455   4.955  13.264  0.9349  1.4516  1.6562
19611TIP3   OH280323   5.599   3.606  13.912 -0.1409  0.5160 -0.1754
19611TIP3    H180324   5.690   3.620  13.940  0.0764 -0.3033 -0.4671
19611TIP3    H280325   5.547   3.644  13.983  0.3760 -2.9037  2.1664
19612TIP3   OH280326   5.351   1.072   6.391 -0.0920 -0.1184  0.4873
19612TIP3    H180327   5.288   1.041   6.326 -1.2285  3.1554 -0.0892
19612TIP3    H280328   5.422   1.009   6.388 -1.2236 -1.3370 -2.2535
19613TIP3   OH280329   6.753   3.706  16.269  0.3251  0.5260 -0.2277
19613TIP3    H180330   6.693   3.781  16.265  1.5598  1.4849 -0.8732
19613TIP3    H280331   6.769   3.684  16.177  1.5843  0.7687 -0.0696
19614TIP3   OH280332   4.460   1.880  11.977  0.0769 -0.2507 -0.5112
19614TIP3    H180333   4.405   1.840  12.044  0.0767  1.6510  0.6662
19614TIP3    H280334   4.402   1.892  11.902 -0.4336 -0.6376 -0.1786
19615TIP3   OH280335   5.883   2.431   0.924  0.2716  0.0290 -0.3400
19615TIP3    H180336   5.871   2.501   0.860 -0.5908 -1.7451 -2.1673
19615TIP3    H280337   5.965   2.453   0.968  1.1352  1.0530 -2.3955
19616TIP3   OH280338   6.124   2.093  12.256  0.2963 -0.4577 -0.1007
19616TIP3    H180339   6.111   2.186  12.276  0.3496 -0.6275  0.7341
19616TIP3    H280340   6.193   2.065  12.317 -0.5665 -1.3373  0.4771
19617TIP3   OH280341   4.031   1.076  11.488 -0.2089 -0.6679 -0.0991
19617TIP3    H180342   4.033   0.995  11.437  0.6234 -1.4621  1.1583
19617TIP3    H280343   4.096   1.132  11.445  1.0899 -1.6372  0.5292
19618TIP3   OH280344   0.035   6.033   1.250 -0.2194 -0.1812 -0.0639
19618TIP3    H180345  -0.054   6.015   1.220  0.0668 -2.0243  0.1545
19618TIP3    H280346   0.084   6.051   1.170 -0.2278 -1.7285 -0.4411
19619TIP3   OH280347   3.079   3.684  14.302  0.3544  0.1325 -0.5107
19619TIP3    H180348   3.039   3.755  14.252 -2.7454 -0.4849  0.9244
19619TIP3    H280349   3.029   3.606  14.276 -0.5200 -0.4006  2.5712
19620TIP3   OH280350   4.815   1.633   0.562  0.1394 -0.0038  0.2144
19620TIP3    H180351   4.792   1.568   0.495 -0.7301  0.6432 -0.1247
19620TIP3    H280352   4.876   1.587   0.620  0.1286 -0.8810 -0.4597
19621TIP3   OH280353   0.740   2.393   1.974  0.2790 -0.1875  0.2110
19621TIP3    H180354   0.645   2.387   1.969  0.0811  1.9133  0.8164
19621TIP3    H280355   0.758   2.423   2.063  1.5201 -0.6308  0.1293
19622TIP3   OH280356   4.156   4.731  11.470 -0.3015  0.6792 -0.2080
19622TIP3    H180357   4.069   4.721  11.510  2.0943  1.2081  5.5772
19622TIP3    H280358   4.172   4.825  11.471  1.2474  0.4218  0.9380
19623TIP3   OH280359   5.713   3.514  15.421  0.6038  0.6620  0.1994
19623TIP3    H180360   5.627   3.535  15.457  1.7631  0.5669  3.1604
19623TIP3    H280361   5.762   3.596  15.422  1.1516  0.3431  0.2776
19624TIP3   OH280362   4.091   4.464   2.070 -0.2270 -0.3170 -0.1862
19624TIP3    H180363   4.112   4.385   2.120 -1.5146  0.2911  1.3820
19624TIP3    H280364   4.093   4.534   2.135  0.0654  0.8103 -1.4005
19625TIP3   OH280365   1.494   2.053  16.796  0.2197 -0.0281 -0.4458
19625TIP3    H180366   1.478   1.961  16.776 -0.4090 -0.3146  1.3161
19625TIP3    H280367   1.411   2.097  16.775  0.7150  0.2601 -1.8844
19626TIP3   OH280368   2.694   0.708   4.675 -0.2781 -0.0239 -0.0154
19626TIP3    H180369   2.636   0.639   4.643 -0.2242  0.1908 -0.5843
19626TIP3    H280370   2.782   0.673   4.664 -0.2849 -0.2459  0.6035
19627TIP3   OH280371   4.434   6.116   3.060 -0.1543  0.1044 -0.8864
19627TIP3    H180372   4.452   6.189   3.001  2.3782 -0.0344 -0.3353
19627TIP3    H280373   4.510   6.112   3.117 -1.2620 -1.6025  0.5120
19628TIP3   OH280374   3.455   5.544   0.968 -0.4168 -0.1615  0.1750
19628TIP3    H180375   3.397   5.520   0.895  0.2296 -0.0209 -0.3896
19628TIP3    H280376   3.396   5.578   1.035 -1.0353 -0.4242 -0.2287
19629TIP3   OH280377   1.353   0.065  11.559  1.1618  0.2771  0.2584
19629TIP3    H180378   1.293   0.089  11.630  0.7669 -0.5794  0.2199
19629TIP3    H280379   1.349   0.139  11.498  1.6900  1.1325  1.2486
19630TIP3   OH280380   3.293   0.262  15.976 -0.0310 -0.3973  0.3647
19630TIP3    H180381   3.331   0.215  15.902 -2.2041 -2.8421  0.6942
19630TIP3    H280382   3.366   0.308  16.016  1.3129  0.2761 -2.7871
19631TIP3   OH280383   3.952   5.991   4.348 -0.0936 -0.1432  0.2886
19631TIP3    H180384   3.872   6.030   4.313  0.6352 -1.1074 -2.5918
19631TIP3    H280385   4.018   6.061   4.341 -0.1710 -0.0398  0.6062
19632TIP3   OH280386   2.419   6.526  16.267 -0.2853 -0.8246  0.6212
19632TIP3    H180387   2.339   6.498  16.311 -0.0360 -1.2305  0.8168
19632TIP3    H280388   2.388   6.576  16.192 -0.7058  0.4825  1.6491
19633TIP3   OH280389   6.606   3.946  12.526  0.3645 -0.0447  0.2663
19633TIP3    H180390   6.522   3.916  12.559 -0.1431  0.8367 -0.2251
19633TIP3    H280391   6.667   3.876  12.551 -0.6006 -0.9565  0.1167
19634TIP3   OH280392   0.924   0.836  12.193  0.5873  0.1533  0.6595
19634TIP3    H180393   0.845   0.878  12.226  0.4483  0.0211  0.4914
19634TIP3    H280394   0.960   0.899  12.131 -0.6599 -0.7963 -1.0580
19635TIP3   OH280395   3.781   1.787   1.845  0.2772  0.1549  0.3022
19635TIP3    H180396   3.751   1.857   1.902  1.0826  1.3677 -0.7342
19635TIP3    H280397   3.747   1.707   1.885 -0.7842  1.1422  1.4127
19636TIP3   OH280398   3.143   3.648   4.489 -0.3668  0.0912 -0.1070
19636TIP3    H180399   3.124   3.741   4.489 -0.1254  0.1421  0.0389
19636TIP3    H280400   3.151   3.625   4.582  1.0744  0.2428 -0.1855
19637TIP3   OH280401   4.314   2.035   1.674  0.1464 -0.3608  0.1990
19637TIP3    H180402   4.282   1.998   1.592 -0.2604  1.6395 -0.5627
19637TIP3    H280403   4.249   2.008   1.739  0.6734 -2.2790 -0.0426
19638TIP3   OH280404   6.349   1.540  16.598 -0.2476  0.2114 -0.6644
19638TIP3    H180405   6.416   1.513  16.536  1.1133  1.0032  0.4465
19638TIP3    H280406   6.325   1.459  16.644  0.5801  0.0977 -0.4384
19639TIP3   OH280407   6.683   2.012   3.034  0.8041 -0.1552  0.8216
19639TIP3    H180408   6.661   2.019   3.126 -0.1412  2.4271  0.4326
19639TIP3    H280409   6.605   2.041   2.987  0.5752 -3.2275 -0.8834
19640TIP3   OH280410   4.336   3.389  16.254 -0.2052 -0.0568  0.4229
19640TIP3    H180411   4.341   3.416  16.345 -1.6184 -0.5420  0.6486
19640TIP3    H280412   4.425   3.357  16.234 -0.6643 -2.8613  2.5420
19641TIP3   OH280413   0.486   1.077  17.104 -0.3735 -0.5031 -0.3551
19641TIP3    H180414   0.447   1.113  17.184 -2.2999 -2.7921 -0.1996
19641TIP3    H280415   0.549   1.143  17.077 -2.1237  1.9045  1.1635
19642TIP3   OH280416   1.748   0.377  12.737 -0.2439 -0.1266  0.4000
19642TIP3    H180417   1.835   0.413  12.751  0.2065 -1.1103  0.1599
19642TIP3    H280418   1.716   0.421  12.658  0.0703  0.1671  0.4370
19643TIP3   OH280419   4.846   5.708  11.284 -0.3613  0.0301  0.3468
19643TIP3    H180420   4.855   5.614  11.300  0.4846 -0.4529 -2.7204
19643TIP3    H280421   4.897   5.749  11.354 -1.1659 -1.7436  2.0406
19644TIP3   OH280422   0.651   1.486   6.017  0.0835  0.6479 -0.4099
19644TIP3    H180423   0.600   1.537   6.081 -0.8707 -1.6270  0.7129
19644TIP3    H280424   0.742   1.496   6.046 -0.0640  1.8445 -0.3200
19645TIP3   OH280425   0.339   3.590   1.683  0.1030  0.3911  0.1223
19645TIP3    H180426   0.350   3.590   1.588  2.2454  1.0662  0.3525
19645TIP3    H280427   0.286   3.512   1.700 -0.7485  0.5454 -1.6642
19646TIP3   OH280428   6.147   1.285  14.902 -0.6352 -0.0974 -0.1559
19646TIP3    H180429   6.060   1.294  14.941 -0.0189 -1.4049  1.5634
19646TIP3    H280430   6.195   1.228  14.962  0.9582 -0.5828 -1.8290
19647TIP3   OH280431   2.800   2.060  13.076 -0.0648 -0.5009 -0.2019
19647TIP3    H180432   2.806   1.965  13.086 -0.9588 -0.6137 -0.6868
19647TIP3    H280433   2.877   2.094  13.122 -0.5794 -1.3588  1.3242
19648TIP3   OH280434   4.376   1.256   4.022  0.1567  0.3326 -0.0575
19648TIP3    H180435   4.346   1.266   3.932 -0.1385 -0.6846 -0.0846
19648TIP3    H280436   4.296   1.241   4.072  0.4670 -0.8735  0.0991
19649TIP3   OH280437   5.246   2.566   4.941 -0.2576 -0.2871 -0.1275
19649TIP3    H180438   5.227   2.472   4.936  0.9803 -0.4688 -2.4240
19649TIP3    H280439   5.290   2.585   4.858 -1.4043  2.5534 -0.1171
19650TIP3   OH280440   5.626   0.607  11.532  0.1233  0.5263 -0.0094
19650TIP3    H180441   5.603   0.664  11.605  0.0991  0.2036  0.2379
19650TIP3    H280442   5.543   0.586  11.490  0.2428  1.6167 -0.8150
19651TIP3   OH280443   5.848   1.579  16.312  0.4134  0.4908 -0.2811
19651TIP3    H180444   5.839   1.527  16.232 -1.8294  0.5995 -0.1533
19651TIP3    H280445   5.880   1.518  16.377 -0.3933 -0.2897 -0.6036
19652TIP3   OH280446   1.373   3.489   1.557 -0.0439 -0.4037  0.7488
19652TIP3    H180447   1.354   3.464   1.647 -1.3336 -0.5027  0.4532
19652TIP3    H280448   1.290   3.524   1.524  0.6252  0.3308 -0.1573
19653TIP3   OH280449   4.587   6.525   5.181 -0.1795  0.3331  0.2247
19653TIP3    H180450   4.615   6.448   5.232 -0.5309 -0.5805 -0.9547
19653TIP3    H280451   4.545   6.488   5.104  0.5588  1.7219 -0.8432
19654TIP3   OH280452   5.567   0.921   2.935  0.8143 -0.4877 -0.4464
19654TIP3    H180453   5.570   0.889   3.025  0.4102 -0.2979 -0.3648
19654TIP3    H280454   5.652   0.898   2.899  1.1760 -0.0850  0.1449
19655TIP3   OH280455   3.553   0.382  14.153  0.7762  0.1715  0.3468
19655TIP3    H180456   3.542   0.475  14.135  1.8948  0.5556  1.5443
19655TIP3    H280457   3.557   0.377  14.249  2.1312 -0.9426  0.2443
19656TIP3   OH280458   6.038   6.330  12.340 -0.5054 -0.3536 -0.0685
19656TIP3    H180459   6.097   6.400  12.314 -0.9416 -0.7006 -2.0467
19656TIP3    H280460   6.095   6.264  12.380  0.5211 -0.8315 -2.2524
19657TIP3   OH280461   5.610   0.559   0.604 -0.5565 -0.3557  0.2660
19657TIP3    H180462   5.617   0.526   0.694  0.7560 -1.0750 -0.0946
19657TIP3    H280463   5.566   0.489   0.556  0.5901 -0.8436 -0.0943
19658TIP3   OH280464   6.330   0.727   1.348 -0.3168  0.5176  0.9605
19658TIP3    H180465   6.367   0.652   1.395  0.0120  0.9481  1.3862
19658TIP3    H280466   6.394   0.747   1.280 -1.0542 -0.4598 -0.0392
19659TIP3   OH280467   6.702   0.369   1.386  0.1629  0.0311 -0.5802
19659TIP3    H180468   6.686   0.393   1.295 -1.3483  1.3500 -0.0061
19659TIP3    H280469   6.703   0.274   1.387  0.1035  0.0167 -1.9657
19660TIP3   OH280470   4.617   0.492  10.359  0.1767  0.0184  0.4099
19660TIP3    H180471   4.530   0.521  10.333  0.1675 -0.5238 -0.1914
19660TIP3    H280472   4.656   0.567  10.403  0.0699  0.8472 -0.8972
19661TIP3   OH280473   6.243   5.503   3.944 -0.7070 -0.3743  0.2716
19661TIP3    H180474   6.159   5.460   3.961 -0.2498 -1.7449 -0.7989
19661TIP3    H280475   6.279   5.455   3.869  1.8257 -0.9159  1.7714
19662TIP3   OH280476   2.625   1.919  14.760 -0.2029 -0.2414  0.1233
19662TIP3    H180477   2.618   1.920  14.664  1.6495  1.2775 -0.0251
19662TIP3    H280478   2.682   1.845  14.779  0.2881  0.1055 -0.0103
19663TIP3   OH280479   3.629   1.483  13.361 -0.5363  0.6443 -0.1588
19663TIP3    H180480   3.671   1.404  13.397  0.1155  0.8306 -0.4958
19663TIP3    H280481   3.538   1.458  13.348 -0.6881  0.4466  1.2383
19664TIP3   OH280482   3.444   0.424   3.469  0.0805  0.4588 -0.4828
19664TIP3    H180483   3.389   0.345   3.472  0.0617  0.4897 -0.0213
19664TIP3    H280484   3.406   0.477   3.399 -0.5180  0.5096 -0.1227
19665TIP3   OH280485   2.579   1.325  14.093 -0.5419 -0.1825 -0.2703
19665TIP3    H180486   2.663   1.283  14.113 -0.6396 -0.1885  0.1316
19665TIP3    H280487   2.602   1.409  14.054 -0.3464  0.8680  2.0707
19666TIP3   OH280488   0.926   4.998   1.545 -0.1254  0.2358  0.0336
19666TIP3    H180489   1.007   4.979   1.499  1.0235  0.6053  1.8820
19666TIP3    H280490   0.876   5.052   1.483  0.6421 -0.7382 -1.4564
19667TIP3   OH280491   6.507   5.059   2.307  0.3437  0.5811 -0.1027
19667TIP3    H180492   6.524   5.041   2.214 -1.7541 -1.6329 -0.1062
19667TIP3    H280493   6.543   4.983   2.352 -2.4257 -0.4163  0.5103
19668TIP3   OH280494   2.501   2.129   1.417  0.4601 -0.0053 -0.2701
19668TIP3    H180495   2.410   2.136   1.445  0.3580  0.5944 -0.7271
19668TIP3    H280496   2.551   2.164   1.491  0.2445  0.7760 -0.4882
19669TIP3   OH280497   5.087   0.282  12.999 -0.0235  0.4181  0.6014
19669TIP3    H180498   5.145   0.338  12.948  1.0138 -0.4559  0.7854
19669TIP3    H280499   5.032   0.342  13.049 -1.3679  1.2992 -1.8432
19670TIP3   OH280500   5.751   5.767   0.135  0.3818 -0.0039 -0.6377
19670TIP3    H180501   5.765   5.782   0.229 -2.4377 -1.2267  0.0274
19670TIP3    H280502   5.704   5.844   0.106 -0.1210 -0.3398 -0.7099
19671TIP3   OH280503   1.330   4.523  16.658  0.3683  0.5766 -0.3433
19671TIP3    H180504   1.373   4.608  16.669  1.8480 -0.0267 -1.3201
19671TIP3    H280505   1.331   4.483  16.745  1.8326  0.5589 -0.3538
19672TIP3   OH280506   4.222   3.326  16.544 -0.1671  0.5432 -0.3597
19672TIP3    H180507   4.279   3.304  16.617  1.1049 -0.0678 -1.5178
19672TIP3    H280508   4.251   3.412  16.516  0.5891 -0.0018 -1.3008
19673TIP3   OH280509   5.312   4.673   1.208 -0.0407  1.0050  0.2747
19673TIP3    H180510   5.223   4.691   1.176  1.0058  3.4508 -1.4434
19673TIP3    H280511   5.328   4.581   1.185 -2.0024  0.6349  0.3368
19674TIP3   OH280512   4.395   2.847  13.355  0.6247 -0.5333 -0.7041
19674TIP3    H180513   4.367   2.758  13.338  1.4552 -0.9384  0.0251
19674TIP3    H280514   4.325   2.886  13.407  2.7306 -2.5168  3.8992
19675TIP3   OH280515   1.464   1.268  15.830  0.5767  0.4624 -0.1961
19675TIP3    H180516   1.506   1.197  15.879  0.0776 -1.0125 -1.8284
19675TIP3    H280517   1.532   1.335  15.821  0.4829  1.0472  2.9972
19676TIP3   OH280518   1.889   1.951   1.703  0.2336  0.7250 -0.6774
19676TIP3    H180519   1.899   1.913   1.615 -1.5156 -1.1448 -0.1183
19676TIP3    H280520   1.968   1.926   1.749  0.4174  0.2705 -1.2273
19677TIP3   OH280521   4.230   4.767   4.637 -0.0082 -0.6605 -0.5715
19677TIP3    H180522   4.258   4.794   4.724 -3.6037 -0.9430  0.7542
19677TIP3    H280523   4.273   4.682   4.623  0.8591 -0.4523  0.7621
19678TIP3   OH280524   6.735   2.435   0.986  0.0318 -0.5635  0.5675
19678TIP3    H180525   6.649   2.437   0.945  0.3694 -0.6825 -0.1461
19678TIP3    H280526   6.724   2.484   1.068 -0.3685  0.6030 -0.1710
19679TIP3   OH280527   2.477   5.761  11.889  0.0240  0.1738 -0.1453
19679TIP3    H180528   2.519   5.770  11.975 -0.7027 -0.4552  0.2793
19679TIP3    H280529   2.548   5.733  11.831  0.6130  1.0332  0.1538
19680TIP3   OH280530   3.771   3.469  11.322 -0.0323  0.4728 -0.0330
19680TIP3    H180531   3.694   3.416  11.304 -0.0654 -0.1788  1.8869
19680TIP3    H280532   3.736   3.553  11.355  0.0531  0.6881 -0.4935
19681TIP3   OH280533   4.748   0.949   2.944 -0.3437 -0.3538  0.7739
19681TIP3    H180534   4.824   0.942   3.002  0.1602  0.8843  0.2709
19681TIP3    H280535   4.769   1.021   2.884 -1.0496 -1.3359 -0.6786
19682TIP3   OH280536   2.674   1.893   1.729 -0.0868 -0.1989  0.0656
19682TIP3    H180537   2.680   1.816   1.785 -1.1137 -0.6507 -0.4397
19682TIP3    H280538   2.596   1.940   1.761 -0.2058 -0.0383 -0.4586
19683TIP3   OH280539   2.487   0.617  10.689  0.4164  0.3201  0.5725
19683TIP3    H180540   2.459   0.608  10.598  2.5252 -3.0658  0.1824
19683TIP3    H280541   2.546   0.544  10.704 -1.1599 -0.1983  5.2048
19684TIP3   OH280542   5.368   5.656   0.360 -0.5443 -0.6249  0.2877
19684TIP3    H180543   5.429   5.695   0.422 -2.0878 -0.1081  1.5145
19684TIP3    H280544   5.288   5.707   0.371 -0.7949 -0.3877 -2.2827
19685TIP3   OH280545   5.020   1.518   1.243  0.2542  0.2854 -0.5176
19685TIP3    H180546   5.043   1.558   1.159  0.5530  0.4689 -0.3490
19685TIP3    H280547   4.980   1.434   1.219 -1.7193  1.3004 -0.9284
19686TIP3   OH280548   0.272   5.365  13.803 -0.0038 -0.0788  0.0945
19686TIP3    H180549   0.219   5.437  13.770 -0.3522  0.7752  2.4382
19686TIP3    H280550   0.358   5.378  13.762 -0.6142  0.5670 -0.9811
19687TIP3   OH280551   2.734   5.712  17.250  0.1586  0.3121  0.2981
19687TIP3    H180552   2.663   5.774  17.230 -0.6864 -0.1234  1.9050
19687TIP3    H280553   2.697   5.627  17.229 -0.0757  0.0167  1.8512
19688TIP3   OH280554   1.397   6.164   2.346 -0.6258 -0.9173 -0.8258
19688TIP3    H180555   1.442   6.178   2.262  1.7728 -2.3285  0.1538
19688TIP3    H280556   1.373   6.071   2.345  0.6274 -1.2881  0.5533
19689TIP3   OH280557   6.812   1.565   1.234  0.3416 -0.1499 -0.3110
19689TIP3    H180558   6.747   1.495   1.245 -0.0884  0.4448  1.0623
19689TIP3    H280559   6.866   1.561   1.312 -1.3917  2.7760  1.1473
19690TIP3   OH280560   5.075   0.564  15.793  0.0034 -0.3291 -0.2914
19690TIP3    H180561   4.982   0.581  15.810  0.4412  1.2444  0.6241
19690TIP3    H280562   5.108   0.646  15.757  1.7403  0.2127  2.3635
19691TIP3   OH280563   6.119   3.729  14.336 -0.1414 -0.5772  0.1569
19691TIP3    H180564   6.097   3.790  14.266 -1.4030  0.0411  1.0651
19691TIP3    H280565   6.126   3.644  14.293 -1.9778 -0.3805 -0.5795
19692TIP3   OH280566   1.932   2.936   3.838  0.3727 -0.4246  0.1171
19692TIP3    H180567   1.882   2.855   3.834  1.8796 -1.2869 -1.5414
19692TIP3    H280568   1.980   2.930   3.921  0.4795 -1.2432  0.0001
19693TIP3   OH280569   5.478   3.187  12.928 -0.4022  0.1089  0.0116
19693TIP3    H180570   5.394   3.233  12.935  0.4054  1.4645  1.0268
19693TIP3    H280571   5.543   3.257  12.920  0.7657 -0.8799  0.6669
19694TIP3   OH280572   6.309   1.610   6.639  0.0294 -0.2771 -0.2425
19694TIP3    H180573   6.237   1.572   6.690 -0.8330  0.9923 -0.4742
19694TIP3    H280574   6.274   1.693   6.608  0.9256 -0.5435 -2.0083
19695TIP3   OH280575   6.554   3.901  13.165 -0.2517  0.2259  0.3830
19695TIP3    H180576   6.617   3.865  13.102  0.0122 -0.5820  1.0975
19695TIP3    H280577   6.608   3.941  13.233 -0.5302  0.7431  0.3012
19696TIP3   OH280578   6.174   2.941  16.355  0.3695 -0.2883 -0.1604
19696TIP3    H180579   6.101   2.956  16.296  0.6741  0.5783 -0.3378
19696TIP3    H280580   6.246   2.914  16.298  0.3715 -0.4875 -0.0622
19697TIP3   OH280581   1.176   5.883   0.518 -0.1721  0.3203  0.1572
19697TIP3    H180582   1.157   5.825   0.445 -3.5160  0.4503  0.8760
19697TIP3    H280583   1.156   5.971   0.485  2.3714  0.8496 -0.0864
19698TIP3   OH280584   6.433   2.620  15.274  0.4371  0.6732 -0.3665
19698TIP3    H180585   6.409   2.530  15.296  0.5298  0.4661 -1.1234
19698TIP3    H280586   6.526   2.615  15.252  0.7448  1.1640  0.7828
19699TIP3   OH280587   6.434   0.117   6.047 -0.1944 -0.2802 -0.7557
19699TIP3    H180588   6.355   0.164   6.075  0.3574  1.1618 -1.5846
19699TIP3    H280589   6.506   0.177   6.064  0.3975 -0.3131 -2.9684
19700TIP3   OH280590   1.596   5.249   0.475 -0.4222  0.4339  1.0594
19700TIP3    H180591   1.655   5.308   0.427 -1.9054  1.6725  0.7576
19700TIP3    H280592   1.569   5.299   0.552 -0.0689 -0.6237  1.8854
19701TIP3   OH280593   6.760   3.505   4.317 -0.7547  0.1009  0.6293
19701TIP3    H180594   6.805   3.430   4.356  0.6013  0.6090  0.0618
19701TIP3    H280595   6.771   3.494   4.223 -0.5675  0.9884  0.5416
19702TIP3   OH280596   0.273   6.103  11.568 -0.3752  0.6946  0.0936
19702TIP3    H180597   0.325   6.180  11.589 -0.5242  1.7006 -2.9373
19702TIP3    H280598   0.334   6.030  11.580  0.2645  1.4201  1.3457
19703TIP3   OH280599   4.499   2.391  12.599 -0.1637  0.0110 -0.2222
19703TIP3    H180600   4.420   2.433  12.636 -0.5101  0.6666 -1.6814
19703TIP3    H280601   4.567   2.457  12.609  0.3916 -0.8039  1.6561
19704TIP3   OH280602   0.623   1.177  16.704 -0.1926 -0.0172 -0.0963
19704TIP3    H180603   0.530   1.167  16.728 -0.3744 -0.3353 -0.9068
19704TIP3    H280604   0.644   1.096  16.658  0.1600  0.5420 -0.9422
19705TIP3   OH280605   0.625   0.399  16.411 -0.1410  0.1335 -0.2119
19705TIP3    H180606   0.634   0.335  16.482  0.0489 -1.0711 -1.2933
19705TIP3    H280607   0.542   0.442  16.428 -1.1069 -1.5911 -0.3807
19706TIP3   OH280608   6.558   6.034  11.676  0.3533  0.3162 -0.6023
19706TIP3    H180609   6.545   5.960  11.617 -1.1780 -0.2014  0.3381
19706TIP3    H280610   6.538   6.111  11.622 -1.0673 -0.1528 -0.7721
19707TIP3   OH280611   2.116   2.573  13.479  0.3927 -0.1977 -0.5314
19707TIP3    H180612   2.135   2.508  13.411  0.8399 -1.4346  0.7389
19707TIP3    H280613   2.022   2.563  13.496  0.3764 -0.2339 -0.6458
19708TIP3   OH280614   3.546   3.665  11.380  0.0099  0.0173  0.2736
19708TIP3    H180615   3.566   3.750  11.418  1.1175  0.4533 -1.2242
19708TIP3    H280616   3.451   3.656  11.389  0.1657  0.3619  2.5451
19709TIP3   OH280617   4.955   6.589  12.188  0.0692  0.0405  0.0178
19709TIP3    H180618   4.987   6.502  12.166 -0.1522 -0.2809  0.9373
19709TIP3    H280619   4.992   6.607  12.275  1.5906  1.6150 -0.9148
19710TIP3   OH280620   4.837   5.406   3.664 -0.3423 -0.1746 -0.3632
19710TIP3    H180621   4.778   5.345   3.708 -0.2102 -0.0862 -0.0587
19710TIP3    H280622   4.802   5.493   3.686  0.3035 -0.0987  0.4056
19711TIP3   OH280623   5.744   4.860  17.286  0.5838 -0.6926 -0.1243
19711TIP3    H180624   5.700   4.776  17.295 -0.4323  0.0987  3.4250
19711TIP3    H280625   5.730   4.886  17.195 -5.2988 -1.0785  0.4603
19712TIP3   OH280626   6.339   4.275  16.277 -0.4679  0.3609 -0.1474
19712TIP3    H180627   6.390   4.196  16.297 -0.2297  0.4213 -0.5081
19712TIP3    H280628   6.360   4.294  16.186 -0.3550  0.9667  0.0063
19713TIP3   OH280629   1.720   5.761   0.359  0.5230 -0.2299 -0.1382
19713TIP3    H180630   1.626   5.770   0.369  0.4824 -0.5296 -0.2323
19713TIP3    H280631   1.754   5.850   0.362  0.1341 -0.0426 -1.1236
19714TIP3   OH280632   0.426   1.247   5.375 -0.1095 -0.4011 -0.4411
19714TIP3    H180633   0.412   1.167   5.323 -1.8723 -0.8523  0.6762
19714TIP3    H280634   0.503   1.228   5.428 -1.1318 -1.7848  0.5841
19715TIP3   OH280635   0.480   6.657  15.248 -0.7517  0.2521 -0.0568
19715TIP3    H180636   0.422   6.706  15.305 -0.3918  0.3999  0.1873
19715TIP3    H280637   0.568   6.687  15.272 -0.4829 -1.0914  0.6451
19716TIP3   OH280638   3.229   4.751  15.818 -0.6112  0.1256  0.2451
19716TIP3    H180639   3.235   4.740  15.913  0.7514  1.3624  0.3236
19716TIP3    H280640   3.320   4.759  15.789 -1.0317  0.0071 -1.1347
19717TIP3   OH280641   0.431   4.242   5.131 -1.1136  0.4303  0.2942
19717TIP3    H180642   0.366   4.176   5.155  0.3115 -0.2538  2.3680
19717TIP3    H280643   0.496   4.238   5.201  0.9326  1.4134 -1.5064
19718TIP3   OH280644   6.446   1.444  13.942  0.1165  0.3291 -0.0585
19718TIP3    H180645   6.386   1.373  13.967  1.2295 -0.7537 -0.4224
19718TIP3    H280646   6.458   1.495  14.022  0.0479 -0.4424  0.4486
19719TIP3   OH280647   0.205   1.036  17.093 -0.1125  0.4342 -0.1078
19719TIP3    H180648   0.225   0.950  17.056  1.7644 -0.9209  3.7628
19719TIP3    H280649   0.287   1.085  17.084  0.2797  0.1795  1.8853
19720TIP3   OH280650   3.295   0.843   5.634  0.4283  0.8499 -0.1730
19720TIP3    H180651   3.294   0.864   5.541 -0.8831 -0.3210 -0.4334
19720TIP3    H280652   3.355   0.769   5.641 -0.3050  0.2436 -0.2482
19721TIP3   OH280653   0.348   5.745  15.302  0.1877  0.3678 -0.0001
19721TIP3    H180654   0.328   5.837  15.321 -0.9924 -0.5157  3.4949
19721TIP3    H280655   0.418   5.723  15.363  1.4726 -0.6855 -1.8291
19722TIP3   OH280656   2.421   1.652  13.804 -0.3014  0.4670  0.1254
19722TIP3    H180657   2.365   1.600  13.747  0.5150 -1.5107  1.0776
19722TIP3    H280658   2.431   1.735  13.758 -2.4041  0.1334 -0.9785
19723TIP3   OH280659   1.165   5.514  11.301  0.2618  0.3358  0.0754
19723TIP3    H180660   1.138   5.453  11.369  0.9253  0.4831  0.4770
19723TIP3    H280661   1.198   5.459  11.231  0.0302  0.1992  0.0751
19724TIP3   OH280662   5.110   2.123  16.424 -0.1254 -0.0126 -0.0996
19724TIP3    H180663   5.104   2.205  16.375 -1.0757 -0.8384 -1.3671
19724TIP3    H280664   5.022   2.108  16.457  0.0021 -0.6286 -0.0367
19725TIP3   OH280665   6.307   3.970  17.252  0.5360 -0.0282 -0.0457
19725TIP3    H180666   6.320   3.931  17.166 -0.1885 -0.2751 -0.0466
19725TIP3    H280667   6.232   4.027  17.242  0.6725  0.2208  0.3317
19726TIP3   OH280668   0.609   3.299   2.756 -0.1251  0.0868  0.3195
19726TIP3    H180669   0.586   3.347   2.836  1.0563 -0.0064  0.7307
19726TIP3    H280670   0.603   3.207   2.780  1.4485  0.0662  0.6714
19727TIP3   OH280671   6.194   0.935   3.607  0.4897 -0.1379 -0.6768
19727TIP3    H180672   6.219   1.026   3.586 -0.3689  0.0900 -0.7054
19727TIP3    H280673   6.100   0.932   3.591  0.1715 -0.5139  1.2391
19728TIP3   OH280674   1.574   5.504   4.411 -0.4788 -0.5117  0.3627
19728TIP3    H180675   1.510   5.565   4.374 -0.1579  0.4772  1.3622
19728TIP3    H280676   1.529   5.464   4.486 -0.1320 -0.2309  0.7289
19729TIP3   OH280677   3.461   3.621   5.204  1.2137  0.3681 -0.3651
19729TIP3    H180678   3.370   3.623   5.235  0.8328 -0.3241 -1.3977
19729TIP3    H280679   3.513   3.637   5.282  0.2496 -0.6918  0.5186
19730TIP3   OH280680   1.241   1.714  13.050  0.2076  0.3778  0.6190
19730TIP3    H180681   1.156   1.713  13.007  0.6783  1.2913 -0.3610
19730TIP3    H280682   1.293   1.650  13.002  1.1711  2.4077 -1.1418
19731TIP3   OH280683   6.098   0.612  13.146  0.4209 -0.1133 -0.2614
19731TIP3    H180684   6.101   0.706  13.163  0.7242 -0.2609  0.5289
19731TIP3    H280685   6.009   0.596  13.116  0.8541  0.6915 -2.0610
19732TIP3   OH280686   4.339   1.617  15.271  0.0318 -0.2474  0.2132
19732TIP3    H180687   4.281   1.565  15.214  0.4307  1.2328 -1.5768
19732TIP3    H280688   4.426   1.580  15.256 -0.2758 -1.9754  2.3437
19733TIP3   OH280689   1.108   5.903  14.899 -0.2961 -0.2608  0.1718
19733TIP3    H180690   1.203   5.905  14.887  0.1739  0.9441  3.4408
19733TIP3    H280691   1.074   5.960  14.830  1.4048 -0.1764 -0.6262
19734TIP3   OH280692   5.620   3.426  11.681  0.2552  0.3249  0.1335
19734TIP3    H180693   5.673   3.375  11.743  0.1299 -0.7147 -0.6101
19734TIP3    H280694   5.537   3.379  11.677 -0.0687  0.9197 -0.1073
19735TIP3   OH280695   6.434   1.229   3.369  0.2244  0.5148  0.5913
19735TIP3    H180696   6.499   1.298   3.359  1.1837 -0.4768 -0.1055
19735TIP3    H280697   6.484   1.148   3.372 -0.9792 -0.2727 -0.0207
19736TIP3   OH280698   4.127   3.425   0.316 -0.1343  0.5165 -0.2501
19736TIP3    H180699   4.147   3.413   0.409 -1.4604 -0.7873 -0.1260
19736TIP3    H280700   4.166   3.348   0.273 -1.7219 -0.1806 -0.4560
19737TIP3   OH280701   2.910   3.573   5.832  0.2510  0.4602  0.0804
19737TIP3    H180702   2.863   3.617   5.903  0.9422  1.0230  0.1947
19737TIP3    H280703   2.945   3.494   5.872  0.2507  0.5440  0.2466
19738TIP3   OH280704   5.044   6.071   6.153  0.4390  1.2318 -0.0854
19738TIP3    H180705   5.121   6.027   6.117  0.9110  1.7502  0.2728
19738TIP3    H280706   4.984   6.000   6.176  1.0426  0.7953  0.1471
19739TIP3   OH280707   0.002   3.769   1.560 -0.5525 -1.1394 -0.0470
19739TIP3    H180708  -0.000   3.826   1.482  0.0016  0.8741  1.3708
19739TIP3    H280709   0.008   3.830   1.633 -0.5113 -3.0486  1.5569
19740TIP3   OH280710   6.696   1.718   5.248 -0.3329 -0.3175 -0.1044
19740TIP3    H180711   6.792   1.713   5.248 -0.3965 -2.8062  1.0936
19740TIP3    H280712   6.672   1.699   5.339 -1.9840 -0.1892 -0.4994
19741TIP3   OH280713   5.213   0.536   4.221 -0.0509 -0.8002 -0.0064
19741TIP3    H180714   5.153   0.528   4.295  1.0831 -0.6906  0.9601
19741TIP3    H280715   5.198   0.624   4.187  1.4103  0.2459  1.9263
19742TIP3   OH280716   2.543   4.147   5.984  0.1811  0.4702 -0.1372
19742TIP3    H180717   2.614   4.206   5.960  0.7479 -0.3887 -0.6059
19742TIP3    H280718   2.586   4.065   6.005 -0.5842  0.2805  0.7217
19743TIP3   OH280719   1.645   2.972  14.642 -0.0476 -0.7116 -0.2899
19743TIP3    H180720   1.602   2.903  14.592  0.6976 -0.4018 -1.3799
19743TIP3    H280721   1.580   3.042  14.648 -0.5032 -1.1657  0.0745
19744TIP3   OH280722   1.852   4.021   0.173  0.0642 -0.5806  0.2992
19744TIP3    H180723   1.798   4.097   0.149  1.7585 -0.1689 -2.3393
19744TIP3    H280724   1.839   3.959   0.102  0.9605 -1.5912  1.0057
19745TIP3   OH280725   3.731   6.655  17.109 -0.1189 -0.2031  0.4222
19745TIP3    H180726   3.650   6.624  17.151 -0.1448 -0.4202  0.2118
19745TIP3    H280727   3.737   6.748  17.134  0.0600 -0.4161  1.2149
19746TIP3   OH280728   5.636   1.904   2.614 -0.0947 -0.9749  0.0784
19746TIP3    H180729   5.545   1.932   2.602 -0.4659 -1.6513  1.2764
19746TIP3    H280730   5.685   1.957   2.552 -1.1266  0.4106  0.4280
19747TIP3   OH280731   5.778   5.210   4.069 -0.0651 -0.2130  0.2783
19747TIP3    H180732   5.737   5.235   4.152  0.1168  2.7832 -0.4650
19747TIP3    H280733   5.704   5.193   4.011 -0.2663  1.6364 -0.0415
19748TIP3   OH280734   0.174   0.922  13.450 -0.3736  0.0345 -0.0803
19748TIP3    H180735   0.189   0.885  13.363 -1.3352 -1.6974  0.4683
19748TIP3    H280736   0.254   0.971  13.470  0.8200 -1.5353 -0.9463
19749TIP3   OH280737   6.471   3.870   5.386 -0.1340  0.6464 -0.4220
19749TIP3    H180738   6.428   3.883   5.471  0.8815 -0.7497  0.3084
19749TIP3    H280739   6.493   3.777   5.384  3.1660  1.3915 -0.6383
19750TIP3   OH280740   0.298   6.604  13.585 -0.1229  0.0607 -0.0294
19750TIP3    H180741   0.350   6.682  13.605 -0.2893 -0.2200  1.5187
19750TIP3    H280742   0.233   6.600  13.655  0.3153 -1.8537  0.3023
19751TIP3   OH280743   4.452   1.274  16.846  0.2006  0.4074  0.2054
19751TIP3    H180744   4.428   1.221  16.770 -0.9641 -0.3317  1.0522
19751TIP3    H280745   4.402   1.355  16.835 -0.7429 -0.0985  0.6657
19752TIP3   OH280746   6.110   0.341   2.455 -0.0498 -0.2417 -0.0227
19752TIP3    H180747   6.148   0.338   2.367  0.4563 -4.2830  0.2404
19752TIP3    H280748   6.180   0.378   2.509  0.8950 -0.9205 -0.7546
19753TIP3   OH280749   1.952   2.294   6.215 -0.1141 -0.2770 -0.1780
19753TIP3    H180750   1.939   2.371   6.159  2.8626  1.1487  0.9885
19753TIP3    H280751   1.960   2.221   6.154 -2.7648  0.3288 -1.3214
19754TIP3   OH280752   5.698   2.457  16.475 -0.1459  0.1612  0.0109
19754TIP3    H180753   5.679   2.370  16.439  1.5119 -1.1024  2.1245
19754TIP3    H280754   5.787   2.476  16.446 -0.1015  0.6844  0.4818
19755TIP3   OH280755   0.928   4.737   0.040  0.5332  0.0036 -0.1439
19755TIP3    H180756   0.976   4.767   0.117 -0.4548 -1.9639  1.2815
19755TIP3    H280757   0.858   4.682   0.076 -0.2535 -0.5214 -2.4294
19756TIP3   OH280758   2.483   4.669   0.966  0.3175  0.3398  0.3947
19756TIP3    H180759   2.555   4.616   0.932  0.4769  1.1660 -0.5926
19756TIP3    H280760   2.488   4.750   0.916 -0.0754  1.1872  1.7257
19757TIP3   OH280761   4.692   0.682   3.241 -0.0578  0.1952 -0.2108
19757TIP3    H180762   4.631   0.746   3.205 -1.1423 -0.8355 -0.2188
19757TIP3    H280763   4.645   0.640   3.312  0.5405 -0.7901 -0.3826
19758TIP3   OH280764   2.119   5.430   5.376  0.3289  0.4442 -0.3177
19758TIP3    H180765   2.031   5.394   5.386  0.9124 -1.1807 -0.9290
19758TIP3    H280766   2.161   5.374   5.311  2.4846 -0.0722  1.4444
19759TIP3   OH280767   3.954   2.132   3.179  0.2797  0.1602 -0.4609
19759TIP3    H180768   3.861   2.153   3.182  0.5486  1.1993  1.3344
19759TIP3    H280769   3.981   2.127   3.271  1.6874 -1.5559 -0.9288
19760TIP3   OH280770   2.378   3.308   5.143  0.7353  0.2416 -0.1217
19760TIP3    H180771   2.454   3.274   5.095 -0.1457  0.4454 -1.7121
19760TIP3    H280772   2.307   3.309   5.078 -1.1534 -1.7588  1.8168
19761TIP3   OH280773   2.274   3.038   4.475 -0.8507  0.3139 -0.0071
19761TIP3    H180774   2.248   2.968   4.416  1.3740 -0.4585 -0.1083
19761TIP3    H280775   2.315   3.104   4.417  0.5681 -0.0673  0.5392
19762TIP3   OH280776   0.052   6.458  11.670 -0.3253 -0.4880 -0.1627
19762TIP3    H180777   0.129   6.435  11.722  0.0999  0.6272 -0.2927
19762TIP3    H280778   0.030   6.377  11.625  1.4930 -0.5367 -1.0357
19763TIP3   OH280779   2.475   2.104   0.917 -0.0992  0.7354 -0.4687
19763TIP3    H180780   2.414   2.079   0.848 -0.4759  0.8871 -0.1917
19763TIP3    H280781   2.423   2.157   0.978 -0.1432 -0.6429  0.7296
19764TIP3   OH280782   2.930   4.087   2.333  0.5311 -0.6352 -0.0424
19764TIP3    H180783   2.931   4.169   2.284 -0.3410 -0.4642  0.2118
19764TIP3    H280784   3.013   4.044   2.311  0.7938  0.1117 -0.5145
19765TIP3   OH280785   4.991   0.966   0.006  0.1298  0.0095 -0.2643
19765TIP3    H180786   5.038   0.883   0.016  1.6502  0.7438 -1.1959
19765TIP3    H280787   5.026   1.022   0.075 -1.2136 -0.2471  0.6446
19766TIP3   OH280788   0.765   3.525   5.391 -0.1255  0.0592  0.0479
19766TIP3    H180789   0.758   3.474   5.310 -1.9193  1.2739 -0.6001
19766TIP3    H280790   0.769   3.616   5.362 -0.4289  0.4822  1.3083
19767TIP3   OH280791   1.783   0.928   0.019 -0.2848 -0.3194  0.4123
19767TIP3    H180792   1.690   0.926  -0.007 -0.2192 -0.6752  0.2009
19767TIP3    H280793   1.818   0.845  -0.012 -0.0216 -0.4183  0.9671
19768TIP3   OH280794   1.833   4.109   4.405 -0.5085 -0.2309  0.1302
19768TIP3    H180795   1.765   4.148   4.351 -2.5994 -1.0111  2.1295
19768TIP3    H280796   1.825   4.153   4.490  2.8042  1.0766 -0.1232
19769TIP3   OH280797   3.634   1.634   5.339 -0.0070 -0.1964  0.6591
19769TIP3    H180798   3.581   1.565   5.300  0.7195 -0.7765  0.6643
19769TIP3    H280799   3.723   1.616   5.308  0.5559 -0.5465  2.3643
19770TIP3   OH280800   2.314   1.570   1.482 -0.5906  0.6971 -0.1815
19770TIP3    H180801   2.355   1.656   1.469  0.9309 -0.1646 -1.2255
19770TIP3    H280802   2.241   1.569   1.419  0.4279  0.5781 -1.3772
19771TIP3   OH280803   1.052   4.330  11.512 -0.1850  1.1300 -0.2703
19771TIP3    H180804   1.111   4.322  11.437 -0.2733  0.9161 -0.3151
19771TIP3    H280805   1.087   4.405  11.561  0.3433  0.7807 -0.1033
19772TIP3   OH280806   0.048   3.840  16.868 -0.1539  0.0463  0.0608
19772TIP3    H180807   0.028   3.930  16.893  0.7859  0.1233  0.5319
19772TIP3    H280808   0.135   3.844  16.828 -1.2777 -0.1955 -2.5666
19773TIP3   OH280809   5.932   3.668   3.401 -0.3340  0.2218  0.0319
19773TIP3    H180810   6.000   3.731   3.376 -0.3644 -0.3949 -1.7114
19773TIP3    H280811   5.850   3.709   3.377 -0.3356 -0.5773 -1.4347
19774TIP3   OH280812   4.619   6.731   2.906 -0.0004 -0.0191  0.4122
19774TIP3    H180813   4.606   6.655   2.850  1.0077 -0.9627  1.4279
19774TIP3    H280814   4.592   6.702   2.993  0.8829  0.6106  0.9059
19775TIP3   OH280815   6.651   1.629   3.089 -0.2072  0.2912 -0.3708
19775TIP3    H180816   6.603   1.623   3.172  0.3801  0.5562 -0.0066
19775TIP3    H280817   6.584   1.643   3.023 -0.6741  0.1558  0.0708
19776TIP3   OH280818   0.773   5.766   3.725  0.3840  0.0054 -0.8295
19776TIP3    H180819   0.764   5.673   3.704 -0.7978 -0.0873  0.0508
19776TIP3    H280820   0.759   5.811   3.642 -3.3127 -0.4034 -0.4985
19777TIP3   OH280821   1.121   3.749   0.172  0.4960 -0.1645  0.7076
19777TIP3    H180822   1.105   3.743   0.077 -0.1468  0.2651  0.7925
19777TIP3    H280823   1.130   3.658   0.200  2.1120 -0.2483 -0.0121
19778TIP3   OH280824   4.029   2.110  17.240  0.4096 -0.2680 -0.0688
19778TIP3    H180825   4.077   2.192  17.249 -0.4408  0.1059  1.1067
19778TIP3    H280826   3.951   2.121  17.295 -1.4170 -0.5771 -2.5129
19779TIP3   OH280827   5.098   6.361   0.680 -0.4847 -0.0464  0.6242
19779TIP3    H180828   5.149   6.279   0.683 -1.2993 -0.5365  1.3289
19779TIP3    H280829   5.111   6.400   0.766  1.0668  1.2980 -0.2023
19780TIP3   OH280830   1.226   3.394   4.163 -0.0330 -0.3187  0.0128
19780TIP3    H180831   1.303   3.419   4.214 -0.5303 -1.2024  1.2271
19780TIP3    H280832   1.187   3.322   4.212 -2.6710  1.3226  0.4297
19781TIP3   OH280833   4.518   0.876  12.054 -0.0766  0.3175  0.2219
19781TIP3    H180834   4.490   0.797  12.008 -0.5842 -0.1417  1.3067
19781TIP3    H280835   4.586   0.846  12.115 -0.6497  0.6181  1.0216
19782TIP3   OH280836   2.842   6.523   2.676  0.0342 -0.0387 -0.6182
19782TIP3    H180837   2.869   6.597   2.730 -1.9562 -0.0115  0.3935
19782TIP3    H280838   2.918   6.465   2.673  0.9865  1.1732  0.1145
19783TIP3   OH280839   5.361   1.749   2.303 -0.2673  0.2167  0.7676
19783TIP3    H180840   5.299   1.726   2.234  1.6567 -0.2430 -0.8678
19783TIP3    H280841   5.393   1.835   2.278  1.1447 -0.3570  0.5491
19784TIP3   OH280842   0.000   2.220  12.850  0.2532 -0.5935 -0.4011
19784TIP3    H180843  -0.095   2.214  12.855  0.3164 -1.2831  0.2099
19784TIP3    H280844   0.018   2.308  12.819 -0.5585  0.0054  0.7787
19785TIP3   OH280845   2.180   2.810  15.989  0.3571 -0.3311  0.2210
19785TIP3    H180846   2.256   2.830  15.934  0.6518  0.1973  0.8186
19785TIP3    H280847   2.108   2.858  15.947  0.6548  0.3623  0.4950
19786TIP3   OH280848   4.274   2.134   5.530  0.2637  0.1683 -0.2789
19786TIP3    H180849   4.286   2.045   5.497 -0.5665  0.2297 -0.7570
19786TIP3    H280850   4.183   2.138   5.558 -0.1303  1.3064 -1.6400
19787TIP3   OH280851   6.213   1.121  12.296  0.3808 -0.0004 -0.3358
19787TIP3    H180852   6.203   1.150  12.386 -0.5104  0.6366 -0.6335
19787TIP3    H280853   6.305   1.096  12.289  0.5106  0.1736  0.6808
19788TIP3   OH280854   2.803   6.214  13.324 -0.1327  0.3273 -0.3478
19788TIP3    H180855   2.710   6.201  13.305  0.2158  0.3296 -2.1060
19788TIP3    H280856   2.845   6.138  13.285  0.5807  0.1359  0.7731
19789TIP3   OH280857   2.836   4.429   4.035 -0.0341 -0.3917 -0.5512
19789TIP3    H180858   2.776   4.491   3.993 -0.2753  0.4819  1.0584
19789TIP3    H280859   2.779   4.373   4.088  0.3573 -0.9111 -0.6839
19790TIP3   OH280860   2.579   2.224   0.674  0.0928 -0.1316  0.2004
19790TIP3    H180861   2.640   2.291   0.706  0.1356  0.1322 -0.4250
19790TIP3    H280862   2.583   2.155   0.740  2.0965 -0.7229 -0.5151
19791TIP3   OH280863   4.530   6.338  11.927 -0.0115 -0.2245 -0.0544
19791TIP3    H180864   4.571   6.252  11.921  0.2109 -0.0744 -0.8308
19791TIP3    H280865   4.594   6.392  11.973 -1.1725 -1.0767  2.6028
19792TIP3   OH280866   1.801   0.331   3.142 -0.1679 -0.5688 -0.2217
19792TIP3    H180867   1.883   0.378   3.153 -0.1759 -0.8217  0.9861
19792TIP3    H280868   1.734   0.393   3.173 -0.3457 -0.7024 -0.3371
19793TIP3   OH280869   0.108   0.057   1.963 -0.0047  0.4977  0.6986
19793TIP3    H180870   0.107   0.032   1.871  2.2532 -0.2671  0.8478
19793TIP3    H280871   0.201   0.066   1.985 -0.4985  0.5780  2.9295
19794TIP3   OH280872   2.432   2.937   4.689  0.7519  0.9010 -0.7244
19794TIP3    H180873   2.492   3.010   4.703 -1.3416  2.6355 -0.4576
19794TIP3    H280874   2.365   2.972   4.630 -0.0427 -0.9537 -0.9792
19795TIP3   OH280875   1.274   2.224   0.000  0.3354  0.0440  0.2893
19795TIP3    H180876   1.180   2.214  -0.017  0.6398 -1.9965 -0.3659
19795TIP3    H280877   1.309   2.262  -0.080  0.2419 -0.3364  0.0619
19796TIP3   OH280878   3.414   1.407   3.147  0.3723 -0.3577  0.9577
19796TIP3    H180879   3.378   1.474   3.088 -0.5508 -1.1916  0.5593
19796TIP3    H280880   3.454   1.457   3.218 -1.2988  0.6243  1.2387
19797TIP3   OH280881   0.707   2.580   5.417 -1.1127  0.3160 -0.2897
19797TIP3    H180882   0.743   2.626   5.340 -0.1437 -0.2510 -0.1760
19797TIP3    H280883   0.726   2.488   5.401 -0.7558  0.2108  0.7168
19798TIP3   OH280884   4.604   1.418  14.837  0.4490 -0.8151  0.2669
19798TIP3    H180885   4.553   1.374  14.906 -1.8581 -1.3301 -1.6845
19798TIP3    H280886   4.693   1.387  14.851 -0.5783 -3.7605  0.8617
19799TIP3   OH280887   6.462   4.510   0.327  0.3889 -0.1492 -0.1501
19799TIP3    H180888   6.496   4.572   0.263  1.4227 -1.8171 -1.2625
19799TIP3    H280889   6.394   4.461   0.281  1.3069 -1.5263 -0.0870
19800TIP3   OH280890   2.620   4.792  17.195  0.4546  0.1292 -0.0996
19800TIP3    H180891   2.605   4.806  17.101  0.9285 -0.3439 -0.2500
19800TIP3    H280892   2.714   4.808  17.206  0.9289 -2.3165 -0.1892
19801TIP3   OH280893   6.103   0.800   4.948  0.1690  0.1649 -0.1778
19801TIP3    H180894   6.147   0.758   5.022 -1.3190 -1.7392 -0.3181
19801TIP3    H280895   6.021   0.833   4.984 -0.8751 -1.3634 -1.0617
19802TIP3   OH280896   4.389   1.421  16.263  0.0835 -0.7911  0.0322
19802TIP3    H180897   4.300   1.433  16.295 -0.2454 -0.2476 -1.0726
19802TIP3    H280898   4.443   1.425  16.343 -0.9811 -2.5383  0.8581
19803TIP3   OH280899   6.193   1.320   5.385  0.2641 -0.0346 -0.2130
19803TIP3    H180900   6.287   1.311   5.401 -0.0138 -1.0198  0.9702
19803TIP3    H280901   6.161   1.371   5.459 -0.4555 -1.4855  0.4894
19804TIP3   OH280902   4.956   5.736  12.974  0.1790 -0.4502 -0.1550
19804TIP3    H180903   4.941   5.642  12.985  0.1402 -0.2726  1.3628
19804TIP3    H280904   5.025   5.758  13.036  0.3073  0.5040 -0.6160
19805TIP3   OH280905   2.801   2.680  16.910  0.1889 -0.5075 -0.3849
19805TIP3    H180906   2.846   2.598  16.928  1.4090 -0.0126 -1.1444
19805TIP3    H280907   2.753   2.665  16.829  1.3987 -0.0948 -1.1896
19806TIP3   OH280908   3.349   2.306  13.960  0.4952  0.3274  1.0561
19806TIP3    H180909   3.313   2.227  13.999  1.3007  0.3307  1.8171
19806TIP3    H280910   3.433   2.279  13.924  0.0833  0.4902 -0.0634
19807TIP3   OH280911   5.683   0.880  12.705 -0.0515 -0.6351 -0.7016
19807TIP3    H180912   5.588   0.878  12.714  0.0902  2.6568  2.3390
19807TIP3    H280913   5.698   0.925  12.622 -1.1031 -1.0963 -1.1551
19808TIP3   OH280914   2.503   6.717  15.557 -0.5828  0.0522 -0.0017
19808TIP3    H180915   2.518   6.676  15.472  1.6294  1.3302 -0.2579
19808TIP3    H280916   2.451   6.795  15.538  0.0674  0.4371 -0.2141
19809TIP3   OH280917   3.971   6.317   2.680  0.4675 -0.5584  0.1068
19809TIP3    H180918   3.889   6.320   2.728  1.2626 -3.6012  1.7966
19809TIP3    H280919   4.038   6.304   2.747  2.1362  0.0366 -1.3897
19810TIP3   OH280920   3.110   5.367  10.918  0.3161 -0.0931  0.1445
19810TIP3    H180921   3.124   5.388  11.010 -0.4996 -0.0923  0.2721
19810TIP3    H280922   3.078   5.277  10.918  0.4255 -0.1338 -0.1464
19811TIP3   OH280923   4.810   5.521   2.401  0.2419 -0.0809 -0.4304
19811TIP3    H180924   4.734   5.544   2.454  0.5698  1.1590 -0.4989
19811TIP3    H280925   4.858   5.603   2.389 -0.3059 -0.1183 -3.4211
19812TIP3   OH280926   6.025   2.588  11.831 -0.5450 -0.5345  0.2799
19812TIP3    H180927   6.057   2.551  11.749 -0.8284 -0.4357  0.1255
19812TIP3    H280928   5.986   2.514  11.878  0.7805 -0.8542  0.8985
19813TIP3   OH280929   5.896   3.242  12.936 -0.4271 -0.3223  0.2897
19813TIP3    H180930   5.877   3.175  12.870 -2.0011  0.7277 -0.3400
19813TIP3    H280931   5.984   3.273  12.913 -0.9217 -0.0333 -1.2719
19814TIP3   OH280932   0.024   4.819  14.447  0.0615  0.3891  0.5759
19814TIP3    H180933  -0.058   4.830  14.398  1.0351  2.5565 -0.6636
19814TIP3    H280934   0.091   4.813  14.379  1.0659 -0.0884  1.6040
19815TIP3   OH280935   0.615   4.787  13.052  0.1514 -0.3267  0.2220
19815TIP3    H180936   0.585   4.877  13.049 -0.0977 -0.3421  1.6474
19815TIP3    H280937   0.654   4.777  13.139  0.5027 -1.4774 -0.0482
19816TIP3   OH280938   3.737   1.465  15.137  0.6668  0.2036 -0.1909
19816TIP3    H180939   3.799   1.532  15.165  1.2483  0.3319 -1.7797
19816TIP3    H280940   3.652   1.508  15.138  0.8991  0.6590 -0.2091
19817TIP3   OH280941   2.860   0.430   5.356 -0.3294  0.2123  0.2454
19817TIP3    H180942   2.905   0.346   5.361 -1.1617 -0.6250 -4.1145
19817TIP3    H280943   2.929   0.492   5.330 -0.4906  0.0830 -0.5029
19818TIP3   OH280944   6.470   1.469   3.852  0.4860  0.0862 -0.2666
19818TIP3    H180945   6.490   1.552   3.895  1.9426 -1.1669  1.5699
19818TIP3    H280946   6.436   1.414   3.922 -1.1264 -0.6543 -1.6110
19819TIP3   OH280947   4.299   5.807  13.493 -0.5185 -0.2831 -0.2614
19819TIP3    H180948   4.219   5.767  13.461 -1.0019  1.6602 -1.5874
19819TIP3    H280949   4.270   5.866  13.562 -0.2267  0.3436 -0.6688
19820TIP3   OH280950   1.590   5.667   0.654 -0.3070  0.2744 -0.3807
19820TIP3    H180951   1.501   5.641   0.628 -0.0203 -0.5176 -0.5954
19820TIP3    H280952   1.577   5.730   0.724 -1.0687  1.0847 -1.2410
19821TIP3   OH280953   5.514   0.664  14.192 -0.0355 -0.2429 -0.5425
19821TIP3    H180954   5.431   0.679  14.239 -0.6707 -3.6744 -0.4287
19821TIP3    H280955   5.581   0.676  14.259 -0.6123  0.0556 -0.0042
19822TIP3   OH280956   2.774   5.794  14.792  0.7636  0.0161 -0.2925
19822TIP3    H180957   2.681   5.782  14.773  0.3150  0.7860  1.3000
19822TIP3    H280958   2.812   5.706  14.785 -0.1197 -0.3246 -0.7820
19823TIP3   OH280959   4.364   6.532   1.336 -0.9159 -0.1086  0.1775
19823TIP3    H180960   4.373   6.623   1.362 -0.0904 -0.1531  0.0815
19823TIP3    H280961   4.315   6.490   1.407 -0.7421  0.2714  0.5201
19824TIP3   OH280962   3.461   0.766   0.994  0.1113  0.0685  0.2345
19824TIP3    H180963   3.536   0.816   0.962  0.3507 -0.4049  0.0582
19824TIP3    H280964   3.494   0.720   1.071 -0.5648  1.5026  1.4062
19825TIP3   OH280965   1.797   4.392  11.173  0.6534 -0.1631 -0.1794
19825TIP3    H180966   1.725   4.352  11.125  1.4116 -0.5346 -1.0078
19825TIP3    H280967   1.761   4.476  11.203 -0.4314 -0.7608  0.2453
19826TIP3   OH280968   6.729   1.697   4.857 -0.1285 -0.1630  0.3432
19826TIP3    H180969   6.809   1.645   4.863  0.6783  1.0687  0.4426
19826TIP3    H280970   6.752   1.781   4.897 -1.0248  0.7286 -0.9637
19827TIP3   OH280971   4.572   3.264   2.063  0.2847 -0.4101  0.4054
19827TIP3    H180972   4.667   3.273   2.051  0.0447 -1.9867 -3.2239
19827TIP3    H280973   4.537   3.349   2.038  0.6952  0.1174  1.5731
19828TIP3   OH280974   5.196   6.096  15.122  0.2122  0.0544  0.1939
19828TIP3    H180975   5.123   6.050  15.162 -0.5784  1.5535  0.4817
19828TIP3    H280976   5.171   6.188  15.122  1.9491  0.5594 -0.0024
19829TIP3   OH280977   3.304   1.649  16.558 -0.3737 -0.0993 -0.1320
19829TIP3    H180978   3.366   1.577  16.571 -0.7978 -0.5149 -0.3970
19829TIP3    H280979   3.257   1.655  16.642 -0.2042 -0.0051 -0.0431
19830TIP3   OH280980   2.393   4.640  16.639  0.2520  0.3167 -0.6266
19830TIP3    H180981   2.341   4.666  16.715  0.9856  0.0639 -0.0432
19830TIP3    H280982   2.469   4.596  16.675 -0.1459 -1.1503 -1.5579
19831TIP3   OH280983   2.089   3.579  17.176  0.1474  0.3126 -0.4551
19831TIP3    H180984   2.035   3.531  17.114  0.3081  0.5147 -0.7514
19831TIP3    H280985   2.105   3.663  17.133  1.6430 -0.1628 -0.8520
19832TIP3   OH280986   3.436   5.709  15.559  0.1397  0.1902  0.2590
19832TIP3    H180987   3.530   5.714  15.543  0.1114 -0.7792 -0.2387
19832TIP3    H280988   3.427   5.649  15.633  0.0776  2.3823  2.0612
19833TIP3   OH280989   0.960   5.321   3.662  0.2219  0.0246  0.7920
19833TIP3    H180990   0.991   5.338   3.573  3.3142 -1.1983  1.5637
19833TIP3    H280991   0.878   5.273   3.650  1.4719 -1.6325 -1.4614
19834TIP3   OH280992   0.766   5.153  12.570 -0.5982 -0.2444 -0.5062
19834TIP3    H180993   0.756   5.171  12.477  0.0180 -0.9090 -0.7071
19834TIP3    H280994   0.796   5.237  12.607  1.9218 -0.6895 -1.3772
19835TIP3   OH280995   2.877   0.595   0.449  0.5996 -0.1490 -0.5413
19835TIP3    H180996   2.831   0.610   0.367  3.1221 -1.3541 -2.2229
19835TIP3    H280997   2.904   0.683   0.478 -2.8735  0.6120  0.6240
19836TIP3   OH280998   3.699   4.371   6.148 -0.4943  0.2184 -0.8920
19836TIP3    H180999   3.673   4.303   6.210  2.0751  2.2734  2.6118
19836TIP3    H281000   3.788   4.347   6.123 -0.6815  0.6731 -2.0285
19837TIP3   OH281001   6.402   2.423   0.539 -0.0824  0.0470  0.0049
19837TIP3    H181002   6.497   2.425   0.551  0.0040 -1.3295 -0.3513
19837TIP3    H281003   6.371   2.505   0.579  1.1411 -0.0032  1.0967
19838TIP3   OH281004   1.626   0.944   4.478  0.4617 -0.1301 -0.2909
19838TIP3    H181005   1.674   0.871   4.516 -0.1597 -0.5874 -0.3865
19838TIP3    H281006   1.552   0.958   4.537 -0.3458 -0.6583 -1.1647
19839TIP3   OH281007   5.311   2.539  14.048  0.0358  0.0278  0.5296
19839TIP3    H181008   5.335   2.485  13.973  1.5045 -0.6480  1.4695
19839TIP3    H281009   5.283   2.623  14.010  1.7307  0.0478 -0.7290
19840TIP3   OH281010   0.895   3.437   2.010 -0.2658  0.0942 -0.1683
19840TIP3    H181011   0.964   3.466   2.070 -0.3621  1.7593 -0.8451
19840TIP3    H281012   0.813   3.458   2.055 -0.3759 -3.2695  1.3033
19841TIP3   OH281013   1.507   6.732  16.552 -0.2686  0.5498 -0.1780
19841TIP3    H181014   1.572   6.770  16.493 -0.1345 -0.0792 -0.4384
19841TIP3    H281015   1.556   6.667  16.602 -0.7617 -0.1170 -0.5662
19842TIP3   OH281016   0.106   5.625   0.539 -0.1098  0.1591  0.2473
19842TIP3    H181017   0.152   5.551   0.578 -1.9468  0.3560  2.9386
19842TIP3    H281018   0.175   5.677   0.499  1.7223 -0.8462  1.9596
19843TIP3   OH281019   3.908   0.471   5.091  0.8790 -0.4017  0.2620
19843TIP3    H181020   3.879   0.540   5.152 -0.2454  1.6748 -2.5373
19843TIP3    H281021   3.862   0.393   5.121 -1.1500  1.0023  0.9994
19844TIP3   OH281022   2.428   5.088  16.023  0.2468  0.4308 -0.1374
19844TIP3    H181023   2.413   5.073  15.930  2.1110  3.2315 -0.9630
19844TIP3    H281024   2.502   5.032  16.046 -1.2276 -1.4638  0.0833
19845TIP3   OH281025   1.592   4.508   2.364 -0.0891 -0.5323 -0.1964
19845TIP3    H181026   1.645   4.504   2.284 -0.3799 -0.2370 -0.4071
19845TIP3    H281027   1.541   4.589   2.355  0.9652  0.2676  0.9720
19846TIP3   OH281028   4.275   3.936   4.426 -0.3462  0.0062 -0.2477
19846TIP3    H181029   4.200   3.896   4.381 -2.2689 -1.4474  4.0386
19846TIP3    H281030   4.246   4.025   4.446  0.2455  0.4216 -1.1788
19847TIP3   OH281031   3.722   1.868  12.073  0.3173  0.8094  0.1507
19847TIP3    H181032   3.781   1.936  12.040 -0.5923  1.2812 -0.5277
19847TIP3    H281033   3.765   1.786  12.050  1.8270  1.1343  1.6886
19848TIP3   OH281034   6.713   5.739  17.172 -0.5887  0.3887  0.0063
19848TIP3    H181035   6.620   5.760  17.183 -1.1799 -1.5936 -0.8508
19848TIP3    H281036   6.716   5.643  17.178  1.6014  0.4983  1.4067
19849TIP3   OH281037   6.564   0.860  10.901  0.1779  0.0215  0.2189
19849TIP3    H181038   6.550   0.877  10.994 -0.1351  0.7894  0.0350
19849TIP3    H281039   6.656   0.882  10.887  0.9110 -2.4930  0.8691
19850TIP3   OH281040   4.723   5.585   1.078 -0.0720  0.1576  0.1308
19850TIP3    H181041   4.715   5.678   1.057  0.4726  0.5830  1.7088
19850TIP3    H281042   4.640   5.563   1.119 -0.4076 -0.1891 -0.7351
19851TIP3   OH281043   6.597   0.726  16.255 -0.3932  0.4817 -0.1807
19851TIP3    H181044   6.568   0.654  16.311  0.0377  1.0145  0.7310
19851TIP3    H281045   6.677   0.693  16.213 -1.3566 -0.3616 -1.4180
19852TIP3   OH281046   4.572   3.289   2.846  0.3848  0.3435 -0.1507
19852TIP3    H181047   4.545   3.373   2.883  0.8111  0.4299 -0.0262
19852TIP3    H281048   4.508   3.271   2.777 -1.6905 -0.8709  2.0493
19853TIP3   OH281049   6.183   4.348   5.611  0.7072  0.3271 -0.2482
19853TIP3    H181050   6.116   4.352   5.679  0.3958 -1.6311 -0.4155
19853TIP3    H281051   6.136   4.371   5.530 -0.0547 -2.1338 -0.5423
19854TIP3   OH281052   0.765   3.077   0.132 -0.4481 -0.3604 -0.4505
19854TIP3    H181053   0.773   3.160   0.180 -0.7398 -0.4031 -0.3253
19854TIP3    H281054   0.813   3.014   0.186  1.3516  0.0889 -1.4623
19855TIP3   OH281055   3.060   4.984   3.354  0.3943  0.5334 -0.0818
19855TIP3    H181056   3.059   4.891   3.334 -1.0511  0.8798 -1.7057
19855TIP3    H281057   3.152   5.009   3.346  0.8381 -0.8030  0.6893
19856TIP3   OH281058   6.276   4.621   4.164 -0.0413 -0.5968 -0.6768
19856TIP3    H181059   6.283   4.686   4.233  0.5303 -0.4398 -0.8763
19856TIP3    H281060   6.231   4.547   4.205  0.5815 -0.6311 -0.0505
19857TIP3   OH281061   3.855   1.254   1.083 -0.2528  0.2146 -0.2283
19857TIP3    H181062   3.935   1.307   1.085  0.4217 -0.8552  2.4882
19857TIP3    H281063   3.885   1.163   1.081 -1.4024 -0.1664 -1.1218
19858TIP3   OH281064   6.759   5.760  14.716 -0.7497 -0.6129 -0.3946
19858TIP3    H181065   6.678   5.749  14.665 -0.5378 -0.2918 -0.8024
19858TIP3    H281066   6.779   5.854  14.710 -0.5642 -0.6223  0.0400
19859TIP3   OH281067   5.759   0.408  14.898 -0.2063 -0.3097 -0.7941
19859TIP3    H181068   5.704   0.388  14.974  1.5175 -1.1245  0.2910
19859TIP3    H281069   5.794   0.495  14.915  1.2745 -1.0502  0.0497
19860TIP3   OH281070   0.285   2.966  13.679  0.1854 -0.1854  0.3880
19860TIP3    H181071   0.237   3.032  13.729 -0.5536 -0.2544 -0.2360
19860TIP3    H281072   0.323   2.908  13.746  0.5322  0.6545  0.9218
19861TIP3   OH281073   1.651   5.662   3.716 -0.1138  0.0628 -0.5032
19861TIP3    H181074   1.648   5.636   3.624 -1.4795 -0.6632 -0.2620
19861TIP3    H281075   1.737   5.633   3.746  0.0515 -0.3481 -1.3587
19862TIP3   OH281076   5.788   2.050   1.495 -0.5081 -0.3270  0.4042
19862TIP3    H181077   5.858   2.002   1.451 -0.4013 -1.2791  1.5767
19862TIP3    H281078   5.831   2.125   1.536 -0.4598  0.0465 -0.3318
19863TIP3   OH281079   3.252   4.130  16.670 -0.1390 -0.3846 -0.3948
19863TIP3    H181080   3.202   4.211  16.656 -1.2721 -0.9059  0.6137
19863TIP3    H281081   3.196   4.076  16.725  0.2027 -2.2643 -1.8440
19864TIP3   OH281082   4.869   1.179   5.871  0.5186  0.2786 -0.0513
19864TIP3    H181083   4.863   1.274   5.881  1.6370  0.2678  0.7434
19864TIP3    H281084   4.797   1.144   5.923  0.8367  0.6423  0.6327
19865TIP3   OH281085   0.501   6.604  15.619 -0.6956  0.2526  0.2266
19865TIP3    H181086   0.442   6.647  15.682  0.4087  1.6146  0.3681
19865TIP3    H281087   0.574   6.666  15.609  1.4349 -2.0283  1.1727
19866TIP3   OH281088   6.612   3.047  16.413 -0.8392 -0.2246 -0.1923
19866TIP3    H181089   6.655   2.961  16.406  0.3614  0.2556  0.9844
19866TIP3    H281090   6.603   3.077  16.323  0.9058 -0.5276 -0.4808
19867TIP3   OH281091   1.853   1.265  12.900  0.0441  0.6442 -0.0737
19867TIP3    H181092   1.927   1.311  12.941  0.7544 -0.5469  0.0096
19867TIP3    H281093   1.885   1.244  12.812  0.8630 -2.3083  0.8780
19868TIP3   OH281094   3.056   3.775  15.943  0.3121 -0.4131  0.5408
19868TIP3    H181095   3.002   3.851  15.925  2.0130  0.9298  1.0110
19868TIP3    H281096   3.038   3.715  15.870  0.5543  1.3203 -0.9838
19869TIP3   OH281097   2.784   2.729   3.840  0.6776  0.0734  0.2317
19869TIP3    H181098   2.789   2.715   3.745  2.0199  1.0742  0.1443
19869TIP3    H281099   2.856   2.678   3.876 -0.7405 -1.5214  0.8797
19870TIP3   OH281100   5.260   1.485  14.502  0.0839  0.4064  0.0159
19870TIP3    H181101   5.356   1.489  14.505  0.2088  0.5328 -3.0657
19870TIP3    H281102   5.235   1.450  14.587  2.7659  2.1236  1.5927
19871TIP3   OH281103   0.630   1.352  11.270 -0.1995 -0.4573 -0.1003
19871TIP3    H181104   0.719   1.379  11.249 -0.0575 -0.4595  0.4956
19871TIP3    H281105   0.577   1.431  11.256  0.3720  0.4851  2.6948
19872TIP3   OH281106   2.730   2.916  13.560  0.5577 -0.4313  0.3086
19872TIP3    H181107   2.701   2.871  13.481 -0.3585 -0.6443  0.7584
19872TIP3    H281108   2.794   2.980  13.530 -0.5723  0.2101 -0.7150
19873TIP3   OH281109   0.903   1.585   3.369 -0.0488 -0.6465 -0.0444
19873TIP3    H181110   0.957   1.513   3.401 -0.6765 -1.0293  0.1436
19873TIP3    H281111   0.813   1.556   3.382 -0.3120 -0.3137 -1.0287
19874TIP3   OH281112   4.436   6.032   0.513 -0.3476 -0.0914 -0.0115
19874TIP3    H181113   4.518   6.072   0.485  0.5487 -0.1372  2.3868
19874TIP3    H281114   4.382   6.105   0.542 -1.2843 -0.0347 -1.8774
19875TIP3   OH281115   3.233   3.339  13.035  0.5688 -0.4790  0.1712
19875TIP3    H181116   3.203   3.306  12.951 -0.6769 -1.7924  1.1178
19875TIP3    H281117   3.212   3.432  13.033 -0.7082 -0.7717 -0.4291
19876TIP3   OH281118   0.704   4.531  12.549  0.1088 -0.2767 -0.0974
19876TIP3    H181119   0.757   4.461  12.586  0.1362  0.2497  0.8600
19876TIP3    H281120   0.698   4.597  12.618 -0.6139  0.2982 -0.6902
19877TIP3   OH281121   5.185   4.633   2.171  0.2318 -0.5251  0.1723
19877TIP3    H181122   5.105   4.587   2.196  0.6286 -0.7098  1.1113
19877TIP3    H281123   5.177   4.720   2.211  0.1227 -0.2551 -0.4282
19878TIP3   OH281124   3.301   3.008   2.715 -0.4153  0.0762  0.0877
19878TIP3    H181125   3.237   3.062   2.669  1.6959  2.9797  0.4492
19878TIP3    H281126   3.364   2.982   2.648 -0.5244 -0.5422  0.2264
19879TIP3   OH281127   6.489   5.899  12.909 -0.4398  0.3176  0.4217
19879TIP3    H181128   6.563   5.955  12.934 -0.0427  0.1437 -0.3327
19879TIP3    H281129   6.480   5.837  12.981  0.3158  0.1809  0.4038
19880TIP3   OH281130   3.670   3.489  15.078 -0.5424  0.2468  0.0874
19880TIP3    H181131   3.697   3.398  15.094 -0.8242 -0.2156 -1.9190
19880TIP3    H281132   3.655   3.525  15.166  0.1550 -1.4592  0.9422
19881TIP3   OH281133   6.413   5.288  16.974  1.2014  0.3526 -0.2985
19881TIP3    H181134   6.483   5.225  16.989 -1.1511 -1.9570  1.5902
19881TIP3    H281135   6.442   5.367  17.019  1.9972 -1.0370  1.6966
19882TIP3   OH281136   4.607   1.341  14.553  0.0753  0.0807  0.2618
19882TIP3    H181137   4.575   1.376  14.636  0.4492  2.6008 -0.6125
19882TIP3    H281138   4.639   1.253  14.575 -1.6196 -0.0579  2.3692
19883TIP3   OH281139   4.006   6.497   3.739  0.3581  0.0825 -0.2760
19883TIP3    H181140   3.950   6.488   3.816 -0.8537  3.0813 -0.7539
19883TIP3    H281141   3.971   6.433   3.677  1.0839 -2.0679  1.4517
19884TIP3   OH281142   2.017   5.170  13.984  0.4985 -0.3161 -0.3716
19884TIP3    H181143   2.109   5.146  13.998  0.2693 -0.4188  1.0897
19884TIP3    H281144   2.021   5.256  13.943  1.2701 -0.8895 -1.5135
19885TIP3   OH281145   2.897   5.365   6.063  0.1870 -0.4574 -0.1574
19885TIP3    H181146   2.806   5.385   6.045  0.6781  1.2122 -0.8642
19885TIP3    H281147   2.947   5.421   6.003  1.6838 -0.4749  1.0325
19886TIP3   OH281148   2.281   6.240   1.754 -0.0019  0.6343 -0.0558
19886TIP3    H181149   2.311   6.298   1.684 -1.8075  1.0311 -0.5250
19886TIP3    H281150   2.317   6.155   1.732  0.3928  1.0006 -0.8444
19887TIP3   OH281151   5.326   6.814  16.708 -0.6590  0.1754 -0.3543
19887TIP3    H181152   5.381   6.877  16.662 -1.4193  0.2743 -1.1335
19887TIP3    H281153   5.253   6.866  16.742 -1.6421 -0.3799 -1.5750
19888TIP3   OH281154   1.108   5.384   2.240 -0.4478 -0.0021 -0.0502
19888TIP3    H181155   1.104   5.432   2.157 -1.6750  1.3688  0.7742
19888TIP3    H281156   1.199   5.392   2.268 -0.5092  1.3464 -0.2151
19889TIP3   OH281157   5.171   6.796   3.488  0.0412  0.0345 -0.4016
19889TIP3    H181158   5.263   6.802   3.465 -0.5639  1.7425 -2.6305
19889TIP3    H281159   5.145   6.886   3.509 -1.5784 -0.0669 -1.8558
19890TIP3   OH281160   1.704   1.485   4.130 -0.3216  0.4502 -0.3226
19890TIP3    H181161   1.719   1.458   4.221 -1.6054  3.9827  1.0072
19890TIP3    H281162   1.791   1.504   4.096 -0.1393  3.4884  1.6632
19891TIP3   OH281163   5.932   2.772  16.494  0.4270  0.5246 -0.2032
19891TIP3    H181164   6.000   2.815  16.442 -0.9445 -0.2504 -2.7288
19891TIP3    H281165   5.937   2.680  16.470 -0.8109  0.2908  0.3755
19892TIP3   OH281166   3.940   6.733  15.778 -0.0835 -0.2375 -0.0856
19892TIP3    H181167   3.848   6.740  15.804 -0.3590 -1.3493 -0.7286
19892TIP3    H281168   3.942   6.763  15.687  0.0765 -0.8561 -0.2887
19893TIP3   OH281169   0.978   5.563   3.198  0.0749  0.0111 -0.1122
19893TIP3    H181170   0.985   5.550   3.104 -2.1242  0.5634 -0.3688
19893TIP3    H281171   0.946   5.653   3.208  0.4477  0.0186  1.1734
19894TIP3   OH281172   5.848   3.777   6.626  0.1649 -0.0116  0.0169
19894TIP3    H181173   5.886   3.836   6.691  1.0609  0.6551 -1.0837
19894TIP3    H281174   5.819   3.701   6.676 -0.4784  1.1119  1.3805
19895TIP3   OH281175   0.385   1.050   4.028  0.3834  0.1982  0.5856
19895TIP3    H181176   0.410   1.100   4.106  0.4848 -1.1475  1.4247
19895TIP3    H281177   0.349   0.968   4.062 -0.1949 -0.1259 -0.7685
19896TIP3   OH281178   1.379   0.384  15.892 -0.1948  0.4072  0.4740
19896TIP3    H181179   1.309   0.414  15.950 -0.4236  0.6758  0.0610
19896TIP3    H281180   1.338   0.317  15.838  0.5542 -1.3687  2.0270
19897TIP3   OH281181   4.622   5.853  15.349  0.0539 -0.7462  0.0867
19897TIP3    H181182   4.575   5.782  15.306  0.1757 -0.6404 -0.2259
19897TIP3    H281183   4.652   5.909  15.277 -2.0580  0.8979  0.4115
19898TIP3   OH281184   4.614   5.536  17.171  0.1933 -0.0419 -0.1151
19898TIP3    H181185   4.540   5.513  17.227  0.2688 -1.1957 -0.4693
19898TIP3    H281186   4.657   5.608  17.216 -0.3130 -0.3153  0.8200
19899TIP3   OH281187   4.559   1.061  13.124 -0.1969  0.2224  0.0696
19899TIP3    H181188   4.534   0.974  13.156 -0.7505  0.2349 -0.3109
19899TIP3    H281189   4.475   1.103  13.103  0.0935  0.6893 -0.1532
19900TIP3   OH281190   2.185   4.110  17.060  0.1413 -0.0266  0.2681
19900TIP3    H181191   2.098   4.088  17.025  0.5374 -1.7167  0.3089
19900TIP3    H281192   2.215   4.182  17.005 -0.7702 -0.2541 -0.5508
19901TIP3   OH281193   4.195   3.788   5.464 -0.1806 -0.8125 -0.1860
19901TIP3    H181194   4.238   3.781   5.549 -1.4623 -1.7605  0.4145
19901TIP3    H281195   4.205   3.701   5.425 -1.0935 -0.8902 -0.2531
19902TIP3   OH281196   5.739   4.569  11.373 -0.2165  0.1615 -0.2030
19902TIP3    H181197   5.701   4.566  11.461  0.1201  1.2313 -0.0089
19902TIP3    H281198   5.675   4.525  11.318 -0.5312 -0.3309  0.5440
19903TIP3   OH281199   2.038   2.283  16.309  0.3614  0.1646 -0.1385
19903TIP3    H181200   1.990   2.201  16.318 -1.1335  0.7483 -2.3420
19903TIP3    H281201   2.041   2.319  16.398  0.1744 -1.7832  0.6868
19904TIP3   OH281202   5.211   3.138  14.430 -0.2833 -0.6638 -0.0164
19904TIP3    H181203   5.299   3.136  14.393  0.8698  1.0435  2.4708
19904TIP3    H281204   5.190   3.232  14.436 -0.2939 -0.8423  3.7905
19905TIP3   OH281205   3.626   1.588   1.974  0.3133  0.5001 -0.5217
19905TIP3    H181206   3.563   1.517   1.986  2.2876 -0.9177  1.9629
19905TIP3    H281207   3.631   1.630   2.059  1.0523  2.0509 -1.3130
19906TIP3   OH281208   2.894   4.277   4.915  0.5738 -0.3750  0.5460
19906TIP3    H181209   2.890   4.182   4.903  1.8857 -0.4854  0.8452
19906TIP3    H281210   2.887   4.290   5.009 -1.3381 -0.0488  0.3765
19907TIP3   OH281211   3.162   5.555   5.987 -0.1215  0.1054  0.7356
19907TIP3    H181212   3.189   5.559   5.895  1.0372 -1.6525  0.9810
19907TIP3    H281213   3.221   5.616   6.031 -0.2725  0.4969  0.3963
19908TIP3   OH281214   4.662   1.950   6.345 -0.4760 -0.5200 -0.0734
19908TIP3    H181215   4.606   1.894   6.291  1.0204 -1.5161 -0.6151
19908TIP3    H281216   4.601   1.998   6.401 -2.0505  0.1990 -2.3156
19909TIP3   OH281217   5.582   3.957   3.252  0.0893 -0.4832 -0.6837
19909TIP3    H181218   5.627   4.037   3.280  0.9824 -0.5750 -1.8343
19909TIP3    H281219   5.503   3.955   3.306  1.6819 -0.5931  1.7617
19910TIP3   OH281220   0.486   2.900   1.436  0.4247  0.0272 -0.4396
19910TIP3    H181221   0.394   2.921   1.416  1.0254  0.1094 -3.2549
19910TIP3    H281222   0.482   2.811   1.471 -0.7916  0.2605  0.0550
19911TIP3   OH281223   1.245   6.581   5.703 -0.2834  0.4346 -0.1694
19911TIP3    H181224   1.228   6.647   5.636 -1.2363 -1.1441 -1.5197
19911TIP3    H281225   1.195   6.610   5.779 -0.6299  1.3052 -0.7172
19912TIP3   OH281226   1.057   0.187  11.577  0.4037  0.5597  0.4530
19912TIP3    H181227   1.052   0.103  11.530 -0.3059  0.9595 -0.1912
19912TIP3    H281228   0.979   0.187  11.633 -0.7884  1.7464 -1.1641
19913TIP3   OH281229   1.670   5.969   4.771 -0.1650 -0.1948 -0.1732
19913TIP3    H181230   1.760   5.987   4.799 -0.8148 -0.4661  2.2283
19913TIP3    H281231   1.640   6.051   4.733 -0.2174  1.1702  2.7053
19914TIP3   OH281232   2.515   5.873  15.871  0.4273 -0.4832 -0.1943
19914TIP3    H181233   2.452   5.917  15.929 -0.2688  2.0891 -2.8012
19914TIP3    H281234   2.589   5.934  15.865  0.9624 -1.2151 -1.1611
19915TIP3   OH281235   5.020   4.755  16.421 -0.3261  0.4733  0.1020
19915TIP3    H181236   4.990   4.670  16.454  1.2779 -0.6475 -1.2275
19915TIP3    H281237   4.954   4.780  16.356  0.6419 -1.1371 -1.5503
19916TIP3   OH281238   1.952   0.494   5.046  0.4618 -0.0673  0.8076
19916TIP3    H181239   1.861   0.477   5.067  0.3431  1.6072  1.7497
19916TIP3    H281240   2.001   0.428   5.094 -0.2874 -1.4707 -0.3312
19917TIP3   OH281241   3.926   4.526  11.958  0.4370  0.1396  0.1044
19917TIP3    H181242   3.951   4.562  12.043 -0.9398  1.7828 -0.1579
19917TIP3    H281243   3.872   4.449  11.979  0.3302  0.3793  0.7168
19918TIP3   OH281244   2.563   5.719  13.527  0.3728  0.3215 -0.4945
19918TIP3    H181245   2.539   5.749  13.440 -0.8022  0.1613 -0.2283
19918TIP3    H281246   2.510   5.772  13.587  1.6127  0.8532  0.1521
19919TIP3   OH281247   2.944   5.645  16.791  0.6428  0.0263 -0.1767
19919TIP3    H181248   2.905   5.599  16.866  0.4668 -1.1793 -0.9915
19919TIP3    H281249   2.871   5.696  16.755 -0.0614 -1.7188 -1.3015
19920TIP3   OH281250   4.949   6.794  17.137  0.1668  0.3852  0.0455
19920TIP3    H181251   5.032   6.840  17.139  0.8645 -0.9012  2.2553
19920TIP3    H281252   4.895   6.837  17.204 -0.7217  0.8008 -0.9236
19921TIP3   OH281253   1.210   6.095   0.925 -0.8563 -0.4015 -0.2677
19921TIP3    H181254   1.116   6.103   0.935 -0.6235  3.6269 -0.3600
19921TIP3    H281255   1.247   6.144   0.999  1.1661 -1.5585 -0.4538
19922TIP3   OH281256   0.329   0.074  11.994 -0.3892  0.7495  0.5207
19922TIP3    H181257   0.352  -0.000  12.050 -0.5962  0.8264  0.7087
19922TIP3    H281258   0.368   0.053  11.909 -1.2361 -0.0072  0.3151
19923TIP3   OH281259   1.440   2.342   2.722  0.1605 -0.1170 -0.4610
19923TIP3    H181260   1.392   2.422   2.744  0.3784  0.2294 -1.2306
19923TIP3    H281261   1.494   2.326   2.799  0.7663  0.9749 -0.6412
19924TIP3   OH281262   1.130   3.801  15.636 -0.6383 -0.1076  0.1543
19924TIP3    H181263   1.196   3.754  15.686 -0.5110 -0.2454 -0.1464
19924TIP3    H281264   1.166   3.889  15.626 -0.4260 -0.2295 -0.1534
19925TIP3   OH281265   5.314   4.744  13.020 -0.3064 -0.0976  0.5917
19925TIP3    H181266   5.252   4.739  12.948 -1.0621  0.6517  1.1845
19925TIP3    H281267   5.331   4.652  13.043 -2.4408 -0.2998  1.4762
19926TIP3   OH281268   2.360   5.769  11.234 -0.3786  0.1693  0.1905
19926TIP3    H181269   2.275   5.770  11.278 -0.9669  0.2965 -0.9305
19926TIP3    H281270   2.366   5.855  11.192 -0.2612 -0.3071 -0.7828
19927TIP3   OH281271   5.828   6.502   1.948  0.1153 -0.3077 -0.4342
19927TIP3    H181272   5.772   6.486   1.872 -0.6012  2.0061 -0.4163
19927TIP3    H281273   5.894   6.563   1.917  0.1230  0.2550  0.6591
19928TIP3   OH281274   2.766   6.173   0.766  0.3529 -0.2883  0.0809
19928TIP3    H181275   2.853   6.143   0.743 -0.0507 -1.5373  0.1693
19928TIP3    H281276   2.763   6.263   0.734  0.4233 -1.3770 -3.1500
19929TIP3   OH281277   2.157   1.264  16.165 -0.1461  0.0621  0.1717
19929TIP3    H181278   2.192   1.205  16.098  0.3835 -0.5153  0.9470
19929TIP3    H281279   2.124   1.206  16.234 -0.2427  0.6528  0.6309
19930TIP3   OH281280   5.692   6.783  16.296  0.2916  0.1185  0.1072
19930TIP3    H181281   5.634   6.853  16.265  0.0651 -0.2104 -0.2218
19930TIP3    H281282   5.773   6.828  16.322  0.2093  0.4807 -0.2584
19931TIP3   OH281283   5.454   3.077  10.824  0.1740  0.1253  0.6297
19931TIP3    H181284   5.390   3.016  10.862 -1.0245  1.2556  0.4499
19931TIP3    H281285   5.401   3.142  10.778  1.5599 -1.0841 -2.8525
19932TIP3   OH281286   5.336   4.743  13.548 -0.0994 -0.2589  0.0518
19932TIP3    H181287   5.321   4.739  13.642 -0.8674  2.6327  0.0999
19932TIP3    H281288   5.264   4.796  13.515  1.9174  1.4546 -1.7352
19933TIP3   OH281289   2.552   5.323   3.409  0.3069  0.1056  0.2750
19933TIP3    H181290   2.590   5.307   3.495  0.2369 -0.1791  0.2537
19933TIP3    H281291   2.609   5.390   3.370  1.2754 -0.8905 -0.0686
19934TIP3   OH281292   0.733   3.484  14.324  0.8592  0.3024 -0.3484
19934TIP3    H181293   0.662   3.549  14.326  1.0161  0.4162  2.4165
19934TIP3    H281294   0.800   3.524  14.269  0.6230  2.1577  0.6667
19935TIP3   OH281295   4.368   5.452  16.659 -0.2011  0.0339  0.0202
19935TIP3    H181296   4.400   5.497  16.737  0.5376  0.1929 -0.3778
19935TIP3    H281297   4.276   5.479  16.652 -0.7360 -1.2282  1.7364
19936TIP3   OH281298   6.323   1.153  13.111 -0.3701  0.5304 -0.6091
19936TIP3    H181299   6.233   1.134  13.083 -0.6107  2.1506 -1.0143
19936TIP3    H281300   6.318   1.243  13.145  0.6314 -0.1552  1.4681
19937TIP3   OH281301   3.311   3.480   1.232 -0.4444  0.2763 -0.0088
19937TIP3    H181302   3.217   3.469   1.217 -0.2877 -0.4392 -0.5061
19937TIP3    H281303   3.335   3.409   1.292 -0.9258  2.7145  3.1620
19938TIP3   OH281304   0.275   0.669  14.352 -0.2526  0.5844  0.2918
19938TIP3    H181305   0.282   0.743  14.292 -0.0521 -1.2335 -1.9658
19938TIP3    H281306   0.357   0.620  14.340 -0.1484  0.2703  2.1527
19939TIP3   OH281307   6.627   0.261   3.496 -0.2470  0.2904 -0.4181
19939TIP3    H181308   6.581   0.329   3.545 -2.6393 -1.0996 -0.6844
19939TIP3    H281309   6.589   0.265   3.408  0.2823 -0.7604 -0.7019
19940TIP3   OH281310   1.696   6.690   2.589 -0.4063  0.2514  0.1766
19940TIP3    H181311   1.661   6.605   2.561 -0.8666  0.1353  1.0926
19940TIP3    H281312   1.777   6.699   2.539 -0.6447 -0.4589 -0.3656
19941TIP3   OH281313   6.476   6.569  15.049  0.4749  0.4853 -0.2123
19941TIP3    H181314   6.393   6.567  15.000  0.3984 -1.0037 -0.0499
19941TIP3    H281315   6.522   6.645  15.013 -0.2309  0.3279 -1.5231
19942TIP3   OH281316   4.072   1.700  13.251  0.4041  0.5617  0.1705
19942TIP3    H181317   3.987   1.678  13.215  0.4471  0.5516  0.0763
19942TIP3    H281318   4.106   1.616  13.284 -0.6081  0.9442  2.2778
19943TIP3   OH281319   5.973   3.387   1.322  0.5260 -0.2991  0.2445
19943TIP3    H181320   6.050   3.398   1.377  0.6025  0.6440 -0.0454
19943TIP3    H281321   5.917   3.462   1.343  0.0670 -0.5203 -0.1626
19944TIP3   OH281322   0.852   2.188  14.310 -0.0029  0.1131  0.5294
19944TIP3    H181323   0.864   2.143  14.393 -0.4090  2.3381  1.8393
19944TIP3    H281324   0.926   2.248  14.305 -0.6917  0.9193 -0.0792
19945TIP3   OH281325   3.711   3.750   2.839 -0.4699  0.6775  0.2404
19945TIP3    H181326   3.677   3.704   2.762  0.1672  0.4406  0.0942
19945TIP3    H281327   3.647   3.818   2.857 -0.7464  0.5785 -0.3580
19946TIP3   OH281328   1.409   1.724  16.102  0.0916  0.3075 -0.5804
19946TIP3    H181329   1.344   1.656  16.122 -2.0601  1.9900 -1.6463
19946TIP3    H281330   1.438   1.704  16.013  0.6097 -0.0834 -0.3309
19947TIP3   OH281331   1.843   3.900   6.042 -0.3125 -0.1084 -0.2974
19947TIP3    H181332   1.789   3.967   6.082  0.2918  0.8586 -1.0834
19947TIP3    H281333   1.782   3.846   5.992 -0.4963  1.3370 -1.6776
19948TIP3   OH281334   4.131   1.037   5.415 -0.3490 -0.0701 -0.3863
19948TIP3    H181335   4.091   1.040   5.328  0.2305 -0.6898 -0.6763
19948TIP3    H281336   4.067   1.079   5.472 -0.4485  0.9443 -1.2215
19949TIP3   OH281337   2.055   1.028   4.714 -0.1541 -0.0930  0.2702
19949TIP3    H181338   2.066   0.967   4.788 -0.4046 -1.1987 -0.5891
19949TIP3    H281339   2.039   0.971   4.639  0.3257  1.0240 -0.6808
19950TIP3   OH281340   5.706   4.359   0.900 -0.2938 -0.0836 -0.6790
19950TIP3    H181341   5.712   4.314   0.985 -0.6055 -0.1958 -0.7149
19950TIP3    H281342   5.782   4.329   0.851  1.0230  1.5414  0.3103
19951TIP3   OH281343   3.069   3.788  17.201 -0.4054 -0.3450  0.0887
19951TIP3    H181344   3.022   3.813  17.281  0.0071 -0.0216  0.2275
19951TIP3    H281345   3.081   3.870  17.153  0.6880 -0.3104  0.4099
19952TIP3   OH281346   2.285   1.742   0.659  0.0666  0.0168 -0.2489
19952TIP3    H181347   2.309   1.828   0.694 -1.9373  0.6597 -0.3839
19952TIP3    H281348   2.290   1.752   0.564  0.4608 -0.2048 -0.2513
19953TIP3   OH281349   2.466   5.302   0.613  0.1609 -0.2584  0.0199
19953TIP3    H181350   2.555   5.298   0.578 -0.0147 -0.8929 -0.3647
19953TIP3    H281351   2.411   5.317   0.536 -0.0453  0.3192  0.2815
19954TIP3   OH281352   1.379   2.121  14.195  0.4980 -0.2281  0.4154
19954TIP3    H181353   1.378   2.028  14.173  0.6039 -0.2801  0.6343
19954TIP3    H281354   1.466   2.151  14.168  0.2113 -0.0339 -0.3188
19955TIP3   OH281355   2.674   0.944  14.928 -0.9973  0.4764  0.6971
19955TIP3    H181356   2.709   0.856  14.916 -4.0054 -0.7301  0.3443
19955TIP3    H281357   2.715   0.995  14.858 -0.9130 -1.1467 -0.4760
19956TIP3   OH281358   0.530   6.074  14.120 -0.4107 -0.6100 -0.9633
19956TIP3    H181359   0.564   5.995  14.162 -2.7750 -1.0126  0.2601
19956TIP3    H281360   0.604   6.135  14.120  0.5790 -1.7917  0.7574
19957TIP3   OH281361   0.694   4.842  14.027 -0.5840 -0.5519 -0.0542
19957TIP3    H181362   0.606   4.867  14.000 -0.9090  0.0353  1.5113
19957TIP3    H281363   0.750   4.913  13.996 -0.8814 -0.1339  0.3689
19958TIP3   OH281364   6.487   6.073   5.770  0.4128  0.1052  0.0367
19958TIP3    H181365   6.424   6.016   5.815  2.5860 -2.1733  0.3305
19958TIP3    H281366   6.482   6.047   5.678 -0.6508  1.4926 -0.3168
19959TIP3   OH281367   4.502   0.094   3.927  0.6506 -0.1307  0.4353
19959TIP3    H181368   4.413   0.128   3.926  0.0147 -1.6626  1.8251
19959TIP3    H281369   4.553   0.161   3.973 -0.0203  0.2254  0.6622
19960TIP3   OH281370   2.949   0.455  11.818 -0.2317 -0.1188  0.7881
19960TIP3    H181371   2.916   0.506  11.744 -2.1313 -0.5445  1.3148
19960TIP3    H281372   3.020   0.402  11.781  0.2002  1.1769 -0.2693
19961TIP3   OH281373   3.642   2.223   5.382  0.3638 -0.1485  0.0919
19961TIP3    H181374   3.669   2.274   5.459  0.7894 -0.6849  0.3005
19961TIP3    H281375   3.580   2.280   5.337  1.3365  0.8546 -0.0329
19962TIP3   OH281376   6.439   5.958  10.622  0.3923  0.7457  0.2763
19962TIP3    H181377   6.403   5.943  10.709  1.6124  2.1131  1.0271
19962TIP3    H281378   6.408   6.046  10.598  1.5973  1.1327  0.1172
19963TIP3   OH281379   4.233   6.306  12.063  0.0897  0.3477  0.2419
19963TIP3    H181380   4.285   6.225  12.069  0.2601  0.3019 -1.4670
19963TIP3    H281381   4.298   6.376  12.072 -0.1691  0.3151  2.5613
19964TIP3   OH281382   4.579   4.696   4.427  0.0309  0.6312  0.2980
19964TIP3    H181383   4.651   4.757   4.407  1.4948 -0.7531  1.2525
19964TIP3    H281384   4.581   4.687   4.523  0.0352 -1.1587  0.1417
19965TIP3   OH281385   0.669   6.119  14.468  0.0552 -0.1550 -0.5895
19965TIP3    H181386   0.646   6.032  14.435 -0.4854  0.0929 -0.8601
19965TIP3    H281387   0.593   6.146  14.520 -0.0421  0.4247 -1.0297
19966TIP3   OH281388   6.506   0.331   4.942 -0.3837 -0.2088  0.7915
19966TIP3    H181389   6.597   0.357   4.958 -0.4076 -0.2476  0.9900
19966TIP3    H281390   6.502   0.316   4.848 -0.5097  1.0457  0.5842
19967TIP3   OH281391   1.348   3.585   5.966  0.0562 -0.0160  0.3893
19967TIP3    H181392   1.364   3.494   5.939 -1.3527  0.4775 -2.1555
19967TIP3    H281393   1.358   3.582   6.062  0.0034 -2.8531  0.3705
19968TIP3   OH281394   0.600   1.520   5.450  0.0000  0.2249 -0.2674
19968TIP3    H181395   0.508   1.547   5.444 -1.0954 -2.7012  1.6601
19968TIP3    H281396   0.632   1.523   5.360 -2.0058  1.2278 -0.9852
19969TIP3   OH281397   2.168   3.866   5.177 -0.0369  0.1147  0.4950
19969TIP3    H181398   2.203   3.904   5.257 -0.2519 -0.5715  0.9189
19969TIP3    H281399   2.084   3.911   5.165 -0.0183  0.1994  0.6717
19970TIP3   OH281400   4.974   4.234  12.822  0.4301 -0.7519 -0.5795
19970TIP3    H181401   4.954   4.171  12.892  0.6084 -0.0725  0.0871
19970TIP3    H281402   5.016   4.181  12.754  0.6772 -1.3442  0.0260
19971TIP3   OH281403   5.960   5.452  15.613  0.2125  0.5812  0.4609
19971TIP3    H181404   5.940   5.462  15.706 -0.3670 -1.6985  0.6029
19971TIP3    H281405   5.875   5.440  15.571  0.6055 -0.2706 -0.1099
19972TIP3   OH281406   2.547   4.238   5.702 -0.5599 -0.5763  0.0164
19972TIP3    H181407   2.568   4.211   5.792 -0.0549 -0.1735  0.0246
19972TIP3    H281408   2.481   4.307   5.713  0.2169  0.1554  0.1277
19973TIP3   OH281409   4.179   6.267  16.349  0.2343 -0.3965  0.0161
19973TIP3    H181410   4.141   6.180  16.352 -0.8436  0.1281  2.4541
19973TIP3    H281411   4.103   6.326  16.349  0.9819  0.5756  0.9286
19974TIP3   OH281412   2.511   3.756   3.413  0.3236 -0.1393  0.0021
19974TIP3    H181413   2.572   3.787   3.346  1.1341  1.7309  1.5671
19974TIP3    H281414   2.555   3.775   3.496 -2.2974  1.0078  1.1574
19975TIP3   OH281415   4.573   6.292   1.493 -0.1713  0.8595 -0.1542
19975TIP3    H181416   4.649   6.278   1.549 -0.1200  0.4802 -0.3187
19975TIP3    H281417   4.510   6.340   1.548 -0.3449 -0.0049  0.4037
19976TIP3   OH281418   0.555   6.584  16.199 -0.2735 -0.3799  0.2593
19976TIP3    H181419   0.537   6.490  16.189 -2.6997  0.0017  0.6646
19976TIP3    H281420   0.513   6.624  16.123  0.7592  0.3938  0.0883
19977TIP3   OH281421   0.799   2.622   2.452 -0.2663 -0.3844  0.5967
19977TIP3    H181422   0.880   2.651   2.494 -0.4110  1.1054 -0.1203
19977TIP3    H281423   0.731   2.678   2.490 -0.7931 -0.8677  0.3741
19978TIP3   OH281424   6.394   0.107  15.974 -0.1725 -0.1512 -0.1097
19978TIP3    H181425   6.443   0.119  15.892  1.4869  0.2855  0.9269
19978TIP3    H281426   6.457   0.129  16.043 -1.5531 -0.5281  1.2922
19979TIP3   OH281427   2.677   0.091   2.045 -0.2704 -0.0853 -0.0087
19979TIP3    H181428   2.634   0.052   2.121  2.3299  0.0852  1.6256
19979TIP3    H281429   2.737   0.023   2.014 -0.9262  0.0413 -1.5884
19980TIP3   OH281430   4.123   3.350   4.728 -0.0602  0.0464  0.7110
19980TIP3    H181431   4.083   3.274   4.770 -2.0941  1.0144  0.5580
19980TIP3    H281432   4.050   3.398   4.689  1.2888  1.6394  0.0707
19981TIP3   OH281433   2.266   5.761   0.570 -0.6747 -0.1042  0.0163
19981TIP3    H181434   2.350   5.740   0.529 -0.5362 -0.3621  0.4243
19981TIP3    H281435   2.205   5.772   0.497 -0.2857  0.0776 -0.2805
19982TIP3   OH281436   5.053   4.524  14.815  0.0906  0.2677 -0.0129
19982TIP3    H181437   5.011   4.597  14.769  1.2667  0.9147 -0.0653
19982TIP3    H281438   5.133   4.562  14.852  0.3927 -0.8498  0.4816
19983TIP3   OH281439   5.477   5.178  10.727  0.5790  0.2392  0.0161
19983TIP3    H181440   5.506   5.263  10.695 -0.9090  0.3897 -1.0169
19983TIP3    H281441   5.466   5.125  10.648 -0.4285 -0.2699  0.4853
19984TIP3   OH281442   5.359   6.292   2.651  0.1211 -0.2704 -0.0105
19984TIP3    H181443   5.430   6.273   2.712 -0.2917  0.2764  0.6334
19984TIP3    H281444   5.284   6.310   2.706 -0.4675 -0.6189 -0.6929
19985TIP3   OH281445   5.372   1.276   5.789  0.3362 -0.6761 -0.2125
19985TIP3    H181446   5.311   1.251   5.858  0.3007 -1.5726 -0.5658
19985TIP3    H281447   5.317   1.288   5.711  0.4860 -0.5314 -0.2967
19986TIP3   OH281448   5.572   5.857   6.577  0.2556  0.0755  0.0215
19986TIP3    H181449   5.566   5.883   6.669  0.1903  2.2710 -0.5626
19986TIP3    H281450   5.600   5.937   6.532  2.0208 -1.4201 -1.6441
19987TIP3   OH281451   0.008   4.559  16.946 -0.0852 -0.2324 -0.2585
19987TIP3    H181452  -0.032   4.488  16.996 -0.0658  0.6632  1.0601
19987TIP3    H281453   0.098   4.531  16.931  0.3348  0.1346  1.5115
19988TIP3   OH281454   4.382   1.390   0.580 -0.3751  0.0180  0.5172
19988TIP3    H181455   4.399   1.484   0.579  1.2648 -0.2614 -1.6852
19988TIP3    H281456   4.437   1.357   0.651 -2.5467  0.9408  2.7130
19989TIP3   OH281457   0.002   1.893  11.942  0.0189  0.4928 -0.3362
19989TIP3    H181458  -0.002   1.799  11.926 -0.3987  0.6763 -1.4069
19989TIP3    H281459   0.088   1.907  11.981  0.8514 -0.0975 -1.8998
19990TIP3   OH281460   5.955   6.683   1.532 -0.4706 -0.2272 -0.1086
19990TIP3    H181461   6.021   6.750   1.551 -0.2283 -0.7088  0.7941
19990TIP3    H281462   5.874   6.719   1.569 -0.3724 -0.3667  0.2413
19991TIP3   OH281463   2.100   4.668   6.069 -0.9308  0.0498  0.7571
19991TIP3    H181464   2.159   4.646   6.141  1.3126  1.8355 -0.5054
19991TIP3    H281465   2.097   4.588   6.016 -0.0719 -0.2201  1.1035
19992TIP3   OH281466   1.297   4.037  13.715 -0.2140 -0.4652 -0.6612
19992TIP3    H181467   1.377   4.084  13.738  0.0640 -0.8548 -0.8382
19992TIP3    H281468   1.327   3.956  13.674 -0.6983 -0.5522 -0.8488
19993TIP3   OH281469   5.388   5.217  12.442 -0.4789 -0.0419  0.4913
19993TIP3    H181470   5.435   5.266  12.374 -0.4465 -0.9165 -0.1155
19993TIP3    H281471   5.444   5.142  12.461 -1.4053 -0.8316  0.1011
19994TIP3   OH281472   3.883   5.790  11.166 -0.5427 -0.1714  0.3205
19994TIP3    H181473   3.946   5.807  11.096  0.5228 -0.8744  1.0954
19994TIP3    H281474   3.842   5.875  11.183  1.4321  0.6729  0.9809
19995TIP3   OH281475   6.497   6.608  12.647 -0.0083 -0.0112 -0.3839
19995TIP3    H181476   6.556   6.632  12.718  1.6371 -2.5149 -0.8525
19995TIP3    H281477   6.434   6.549  12.687 -1.2823  1.4156 -0.2404
19996TIP3   OH281478   2.855   0.317   2.121  0.2585  0.2643 -0.2364
19996TIP3    H181479   2.770   0.296   2.084  0.7086 -1.5282 -0.2951
19996TIP3    H281480   2.835   0.375   2.195 -0.9049  0.7542 -0.9147
19997TIP3   OH281481   2.027   5.104   2.190 -1.0268 -0.0211  0.1095
19997TIP3    H181482   2.031   5.099   2.286 -0.4781  1.0819  0.1521
19997TIP3    H281483   1.947   5.057   2.167 -1.6052  0.4249  1.1758
19998TIP3   OH281484   1.466   4.384  13.595  0.4253  0.5769  0.2335
19998TIP3    H181485   1.535   4.416  13.536  0.3827 -2.0418 -1.3088
19998TIP3    H281486   1.386   4.389  13.543 -0.2752  1.7476  1.3700
19999TIP3   OH281487   3.962   0.389  15.148 -0.2686  0.3903  0.3364
19999TIP3    H181488   4.010   0.467  15.178  0.2378 -0.1486  0.9483
19999TIP3    H281489   3.966   0.394  15.053 -0.1109  1.0390  0.3701
20000TIP3   OH281490   5.313   1.535   5.608 -0.4295 -0.5982  0.0675
20000TIP3    H181491   5.276   1.447   5.599 -0.6585 -0.4773 -0.1748
20000TIP3    H281492   5.244   1.594   5.577 -0.7401 -0.2510  1.3865
20001TIP3   OH281493   5.879   3.970   3.677  0.4338 -0.3090 -0.1168
20001TIP3    H181494   5.966   3.975   3.717  0.0518  1.4484  0.5299
20001TIP3    H281495   5.882   4.034   3.606 -0.3294 -0.2395 -0.0895
20002TIP3   OH281496   0.445   5.278   3.961  0.2724  0.0600 -0.1340
20002TIP3    H181497   0.499   5.298   3.884 -0.1007 -0.0622 -0.4290
20002TIP3    H281498   0.495   5.312   4.035  0.2068  1.0215 -0.5185
20003TIP3   OH281499   3.184   4.585   4.295 -0.1993 -0.0568 -0.0375
20003TIP3    H181500   3.196   4.490   4.293  2.4760  0.2608 -1.1180
20003TIP3    H281501   3.252   4.616   4.355  0.2714  1.3472 -1.2772
20004TIP3   OH281502   1.802   4.115  15.837  0.1959  0.5268  0.4817
20004TIP3    H181503   1.723   4.167  15.820  0.4434  0.3710 -1.2978
20004TIP3    H281504   1.874   4.169  15.802  0.5306 -0.6797 -0.7512
20005TIP3   OH281505   4.171   4.861   1.803 -0.2169 -0.4578 -0.0469
20005TIP3    H181506   4.092   4.916   1.800  0.1635  0.1258  0.5156
20005TIP3    H281507   4.243   4.923   1.793  0.1964 -0.8948  0.2401
20006TIP3   OH281508   0.458   6.149   0.854 -0.6502  0.0861  0.1843
20006TIP3    H181509   0.522   6.078   0.862  0.3760  1.0940  1.1455
20006TIP3    H281510   0.386   6.110   0.805 -0.4022 -1.8252  1.2695
20007TIP3   OH281511   2.012   5.002   1.281  0.5844 -0.6201  0.2988
20007TIP3    H181512   2.001   4.918   1.235  0.6648 -0.0877 -0.7130
20007TIP3    H281513   1.927   5.018   1.321  0.6273 -1.2854  0.6630
20008TIP3   OH281514   5.452   2.726  12.619  0.0548 -0.2682  0.5163
20008TIP3    H181515   5.509   2.800  12.638  1.1685  0.3428 -4.4456
20008TIP3    H281516   5.364   2.756  12.640  0.5683  2.2492 -0.8391
20009TIP3   OH281517   0.788   2.186  14.868 -0.4759  0.5087  0.3335
20009TIP3    H181518   0.774   2.235  14.787 -2.5420 -0.6613 -0.0672
20009TIP3    H281519   0.848   2.115  14.843 -1.8956 -0.4469 -0.4533
20010TIP3   OH281520   4.781   4.405  15.445 -0.1888 -0.1861 -0.5105
20010TIP3    H181521   4.712   4.401  15.379  0.8042  1.0932 -1.6661
20010TIP3    H281522   4.821   4.318  15.445 -1.2718 -0.6887 -0.3914
20011TIP3   OH281523   3.632   1.121   0.451 -0.5673  0.2434 -0.5059
20011TIP3    H181524   3.720   1.159   0.446 -0.9410  1.1735 -0.1090
20011TIP3    H281525   3.647   1.028   0.469  0.3231  0.5149  0.2037
20012TIP3   OH281526   5.800   2.446   1.475  0.2844  0.2189 -0.1790
20012TIP3    H181527   5.778   2.516   1.415  1.8274  1.0801  0.2425
20012TIP3    H281528   5.730   2.449   1.541 -0.0799  0.8378 -0.5836
20013TIP3   OH281529   1.256   4.795   5.995 -0.1788 -0.5396  0.1800
20013TIP3    H181530   1.310   4.772   6.071 -0.4616 -0.3643  0.4349
20013TIP3    H281531   1.223   4.883   6.015  3.3347  1.3937 -2.1372
20014TIP3   OH281532   5.003   5.679   5.084  0.8211 -0.1655 -0.0428
20014TIP3    H181533   5.052   5.671   5.166  0.6759 -0.9941 -0.0301
20014TIP3    H281534   5.068   5.670   5.015  0.5385 -2.4678 -0.0371
20015TIP3   OH281535   2.432   5.708   0.108  0.1161  0.0656  0.3510
20015TIP3    H181536   2.451   5.760   0.029  0.7534 -0.6423  0.0323
20015TIP3    H281537   2.450   5.768   0.181 -1.8073  1.1749 -0.0412
20016TIP3   OH281538   1.899   5.047   6.380  0.0806  0.0743 -0.1170
20016TIP3    H181539   1.894   5.142   6.373  0.2354 -0.0039 -1.2534
20016TIP3    H281540   1.972   5.032   6.440  1.2945  0.6312 -1.4260
20017TIP3   OH281541   3.857   6.023  14.954  0.3354  0.2774  0.5006
20017TIP3    H181542   3.782   6.081  14.941  0.6680  0.6835  0.3902
20017TIP3    H281543   3.871   6.023  15.048 -1.7716 -2.2851  0.8970
20018TIP3   OH281544   6.371   3.511  16.925  0.4220 -0.0732  0.4532
20018TIP3    H181545   6.458   3.551  16.928 -0.3026  1.6397 -0.7056
20018TIP3    H281546   6.367   3.469  16.839  0.1737 -0.3255  0.5890
20019TIP3   OH281547   3.764   1.316   2.597 -0.0252 -0.2082 -0.1794
20019TIP3    H181548   3.853   1.334   2.628 -0.4097  0.2865  0.6430
20019TIP3    H281549   3.742   1.231   2.635  0.3422 -0.6580 -0.9429
20020TIP3   OH281550   4.368   0.758   1.660  0.4316  0.1559  0.6279
20020TIP3    H181551   4.274   0.749   1.671  0.7980 -3.2463  1.5642
20020TIP3    H281552   4.400   0.784   1.746  0.5250 -0.2477  0.7138
20021TIP3   OH281553   5.063   3.668  11.028  0.0821 -0.2361  0.2754
20021TIP3    H181554   5.097   3.607  11.093  0.0256 -0.0972  0.4342
20021TIP3    H281555   5.092   3.632  10.944 -1.1970 -1.2822  0.2585
20022TIP3   OH281556   4.998   4.625   3.490 -0.0061 -0.2440  0.1074
20022TIP3    H181557   5.021   4.612   3.398 -0.5774 -1.2808  0.1008
20022TIP3    H281558   4.956   4.711   3.492 -0.6903 -0.5503 -0.7331
20023TIP3   OH281559   0.286   4.488  11.166  0.0588  0.3053  0.4638
20023TIP3    H181560   0.305   4.578  11.191  0.6259  0.1730  0.5170
20023TIP3    H281561   0.368   4.441  11.181 -0.2625 -0.2380  0.5257
20024TIP3   OH281562   0.832   3.941   5.938 -0.3470  0.1403  0.1764
20024TIP3    H181563   0.815   4.034   5.954  0.9309  0.5660 -0.8279
20024TIP3    H281564   0.746   3.905   5.914 -0.6765  1.2683 -0.4022
20025TIP3   OH281565   3.859   2.465  10.237  0.0270 -0.2055  0.1496
20025TIP3    H181566   3.901   2.551  10.241  3.8538 -1.9228 -1.0392
20025TIP3    H281567   3.908   2.411  10.299 -1.2783 -1.9897 -0.3217
20026TIP3   OH281568   6.056   5.988   5.390  0.2401  0.5631  0.2416
20026TIP3    H181569   6.040   5.914   5.331  0.5962 -0.2835  1.2046
20026TIP3    H281570   6.114   5.953   5.457  1.0750  1.9491  0.2440
20027TIP3   OH281571   5.051   2.878   5.510 -0.5115 -0.0788  0.0865
20027TIP3    H181572   5.134   2.884   5.558 -0.5873 -0.0649  0.2132
20027TIP3    H281573   5.049   2.788   5.477 -0.3824 -0.0396 -0.0290
20028TIP3   OH281574   4.155   5.302  11.119  0.1976  0.1896 -0.1269
20028TIP3    H181575   4.236   5.348  11.142 -0.4249  1.1225  0.2189
20028TIP3    H281576   4.184   5.225  11.070  1.1683  2.0635 -2.5914
20029TIP3   OH281577   1.847   6.002  15.541  0.0892 -0.2858  0.0284
20029TIP3    H181578   1.804   5.938  15.484  0.3977  0.9457 -1.6313
20029TIP3    H281579   1.905   6.051  15.482  0.1489  1.2406  1.3392
20030TIP3   OH281580   1.556   4.530  15.041 -0.0317  0.3239  0.8211
20030TIP3    H181581   1.641   4.504  15.005 -0.6946 -0.6497 -0.0848
20030TIP3    H281582   1.576   4.571  15.125  1.3304  0.1532  0.5854
20031TIP3   OH281583   1.922   1.388  16.945  0.1184 -0.4293  0.1968
20031TIP3    H181584   1.866   1.326  16.991 -1.6723  0.3751 -0.8383
20031TIP3    H281585   1.861   1.445  16.898  1.7576  1.5447  0.4059
20032TIP3   OH281586   2.638   5.111  11.894 -0.1221 -0.3343 -0.1435
20032TIP3    H181587   2.700   5.066  11.836 -0.3900 -1.0101  0.0889
20032TIP3    H281588   2.635   5.056  11.973 -1.0756 -0.3430 -0.1864
20033TIP3   OH281589   2.166   2.985   0.514  0.5929 -0.2918  0.1736
20033TIP3    H181590   2.143   3.055   0.452  0.3910 -0.7420 -0.2573
20033TIP3    H281591   2.205   3.032   0.588  1.0374  0.2292 -0.3837
20034TIP3   OH281592   6.293   4.290   4.098  0.0083 -0.7927  0.4724
20034TIP3    H181593   6.376   4.297   4.145  0.1421 -2.5016  0.5138
20034TIP3    H281594   6.234   4.247   4.159 -0.5103 -0.8698 -0.0756
20035TIP3   OH281595   4.582   1.273   1.611  0.2774 -0.2460 -0.5890
20035TIP3    H181596   4.553   1.232   1.693 -0.4478 -0.0192 -0.7329
20035TIP3    H281597   4.513   1.335   1.589  1.0817  0.6268 -0.6997
20036TIP3   OH281598   5.785   0.433  15.534  0.4132 -0.2504 -0.7156
20036TIP3    H181599   5.782   0.491  15.610  0.4603 -0.8523 -0.2498
20036TIP3    H281600   5.789   0.345  15.572  0.9752 -0.5248 -1.4159
20037TIP3   OH281601   6.508   2.667   1.002  0.2757 -0.1378 -0.2688
20037TIP3    H181602   6.464   2.636   1.081  2.3925  0.6893  1.2721
20037TIP3    H281603   6.507   2.592   0.943 -1.4569 -0.7172  0.4655
20038TIP3   OH281604   1.677   3.308   4.368  0.0599 -0.0846  0.0291
20038TIP3    H181605   1.764   3.271   4.381 -1.0745 -2.6528  0.6042
20038TIP3    H281606   1.636   3.253   4.301 -0.8999  1.5003 -0.7365
20039TIP3   OH281607   4.786   3.332   3.957  0.5956  0.3420 -0.5076
20039TIP3    H181608   4.769   3.289   4.041 -0.9280 -0.0076 -0.9766
20039TIP3    H281609   4.880   3.323   3.944  0.3675 -2.6354 -0.4508
20040TIP3   OH281610   0.820   4.955  16.205  0.2790  0.0806 -0.2465
20040TIP3    H181611   0.908   4.931  16.234  0.6939  0.3638 -1.2519
20040TIP3    H281612   0.826   5.049  16.186 -0.2291  0.0882 -0.3757
20041TIP3   OH281613   1.715   6.093  12.190  0.0780 -0.5954  0.2792
20041TIP3    H181614   1.744   6.012  12.148 -0.8885 -1.2009  0.7515
20041TIP3    H281615   1.760   6.092  12.275  0.7321 -0.2054 -0.0590
20042TIP3   OH281616   1.957   2.691  10.705  0.6076  0.0063  0.0077
20042TIP3    H181617   1.913   2.607  10.714  0.1383  0.3331  0.7889
20042TIP3    H281618   2.030   2.674  10.646 -0.2032 -0.6806 -0.8112
20043TIP3   OH281619   0.289   1.647  11.907  0.8761  0.4784  0.2727
20043TIP3    H181620   0.204   1.636  11.950  1.3565  0.1260  1.1575
20043TIP3    H281621   0.305   1.741  11.909  0.0903  0.6478 -0.7348
20044TIP3   OH281622   4.988   3.009  12.074  0.5374  0.0902  0.1098
20044TIP3    H181623   4.939   3.068  12.017  0.4883  1.0100  1.0936
20044TIP3    H281624   5.019   3.065  12.145  2.2629 -0.6631 -0.0297
20045TIP3   OH281625   3.453   4.336  16.165  0.1749  0.0445  0.1159
20045TIP3    H181626   3.402   4.386  16.229  0.6695  0.2431  0.3589
20045TIP3    H281627   3.517   4.399  16.131  0.1733 -0.1693 -0.2804
20046TIP3   OH281628   1.994   6.324   4.858  0.6994 -0.1676 -0.0142
20046TIP3    H181629   1.990   6.396   4.921 -0.1930  1.4186 -1.8481
20046TIP3    H281630   1.903   6.299   4.844  0.8633 -0.2529 -0.9553
20047TIP3   OH281631   2.726   2.394   6.376  0.1923  0.1143  0.3399
20047TIP3    H181632   2.744   2.475   6.423 -0.3618  0.4853 -0.0859
20047TIP3    H281633   2.693   2.334   6.443  0.2795  0.3464  0.5898
20048TIP3   OH281634   5.162   3.921  11.677 -0.8257 -0.2118  0.0330
20048TIP3    H181635   5.203   3.969  11.605 -0.2706 -0.6481  0.0552
20048TIP3    H281636   5.099   3.864  11.635 -1.8288  0.8659  0.0421
20049TIP3   OH281637   3.351   5.922  13.237 -0.3456  0.4559 -0.4476
20049TIP3    H181638   3.309   5.837  13.225  1.2030 -0.7152  1.9581
20049TIP3    H281639   3.427   5.919  13.179  0.3772 -0.3135  0.5156
20050TIP3   OH281640   0.778   1.031   4.375 -0.1108 -0.9530  0.1068
20050TIP3    H181641   0.815   1.101   4.322 -0.2955 -1.9294 -1.3407
20050TIP3    H281642   0.850   1.005   4.434  0.3485 -0.4055 -0.2071
20051TIP3   OH281643   2.211   5.388  10.957 -0.2383 -0.7722 -0.5667
20051TIP3    H181644   2.211   5.480  10.929 -1.9864 -0.8924 -1.0366
20051TIP3    H281645   2.269   5.344  10.895  2.2817  0.3428  0.9190
20052TIP3   OH281646   2.836   5.056  13.673  0.6466 -0.0420  0.2686
20052TIP3    H181647   2.864   5.030  13.760 -1.9041  0.6793  1.3582
20052TIP3    H281648   2.776   4.987  13.645 -0.8320  1.1498  0.3559
20053TIP3   OH281649   1.157   2.319  10.431 -0.8622  0.5391  0.6302
20053TIP3    H181650   1.171   2.233  10.391 -0.6486 -0.5435  2.9561
20053TIP3    H281651   1.116   2.300  10.515 -0.4362  2.6952  1.3589
20054TIP3   OH281652   5.245   3.978  12.929 -0.3154 -0.1102 -0.0637
20054TIP3    H181653   5.250   3.888  12.897 -0.7717 -0.0808 -0.2211
20054TIP3    H281654   5.332   4.015  12.912 -0.2985 -0.3519 -0.4972
20055TIP3   OH281655   0.056   0.449   1.591 -0.0101  0.0702  0.3400
20055TIP3    H181656  -0.010   0.421   1.527 -0.4248 -1.6930  1.4933
20055TIP3    H281657   0.136   0.404   1.565 -0.1333 -0.5049  0.9249
20056TIP3   OH281658   6.356   1.817  12.621  0.3942 -0.2572 -0.4939
20056TIP3    H181659   6.295   1.888  12.642 -1.9944 -2.3559 -0.1170
20056TIP3    H281660   6.427   1.828  12.684 -0.4854  1.1208  0.2940
20057TIP3   OH281661   2.151   2.082   5.512 -0.2282  0.3244 -0.0651
20057TIP3    H181662   2.161   2.123   5.426 -4.9291 -0.6527 -1.2712
20057TIP3    H281663   2.145   1.988   5.493 -2.8957  0.2100  1.0774
20058TIP3   OH281664   0.089   4.691  16.607  0.2302  0.4284 -0.0163
20058TIP3    H181665  -0.003   4.675  16.626  0.0910  0.5561 -0.5931
20058TIP3    H281666   0.091   4.778  16.568  0.5168  0.1623 -0.6043
20059TIP3   OH281667   1.772   5.405   3.231  0.0433 -1.0257 -0.4054
20059TIP3    H181668   1.750   5.333   3.291  3.2214 -1.4135  0.4160
20059TIP3    H281669   1.850   5.374   3.185  0.1378  1.0077 -1.6509
20060TIP3   OH281670   4.825   5.696   0.003  0.5147  0.0385 -0.0015
20060TIP3    H181671   4.813   5.747   0.083 -0.4726 -0.3524  0.1008
20060TIP3    H281672   4.908   5.651   0.016 -0.0471 -0.6785  1.1673
20061TIP3   OH281673   1.619   0.593  14.523  0.1842 -0.1549  0.2052
20061TIP3    H181674   1.568   0.629  14.450  1.7180  1.5893 -0.0702
20061TIP3    H281675   1.659   0.514  14.488  1.5055  1.0720 -1.1051
20062TIP3   OH281676   6.676   5.805  13.589 -0.1527 -0.1398 -0.4694
20062TIP3    H181677   6.679   5.735  13.524 -0.3990 -1.4100  0.8706
20062TIP3    H281678   6.661   5.885  13.537  1.1746 -0.9184 -2.1031
20063TIP3   OH281679   4.705   4.320  16.528 -0.5009 -0.9834 -0.1602
20063TIP3    H181680   4.687   4.354  16.440 -1.1922 -0.0057  0.3522
20063TIP3    H281681   4.795   4.345  16.546 -0.9888  0.5639  0.1936
20064TIP3   OH281682   1.935   1.342  11.916  0.7649  0.2867 -0.5460
20064TIP3    H181683   1.978   1.257  11.917  2.8771  1.3047 -1.9496
20064TIP3    H281684   1.920   1.361  11.823  1.5745  2.0500 -0.3426
20065TIP3   OH281685   3.450   5.991   4.870  0.4323 -0.2430  0.2748
20065TIP3    H181686   3.398   5.988   4.790  1.3517  0.1997 -0.3443
20065TIP3    H281687   3.540   5.990   4.840  0.8041  1.6691  1.2200
20066TIP3   OH281688   5.197   5.039  14.084 -0.1383 -0.6313 -0.0527
20066TIP3    H181689   5.122   5.083  14.045  0.2942  0.6317  0.4871
20066TIP3    H281690   5.163   4.956  14.116 -1.6255  0.4741  1.3668
20067TIP3   OH281691   1.630   4.098  15.337 -0.1495 -0.0488  0.2103
20067TIP3    H181692   1.601   4.109  15.247 -0.8801  0.4132  0.4993
20067TIP3    H281693   1.549   4.085  15.387  0.2784 -0.7405  0.7363
20068TIP3   OH281694   1.432   5.668   4.223  0.5630  0.3276 -0.5071
20068TIP3    H181695   1.356   5.722   4.244  0.4023 -0.5115  1.1360
20068TIP3    H281696   1.504   5.730   4.210  0.2998  0.9550  1.0021
20069TIP3   OH281697   2.494   4.545   2.501 -0.0451 -0.0013  0.5898
20069TIP3    H181698   2.511   4.628   2.547 -0.8579  0.9854 -0.8325
20069TIP3    H281699   2.578   4.523   2.460 -0.0078  0.4910  0.3971
20070TIP3   OH281700   5.076   1.620  12.912  0.0072 -0.0533 -0.1559
20070TIP3    H181701   5.012   1.624  12.983 -0.6129  2.5860 -0.8194
20070TIP3    H281702   5.032   1.660  12.837  1.7024 -0.0736 -1.1985
20071TIP3   OH281703   4.602   5.311  13.371  0.8590 -0.2661  0.2286
20071TIP3    H181704   4.507   5.310  13.375  0.8008 -1.5985 -1.1549
20071TIP3    H281705   4.630   5.274  13.454  0.2221  1.8943  1.4445
20072TIP3   OH281706   3.464   5.087   0.175 -0.0489  0.4607  0.0535
20072TIP3    H181707   3.457   5.152   0.245  1.2158 -0.2407  0.8688
20072TIP3    H281708   3.559   5.077   0.161 -0.2841  0.4364 -1.6166
20073TIP3   OH281709   1.757   2.843  15.752  0.2550  0.7895  0.3444
20073TIP3    H181710   1.777   2.819  15.661  0.6442 -0.0965  0.6575
20073TIP3    H281711   1.688   2.782  15.778  1.6718 -0.4388  1.3386
20074TIP3   OH281712   3.484   5.281   3.792 -0.2982  0.3309  0.4415
20074TIP3    H181713   3.502   5.311   3.703  2.1620  0.6848  1.0213
20074TIP3    H281714   3.540   5.204   3.803 -0.0816  0.6814  1.8945
20075TIP3   OH281715   1.442   5.059  13.274  0.2025  0.7671 -0.1729
20075TIP3    H181716   1.475   4.981  13.231  0.5348  1.0410 -0.4115
20075TIP3    H281717   1.462   5.131  13.214 -0.2158  1.0242 -0.0146
20076TIP3   OH281718   5.038   5.686  16.147  0.4479  0.3117 -0.4078
20076TIP3    H181719   4.988   5.767  16.139 -1.1502 -0.6425 -0.2592
20076TIP3    H281720   4.974   5.620  16.172  1.4792 -1.2996 -1.9074
20077TIP3   OH281721   2.461   1.060  13.892 -0.5074  0.1708 -0.1015
20077TIP3    H181722   2.445   1.154  13.901  2.2025  0.9502 -2.6879
20077TIP3    H281723   2.410   1.035  13.815 -1.2307 -0.5291  0.5886
20078TIP3   OH281724   4.067   2.303   1.243 -0.1763  0.3355  0.2235
20078TIP3    H181725   4.081   2.236   1.176 -0.4781 -0.3668  0.8534
20078TIP3    H281726   4.001   2.361   1.206  0.3446  0.4816 -0.4739
20079TIP3   OH281727   1.857   0.139   4.729 -0.1663 -0.1168  0.2182
20079TIP3    H181728   1.853   0.120   4.823  0.8509  1.6153  0.6455
20079TIP3    H281729   1.883   0.231   4.725 -0.7930 -0.0118 -1.7663
20080TIP3   OH281730   6.796   2.813   5.184 -0.0250  0.0608 -0.0005
20080TIP3    H181731   6.761   2.766   5.108 -0.2563 -0.6451  0.5389
20080TIP3    H281732   6.835   2.745   5.239  2.0524  0.7958 -0.5036
20081TIP3   OH281733   6.229   1.305   2.782 -0.1681  0.3980 -0.3384
20081TIP3    H181734   6.158   1.278   2.839  0.9643 -1.0533  0.4266
20081TIP3    H281735   6.202   1.277   2.695  0.4451 -2.2497  0.2628
20082TIP3   OH281736   1.909   1.800  15.458  0.1863 -0.6808  0.7128
20082TIP3    H181737   1.993   1.845  15.467  0.4424 -0.9211 -0.4282
20082TIP3    H281738   1.870   1.837  15.379  0.2575 -2.2240 -0.0587
20083TIP3   OH281739   2.050   4.653   0.780 -0.1777  0.9121 -0.2113
20083TIP3    H181740   2.098   4.645   0.698 -2.9904 -1.4619 -1.7553
20083TIP3    H281741   1.962   4.681   0.753 -1.4395 -0.9191  1.8129
20084TIP3   OH281742   3.449   6.453   1.865  0.6325 -0.2695  0.1072
20084TIP3    H181743   3.397   6.393   1.811  2.6302 -1.5840 -0.4082
20084TIP3    H281744   3.386   6.519   1.895 -1.2897 -1.7169 -0.6357
20085TIP3   OH281745   0.574   5.990   2.690  0.4481 -0.3615  0.1401
20085TIP3    H181746   0.620   5.907   2.701  0.5661 -0.2678  0.3621
20085TIP3    H281747   0.628   6.040   2.630  0.8890 -0.0662  0.7741
20086TIP3   OH281748   5.810   0.516  13.842  0.3137  0.1761  0.4158
20086TIP3    H181749   5.762   0.443  13.802  2.0259 -0.3369 -0.7736
20086TIP3    H281750   5.874   0.542  13.775  1.1872  1.3267  1.6732
20087TIP3   OH281751   5.074   0.278   0.387 -0.1029  0.4424 -0.4944
20087TIP3    H181752   5.095   0.207   0.447  1.1308  1.2335  0.0243
20087TIP3    H281753   5.028   0.343   0.441 -0.0999  0.6012 -0.6824
20088TIP3   OH281754   5.495   4.978  10.552  0.2857 -0.0615 -0.5345
20088TIP3    H181755   5.570   5.024  10.513  1.0032  0.1023  0.9730
20088TIP3    H281756   5.458   4.926  10.481  1.8797 -0.1846 -1.2960
20089TIP3   OH281757   3.330   0.237   4.130  0.4295  0.6322 -0.1825
20089TIP3    H181758   3.256   0.194   4.087  1.0823 -0.2775 -0.4055
20089TIP3    H281759   3.307   0.238   4.222 -0.4896  1.6116 -0.4141
20090TIP3   OH281760   5.363   0.712   1.493  0.1980  0.1993  0.0222
20090TIP3    H181761   5.366   0.764   1.573 -0.2242 -0.4903  0.4881
20090TIP3    H281762   5.346   0.623   1.522 -0.7825  0.0778 -0.8865
20091TIP3   OH281763   6.052   4.396   5.872  0.2528  0.3304  0.1693
20091TIP3    H181764   5.959   4.412   5.884 -0.0989 -1.5427  0.0448
20091TIP3    H281765   6.093   4.434   5.950 -0.4629  2.2583 -0.3571
20092TIP3   OH281766   6.226   2.843  11.557 -0.3599 -0.0741  0.5082
20092TIP3    H181767   6.151   2.893  11.589 -0.3186  0.7135 -0.5609
20092TIP3    H281768   6.209   2.832  11.463  1.6417  1.6000 -0.1109
20093TIP3   OH281769   0.911   0.327   0.423  0.2167 -0.0904 -0.5584
20093TIP3    H181770   0.952   0.361   0.503 -1.2329  0.1910  0.0725
20093TIP3    H281771   0.891   0.405   0.372 -1.1516 -0.1092 -0.0666
20094TIP3   OH281772   3.653   3.814  11.805 -0.1554  0.1559 -0.9530
20094TIP3    H181773   3.692   3.727  11.799  0.9148  0.4394  1.4250
20094TIP3    H281774   3.696   3.864  11.736  3.0705  0.1780  0.9627
20095TIP3   OH281775   5.889   3.746  15.668  0.0207  0.1594 -0.6810
20095TIP3    H181776   5.944   3.668  15.674 -0.7887 -0.3569  0.2627
20095TIP3    H281777   5.951   3.818  15.656  1.1107 -0.1532  2.4561
20096TIP3   OH281778   2.331   0.868  10.857 -0.2102  0.0266 -0.0439
20096TIP3    H181779   2.283   0.786  10.843 -0.2452  0.7536 -5.3168
20096TIP3    H281780   2.263   0.935  10.863 -0.0520  0.1904 -0.0622
20097TIP3   OH281781   0.444   4.270  13.306 -0.0821  0.1411  1.0756
20097TIP3    H181782   0.518   4.324  13.334  0.4029  0.1326 -0.1638
20097TIP3    H281783   0.483   4.189  13.273 -0.6587 -0.0155  0.7603
20098TIP3   OH281784   4.292   2.087  14.196 -0.0407 -0.2526  0.4767
20098TIP3    H181785   4.247   2.111  14.278 -2.7793 -0.1453 -1.0128
20098TIP3    H281786   4.272   1.994  14.184 -0.0260 -0.1540 -0.3173
20099TIP3   OH281787   1.311   5.149  16.363  0.4576  0.0936 -0.4920
20099TIP3    H181788   1.357   5.120  16.442 -0.5121 -0.6019 -0.1828
20099TIP3    H281789   1.381   5.184  16.307  1.8101 -3.3801 -1.1467
20100TIP3   OH281790   3.735   1.543  12.261 -0.1713  0.1672 -0.7816
20100TIP3    H181791   3.795   1.477  12.226  1.4180 -0.6075  3.0980
20100TIP3    H281792   3.771   1.626  12.232  0.4835 -0.4796 -1.8466
20101TIP3   OH281793   6.082   0.553  12.275 -0.2326 -0.5082 -0.6608
20101TIP3    H181794   6.014   0.491  12.245 -1.7117  1.2060 -0.9271
20101TIP3    H281795   6.044   0.639  12.260  1.9701  0.4927 -0.6386
20102TIP3   OH281796   4.370   4.539   1.903  0.7027  0.1559  0.1724
20102TIP3    H181797   4.387   4.598   1.976  0.3689  2.7304 -1.7567
20102TIP3    H281798   4.307   4.586   1.848  0.0008 -2.2426 -1.1741
20103TIP3   OH281799   3.645   5.586  11.580 -0.1920 -0.0350 -0.1522
20103TIP3    H181800   3.701   5.648  11.533 -3.5698  1.7441 -2.1251
20103TIP3    H281801   3.647   5.506  11.528 -0.3469  0.4003 -0.8281
20104TIP3   OH281802   3.787   1.753   3.971  0.3602 -0.2111 -0.4146
20104TIP3    H181803   3.786   1.849   3.964 -2.2310 -0.2109 -0.2725
20104TIP3    H281804   3.722   1.724   3.907  1.1597 -1.8999 -0.4697
20105TIP3   OH281805   0.800   6.457  16.761 -0.4075  0.4709  0.6005
20105TIP3    H181806   0.746   6.505  16.698 -0.0597 -1.9742 -1.6559
20105TIP3    H281807   0.737   6.412  16.817 -0.7133  0.1507 -0.0013
20106TIP3   OH281808   1.827   1.854   4.534 -0.2482  0.0092  0.2851
20106TIP3    H181809   1.919   1.881   4.535  0.1289 -1.2710 -0.3050
20106TIP3    H281810   1.781   1.928   4.574  1.1355  0.2858  1.4100
20107TIP3   OH281811   4.416   4.178  14.969 -0.0368  0.4712  0.4333
20107TIP3    H181812   4.351   4.159  14.901 -1.5859  1.0423  1.7308
20107TIP3    H281813   4.495   4.133  14.939 -1.2720 -0.9953 -0.7263
20108TIP3   OH281814   4.742   6.750   0.264  0.1383 -0.2951  0.4692
20108TIP3    H181815   4.672   6.749   0.329  1.1060  0.1286  1.5283
20108TIP3    H281816   4.819   6.718   0.311  0.8222 -0.1089 -0.5058
20109TIP3   OH281817   6.309   1.236  13.416 -0.0072  0.2844 -0.6468
20109TIP3    H181818   6.230   1.183  13.412  0.9976 -1.2353 -0.5230
20109TIP3    H281819   6.328   1.245  13.509  0.7165 -0.4897 -0.7155
20110TIP3   OH281820   6.016   2.815   3.794  0.1920  0.0787  0.2832
20110TIP3    H181821   5.961   2.812   3.716 -1.1718 -0.0108  1.2391
20110TIP3    H281822   6.015   2.907   3.820  0.9976  0.1843 -0.0377
20111TIP3   OH281823   3.072   6.080   1.020  0.1072 -0.4038  0.7525
20111TIP3    H181824   2.989   6.096   1.065  0.0147  1.3713 -0.0416
20111TIP3    H281825   3.073   6.141   0.946  0.4971 -2.9086 -1.3907
20112TIP3   OH281826   1.289   1.163   3.425  0.5326 -0.0460 -0.0933
20112TIP3    H181827   1.334   1.189   3.505 -1.9380  1.0702  0.9568
20112TIP3    H281828   1.199   1.147   3.452  0.0565 -1.3771 -2.3418
20113TIP3   OH281829   1.445   0.155   3.554 -0.1572  0.5332  0.3815
20113TIP3    H181830   1.373   0.097   3.576  0.4722 -0.5491 -0.3353
20113TIP3    H281831   1.516   0.131   3.614 -0.1811  1.1700  0.6742
20114TIP3   OH281832   4.924   2.676   4.067  0.4400 -0.1661  0.5405
20114TIP3    H181833   4.943   2.739   3.997 -0.4807 -0.4993 -0.0322
20114TIP3    H281834   4.884   2.728   4.136  0.5758  0.0369  0.4660
20115TIP3   OH281835   6.483   5.895  15.712  1.1348  0.1709  0.1361
20115TIP3    H181836   6.501   5.988  15.719  0.4368  0.6094 -3.0284
20115TIP3    H281837   6.392   5.885  15.740  0.9173  0.6138 -0.3966
20116TIP3   OH281838   4.058   3.139  12.726 -0.5677 -0.6414 -0.3558
20116TIP3    H181839   4.134   3.086  12.701 -0.8735 -1.5039  0.4994
20116TIP3    H281840   4.037   3.110  12.815 -0.1414  1.6095  0.5357
20117TIP3   OH281841   5.469   4.229   3.524 -0.3890  0.5494  0.1893
20117TIP3    H181842   5.398   4.176   3.560 -0.5251 -0.3248 -1.3376
20117TIP3    H281843   5.548   4.195   3.565 -0.7731  1.1133  1.4248
20118TIP3   OH281844   0.183   4.756   5.245 -0.1735  0.1037 -0.3391
20118TIP3    H181845   0.117   4.761   5.315  0.9806 -0.6550  0.8181
20118TIP3    H281846   0.255   4.706   5.284  0.7274  0.1918 -1.8834
20119TIP3   OH281847   1.383   1.982   0.027  0.1302  0.3817 -0.1853
20119TIP3    H181848   1.344   2.069   0.034 -0.4653  0.1504 -0.5988
20119TIP3    H281849   1.476   1.999   0.011  0.0176  0.9432 -0.2517
20120TIP3   OH281850   2.169   0.605  11.860 -0.1098 -0.0163  0.1753
20120TIP3    H181851   2.258   0.592  11.828  0.2315 -0.7827  1.4386
20120TIP3    H281852   2.133   0.517  11.868 -1.5954  0.3537 -2.0123
20121TIP3   OH281853   1.942   0.457   2.322  0.1165  0.1678  0.2247
20121TIP3    H181854   1.970   0.442   2.413  0.5392 -1.6023 -0.1677
20121TIP3    H281855   1.943   0.369   2.283 -2.8518  0.5131 -0.6950
20122TIP3   OH281856   3.062   2.345  14.055 -0.7636  0.3707 -0.1977
20122TIP3    H181857   3.011   2.424  14.074  0.6210  1.0504  0.7861
20122TIP3    H281858   3.153   2.375  14.056 -0.1724 -1.4144  1.1804
20123TIP3   OH281859   3.023   4.408   4.734 -0.1281  0.2117 -0.6882
20123TIP3    H181860   2.961   4.379   4.801 -1.8707  0.6611 -2.0652
20123TIP3    H281861   3.086   4.463   4.782 -0.3321 -0.8598  0.8603
20124TIP3   OH281862   6.126   4.670  17.187  0.2501 -0.1922 -0.3579
20124TIP3    H181863   6.210   4.677  17.234 -0.3285  0.7701  0.5662
20124TIP3    H281864   6.106   4.760  17.161 -0.2439 -0.4949 -1.0322
20125TIP3   OH281865   1.218   5.269   2.544 -0.3253  0.3821  0.1348
20125TIP3    H181866   1.198   5.297   2.454  0.0702 -0.5433 -0.2539
20125TIP3    H281867   1.314   5.263   2.546 -0.3326  0.4260  0.6303
20126TIP3   OH281868   5.500   6.324   0.561  0.1513 -0.3502  0.0908
20126TIP3    H181869   5.538   6.309   0.648  1.0633 -0.3710 -0.3027
20126TIP3    H281870   5.511   6.240   0.517 -0.8316 -0.5110  0.1431
20127TIP3   OH281871   2.188   5.783   1.767  0.4521  0.1819 -0.4533
20127TIP3    H181872   2.171   5.826   1.683 -1.7846 -1.1554 -0.7176
20127TIP3    H281873   2.108   5.736   1.786  1.4208 -0.5845  1.8247
20128TIP3   OH281874   2.649   5.065  14.936 -0.1557  0.1539  0.5202
20128TIP3    H181875   2.609   5.074  15.022 -2.3119  1.4093 -0.5621
20128TIP3    H281876   2.703   4.987  14.942 -1.2881 -0.4938  2.6369
20129TIP3   OH281877   3.946   1.724   0.576  0.2806 -0.0599  0.5582
20129TIP3    H181878   3.979   1.782   0.645  0.1949  1.5352 -0.7291
20129TIP3    H281879   3.853   1.746   0.569 -0.2737 -1.9590  1.6126
20130TIP3   OH281880   0.599   5.829  14.898  0.3094  0.1981  0.1310
20130TIP3    H181881   0.667   5.895  14.904 -2.7453  3.5977 -0.8075
20130TIP3    H281882   0.536   5.852  14.967 -0.5117 -2.1187  0.2043
20131TIP3   OH281883   5.118   4.779   3.172  0.0410  0.4850 -0.0103
20131TIP3    H181884   5.196   4.773   3.227 -0.2759 -1.4555  0.2706
20131TIP3    H281885   5.102   4.873   3.163  1.8099  0.8836  0.7649
20132TIP3   OH281886   4.013   5.477   5.095 -0.5071  0.3843  0.6129
20132TIP3    H181887   4.064   5.409   5.050  0.1952  0.5910  1.0898
20132TIP3    H281888   3.931   5.434   5.118 -0.8728  0.2692 -0.8438
20133TIP3   OH281889   3.778   0.210  14.385  0.0033  0.7104  0.4658
20133TIP3    H181890   3.773   0.275  14.455 -0.5882 -1.3823  2.4327
20133TIP3    H281891   3.687   0.182  14.371  0.2742  0.1014 -0.1720
20134TIP3   OH281892   1.165   2.126  12.003  0.5286 -0.2815 -0.1504
20134TIP3    H181893   1.181   2.204  11.951  0.0076 -0.7841 -1.0742
20134TIP3    H281894   1.071   2.125  12.017  0.4109 -1.2478 -0.9514
20135TIP3   OH281895   1.552   6.279  14.272 -0.2820  0.3599  0.3793
20135TIP3    H181896   1.585   6.366  14.292  1.9251 -0.2940 -0.2374
20135TIP3    H281897   1.457   6.289  14.270 -0.0928  2.5849  1.0210
20136TIP3   OH281898   4.710   6.722  13.237  0.1495 -0.3651  0.1887
20136TIP3    H181899   4.678   6.652  13.180 -0.8975  0.5335 -0.3535
20136TIP3    H281900   4.650   6.722  13.312 -0.7529  0.9153 -0.5248
20137TIP3   OH281901   5.725   2.733   4.227  0.2090  0.5779  0.6363
20137TIP3    H181902   5.785   2.758   4.157  1.3723 -0.9387  1.0644
20137TIP3    H281903   5.640   2.726   4.184  0.2986  2.7549  0.0293
20138TIP3   OH281904   1.133   5.318  16.225 -0.1877 -0.2551  0.1295
20138TIP3    H181905   1.150   5.263  16.301  1.7439 -0.4344 -0.4106
20138TIP3    H281906   1.102   5.257  16.158 -1.0942 -0.2093  0.4880
20139TIP3   OH281907   2.923   2.390   4.861  0.2047 -0.0613 -0.4345
20139TIP3    H181908   2.838   2.382   4.818  1.6575 -2.2741 -3.0274
20139TIP3    H281909   2.916   2.470   4.913 -2.9844  0.5206 -1.6363
20140TIP3   OH281910   4.044   4.369   3.525  0.1631 -0.0491  0.2613
20140TIP3    H181911   4.085   4.283   3.514  0.8636  0.3668 -0.4421
20140TIP3    H281912   4.115   4.425   3.556 -0.2350  0.3352  0.4846
20141TIP3   OH281913   3.170   1.701  13.589  0.4070  0.2855 -0.0657
20141TIP3    H181914   3.084   1.743  13.587  0.1628 -0.1131  1.4027
20141TIP3    H281915   3.196   1.694  13.497 -1.2026  0.2594 -0.5261
20142TIP3   OH281916   3.850   4.998   0.636  0.2050  0.3040  0.3846
20142TIP3    H181917   3.922   5.047   0.596  0.0418  0.9574  0.8668
20142TIP3    H281918   3.774   5.019   0.582  0.2267  0.2287  0.3255
20143TIP3   OH281919   1.106   6.585  12.553  0.0819  1.3081 -0.5517
20143TIP3    H181920   1.032   6.638  12.522 -0.7592 -0.0149 -0.8461
20143TIP3    H281921   1.114   6.515  12.488 -1.6204 -1.4224  2.1024
20144TIP3   OH281922   6.744   1.828  10.871  0.1135 -0.8802 -0.0577
20144TIP3    H181923   6.768   1.839  10.963  0.6036 -1.2217 -0.1417
20144TIP3    H281924   6.674   1.892  10.857  0.0679 -0.7935  0.5393
20145TIP3   OH281925   5.198   1.073   2.680 -0.2772  0.1053 -0.0099
20145TIP3    H181926   5.291   1.095   2.675 -0.2493  0.1880  0.7566
20145TIP3    H281927   5.168   1.117   2.759 -0.7870 -0.5574  0.1706
20146TIP3   OH281928   5.674   2.936   3.600  0.6799 -0.5346  0.2508
20146TIP3    H181929   5.580   2.920   3.606  0.1469  1.7453 -1.3590
20146TIP3    H281930   5.692   2.999   3.670  0.5090  0.9749 -1.0363
20147TIP3   OH281931   1.860   4.698  13.249  0.1155  0.1786 -0.0863
20147TIP3    H181932   1.908   4.678  13.169 -0.9633 -0.0327 -0.6883
20147TIP3    H281933   1.849   4.614  13.293  0.7299  0.2983  0.2908
20148TIP3   OH281934   4.252   6.707   2.820 -0.0008 -0.2215 -0.1438
20148TIP3    H181935   4.325   6.761   2.789 -0.2482 -0.2216 -0.7486
20148TIP3    H281936   4.252   6.631   2.760  0.0358 -0.6430  0.3891
20149TIP3   OH281937   1.074   0.919  12.426  0.7921  0.0761  0.2920
20149TIP3    H181938   0.993   0.935  12.474  0.4178 -2.1512  0.4850
20149TIP3    H281939   1.045   0.887  12.341  1.4687  1.5943 -0.5168
20150TIP3   OH281940   5.065   6.699   3.768 -0.4203  0.4784  0.6890
20150TIP3    H181941   4.987   6.751   3.750 -0.7966 -0.4142 -0.3061
20150TIP3    H281942   5.118   6.707   3.688 -0.8288 -1.2728  0.2158
20151TIP3   OH281943   4.496   3.361  14.822 -0.0698  0.0880  0.2539
20151TIP3    H181944   4.542   3.445  14.822  2.5348 -1.2730 -1.3517
20151TIP3    H281945   4.561   3.298  14.791 -2.1680 -2.4274  0.7989
20152TIP3   OH281946   1.829   5.681  11.440  0.3265 -0.0520 -0.2138
20152TIP3    H181947   1.815   5.694  11.347  1.9298  1.0413 -0.3044
20152TIP3    H281948   1.875   5.597  11.446 -0.4327 -0.4910 -0.3285
20153TIP3   OH281949   2.924   4.769   5.109 -0.3733 -0.2800  0.4014
20153TIP3    H181950   2.876   4.818   5.042 -1.7528  0.7772  2.1078
20153TIP3    H281951   3.016   4.789   5.092 -0.6662 -0.3434 -1.3915
20154TIP3   OH281952   5.404   0.435   0.138 -0.1873 -0.0726 -0.5379
20154TIP3    H181953   5.311   0.446   0.118 -0.3677  0.8394  0.7047
20154TIP3    H281954   5.450   0.486   0.072 -0.6320  0.5795 -0.3439
20155TIP3   OH281955   3.094   4.729  12.632 -0.1760  0.1182 -0.2970
20155TIP3    H181956   3.015   4.722  12.685  0.0528 -1.2533 -0.1125
20155TIP3    H281957   3.063   4.716  12.542  0.1858 -3.3263  0.0080
20156TIP3   OH281958   6.503   3.019   1.499  0.3841  0.0011  0.7585
20156TIP3    H181959   6.454   3.021   1.582 -0.6443 -1.1466  0.1947
20156TIP3    H281960   6.472   3.095   1.451 -1.4263 -1.0940  0.1125
20157TIP3   OH281961   2.595   1.210  13.416 -0.3328 -0.0860 -0.0195
20157TIP3    H181962   2.501   1.224  13.418 -0.3037  0.2962 -0.8669
20157TIP3    H281963   2.632   1.298  13.419 -0.0206 -0.2010 -0.4596
20158TIP3   OH281964   2.934   0.954   0.155  0.8275 -0.0050 -0.1035
20158TIP3    H181965   2.859   0.986   0.204  1.4051  0.2705  0.6150
20158TIP3    H281966   3.008   1.004   0.189  1.4212 -0.6677 -0.4031
20159TIP3   OH281967   4.690   2.362  17.230 -0.7114  0.2824 -0.1064
20159TIP3    H181968   4.740   2.312  17.295 -0.6425 -0.4935 -0.7547
20159TIP3    H281969   4.611   2.389  17.276 -0.4141  0.1938  0.4630
20160TIP3   OH281970   6.463   1.566  17.074 -0.0512  1.0258  0.5132
20160TIP3    H181971   6.431   1.514  17.001  2.7711  0.0308 -0.0752
20160TIP3    H281972   6.419   1.651  17.064 -0.7300  0.4654 -1.5302
20161TIP3   OH281973   1.794   3.190   3.005 -0.4062  0.7493 -0.1435
20161TIP3    H181974   1.705   3.225   2.995 -0.4823  0.4697 -0.4558
20161TIP3    H281975   1.813   3.151   2.920 -0.3417 -0.0328  0.2333
20162TIP3   OH281976   3.086   4.655  11.715 -0.3685 -0.8663  0.2541
20162TIP3    H181977   3.086   4.741  11.672 -0.0126 -0.9594  0.0631
20162TIP3    H281978   3.139   4.600  11.657  0.6532 -0.8322  1.1421
20163TIP3   OH281979   3.352   3.156  12.557 -0.0798  0.2555 -0.7294
20163TIP3    H181980   3.302   3.203  12.490 -2.9242 -2.7147 -0.8385
20163TIP3    H281981   3.322   3.193  12.640 -0.0495  0.6939 -0.9125
20164TIP3   OH281982   4.470   2.487   3.575 -0.8380 -0.0599 -0.2594
20164TIP3    H181983   4.487   2.537   3.495 -3.4942 -1.3357 -1.6521
20164TIP3    H281984   4.425   2.550   3.633  1.6234  1.0446  0.5367
20165TIP3   OH281985   5.684   3.364   2.876 -0.8557  0.5664  0.6506
20165TIP3    H181986   5.614   3.299   2.868  0.1061 -0.6147  1.7061
20165TIP3    H281987   5.681   3.412   2.793 -0.9083 -1.4989 -0.5900
20166TIP3   OH281988   1.081   2.298  10.688 -0.0061 -0.3689  0.0292
20166TIP3    H181989   0.997   2.337  10.713  1.4574  2.7132  0.4496
20166TIP3    H281990   1.129   2.291  10.771  1.6486  1.8009 -0.6782
20167TIP3   OH281991   0.971   6.161   6.279  0.3274  0.4407 -0.1336
20167TIP3    H181992   0.935   6.085   6.325 -0.8663  1.5506  0.8211
20167TIP3    H281993   1.058   6.134   6.252 -0.7007 -1.8806 -1.3116
20168TIP3   OH281994   2.540   5.884  13.298 -0.0634 -0.4226 -0.2055
20168TIP3    H181995   2.573   5.870  13.209 -1.0980 -1.8517 -0.3758
20168TIP3    H281996   2.564   5.974  13.318 -2.6112  0.9699 -3.1275
20169TIP3   OH281997   2.175   5.008  11.224  0.1526  0.4022  0.7543
20169TIP3    H181998   2.218   5.009  11.138 -1.2973 -1.3462 -0.0371
20169TIP3    H281999   2.215   5.081  11.272  1.0538  1.3600 -1.3720
20170TIP3   OH282000   5.135   4.428  10.807  0.2326  0.0079 -0.2573
20170TIP3    H182001   5.134   4.371  10.884  0.1497  2.1718  1.4271
20170TIP3    H282002   5.049   4.470  10.808  0.0792 -0.2523 -1.7947
20171TIP3   OH282003   3.826   0.978   2.587  0.4457  0.6748  0.9923
20171TIP3    H182004   3.798   1.046   2.648  1.0300  0.4033  1.5732
20171TIP3    H282005   3.797   1.009   2.501  0.1678  1.3559  1.3269
20172TIP3   OH282006   1.970   2.881  13.104  0.0967  0.1589 -0.1285
20172TIP3    H182007   1.905   2.938  13.062 -0.7490 -0.5921  0.1734
20172TIP3    H282008   1.922   2.832  13.170  1.1580  0.3005  0.7763
20173TIP3   OH282009   1.106   1.775   3.502 -0.6850  0.7714  0.4924
20173TIP3    H182010   1.048   1.713   3.458  0.9499  0.6222 -1.5222
20173TIP3    H282011   1.110   1.743   3.593 -0.2034 -1.8412 -0.3953
20174TIP3   OH282012   0.720   3.766   2.657 -0.3285 -0.5937 -0.2018
20174TIP3    H182013   0.630   3.785   2.684 -0.2950  0.5640 -0.8830
20174TIP3    H282014   0.725   3.798   2.567  1.4291  1.4846  0.6001
20175TIP3   OH282015   4.179   4.935  12.908 -0.5758 -0.2561 -0.3253
20175TIP3    H182016   4.271   4.909  12.900 -1.0239 -2.3705  0.8336
20175TIP3    H282017   4.140   4.907  12.825 -0.0536  1.2620 -1.0970
20176TIP3   OH282018   4.730   2.775  12.123 -0.2923  0.0220  0.0590
20176TIP3    H182019   4.636   2.761  12.111 -0.3209  0.2805 -0.0260
20176TIP3    H282020   4.738   2.869  12.139  0.0663  0.1907 -1.0697
20177TIP3   OH282021   4.800   4.721   2.591  0.4647 -0.3133 -0.1427
20177TIP3    H182022   4.843   4.772   2.523 -0.1288 -1.4780 -1.4082
20177TIP3    H282023   4.869   4.704   2.655  1.2659 -0.0260 -0.9160
20178TIP3   OH282024   2.300   2.801  13.840  0.6001  0.6339  0.1228
20178TIP3    H182025   2.248   2.732  13.797 -0.1661  0.6377  1.0178
20178TIP3    H282026   2.361   2.830  13.772  0.2523 -0.2223 -0.5828
20179TIP3   OH282027   1.229   4.778  11.373 -0.0505  0.0410 -0.2708
20179TIP3    H182028   1.134   4.788  11.368 -0.0349  0.1038 -0.4764
20179TIP3    H282029   1.262   4.851  11.320  0.1107  0.0003 -0.2241
20180TIP3   OH282030   5.260   5.355  17.070  0.4309 -0.2842  0.1606
20180TIP3    H182031   5.309   5.361  16.988  3.1904 -1.0121  1.7024
20180TIP3    H282032   5.282   5.436  17.116 -2.0720  0.6901 -0.2938
20181TIP3   OH282033   1.292   5.714  16.286 -0.0485  0.5375 -0.1342
20181TIP3    H182034   1.217   5.736  16.230  0.4344 -0.1714 -1.0693
20181TIP3    H282035   1.368   5.748  16.238  0.6601 -2.5663 -1.3067
20182TIP3   OH282036   5.854   0.271   0.752  0.2185  0.1472 -0.3211
20182TIP3    H182037   5.815   0.358   0.757 -0.0771 -0.0663  1.4066
20182TIP3    H282038   5.839   0.243   0.662 -1.2193  1.1809 -0.4205
20183TIP3   OH282039   4.539   6.371   4.585 -0.0958 -0.1549 -0.2647
20183TIP3    H182040   4.516   6.285   4.619  1.5495 -0.1736  0.8501
20183TIP3    H282041   4.479   6.431   4.629  0.6309 -0.4258  1.1408
20184TIP3   OH282042   2.868   4.535  12.146 -0.3001  0.1566 -0.6207
20184TIP3    H182043   2.885   4.535  12.052 -1.0389  0.3818 -0.7518
20184TIP3    H282044   2.840   4.624  12.166  3.6127  1.2643  0.5027
20185TIP3   OH282045   4.467   0.594   3.709 -0.6735  0.3848 -0.2791
20185TIP3    H182046   4.414   0.652   3.764  0.6310 -1.0928  2.6451
20185TIP3    H282047   4.556   0.627   3.719 -0.7228  1.7736 -3.7853
20186TIP3   OH282048   0.499   4.225   3.464  0.4470  0.3873 -0.1312
20186TIP3    H182049   0.470   4.142   3.503  1.4925 -0.4453 -1.1064
20186TIP3    H282050   0.425   4.284   3.477  0.8754  0.2312  3.4188
20187TIP3   OH282051   4.107   6.079  13.603  0.0821  0.7065 -0.0512
20187TIP3    H182052   4.095   6.033  13.686  0.0122  2.5413  0.9935
20187TIP3    H282053   4.163   6.154  13.625  1.1230  0.5037 -1.9205
20188TIP3   OH282054   3.138   2.298  11.896 -0.9567  0.1994  0.1066
20188TIP3    H182055   3.117   2.275  11.986 -0.9231 -1.2491 -0.2498
20188TIP3    H282056   3.058   2.340  11.863 -0.4877  2.0026  1.2265
20189TIP3   OH282057   1.728   0.488  13.666  0.4593 -1.2716  0.1263
20189TIP3    H182058   1.693   0.576  13.681 -0.1621 -1.3746 -0.7413
20189TIP3    H282059   1.808   0.486  13.719  1.4236  0.4337 -1.2065
20190TIP3   OH282060   3.766   1.396  14.294 -0.2226  0.0918  0.1711
20190TIP3    H182061   3.767   1.376  14.200  0.9762 -0.7315  0.3451
20190TIP3    H282062   3.799   1.317  14.336 -1.3917  0.2101  1.3501
20191TIP3   OH282063   5.257   2.383   1.905 -0.1923  0.7066 -0.2751
20191TIP3    H182064   5.321   2.405   1.973  2.3221 -0.1269 -2.3199
20191TIP3    H282065   5.228   2.468   1.871  1.5165  1.0826 -0.8481
20192TIP3   OH282066   0.119   0.909  13.789  0.2241 -0.3566  0.2798
20192TIP3    H182067   0.049   0.865  13.740 -0.3698 -0.2629  1.0409
20192TIP3    H282068   0.090   0.907  13.880  0.7972  0.4700  0.4900
20193TIP3   OH282069   5.416   4.733   3.054  0.1258 -0.1961 -0.4550
20193TIP3    H182070   5.508   4.720   3.033  0.2265  1.4276 -1.0718
20193TIP3    H282071   5.373   4.747   2.970 -0.4581  0.4022 -0.0690
20194TIP3   OH282072   3.171   6.070  16.149 -0.0172 -0.9283 -0.1376
20194TIP3    H182073   3.218   6.058  16.067 -1.4612 -0.6790 -1.0204
20194TIP3    H282074   3.129   5.986  16.165  1.7822 -1.5693  1.3475
20195TIP3   OH282075   4.801   3.954  15.967 -0.0523 -0.3601 -0.6384
20195TIP3    H182076   4.769   4.043  15.953  0.7855 -0.0337 -0.4971
20195TIP3    H282077   4.892   3.955  15.939  0.1775 -0.9860  0.0320
20196TIP3   OH282078   3.144   0.127  16.317 -0.1320  0.2413 -0.0141
20196TIP3    H182079   3.110   0.157  16.402  0.9410  0.0677  0.4844
20196TIP3    H282080   3.091   0.173  16.252  0.7430  2.3557  0.7386
20197TIP3   OH282081   6.058   4.365   6.202  0.8294 -0.4522 -0.0573
20197TIP3    H182082   6.148   4.363   6.169  1.5569 -0.8746  1.8891
20197TIP3    H282083   6.059   4.433   6.270  0.3101 -2.1140  1.6607
20198TIP3   OH282084   6.680   4.335  17.037  0.2871  0.0525 -0.7641
20198TIP3    H182085   6.668   4.293  17.122  0.4920 -0.4680 -0.9965
20198TIP3    H282086   6.598   4.320  16.990  0.4884 -0.3758 -0.9746
20199TIP3   OH282087   2.796   1.784  13.062  0.3587 -0.1145 -0.5672
20199TIP3    H182088   2.790   1.746  13.150  1.7471 -0.5449 -0.6508
20199TIP3    H282089   2.872   1.742  13.023  0.8380  1.4261 -1.3216
20200TIP3   OH282090   5.796   5.969   0.602 -0.6736 -0.0815  0.5182
20200TIP3    H182091   5.739   5.986   0.677  0.2656  1.1951  0.9450
20200TIP3    H282092   5.880   5.943   0.641 -0.1723  0.6206 -0.0820
20201TIP3   OH282093   1.346   3.740  12.726 -0.2488  0.0544 -0.2747
20201TIP3    H182094   1.336   3.693  12.643  0.6674  1.4417 -1.1630
20201TIP3    H282095   1.265   3.719  12.774 -1.3094  0.1809 -1.9677
20202TIP3   OH282096   2.659   4.241   1.900  0.4187  0.3695 -0.5554
20202TIP3    H182097   2.642   4.331   1.875 -0.2578 -0.0365 -1.5613
20202TIP3    H282098   2.744   4.244   1.944 -1.3641  2.1473  3.0630
20203TIP3   OH282099   5.122   2.939   5.920 -0.6930  1.1651 -0.0784
20203TIP3    H182100   5.149   2.932   6.012  0.1639  1.2819 -0.3139
20203TIP3    H282101   5.080   3.025   5.914  1.5014  2.2551 -0.3444
20204TIP3   OH282102   1.455   6.736  13.397  0.2191 -0.2332 -0.4511
20204TIP3    H182103   1.537   6.705  13.359  0.8902  1.8851 -0.7773
20204TIP3    H282104   1.475   6.747  13.490  0.8230  1.8797 -0.8063
20205TIP3   OH282105   2.878   4.700  12.796  0.1532  0.3392 -0.3408
20205TIP3    H182106   2.872   4.754  12.875  1.4040 -0.3402  0.2267
20205TIP3    H282107   2.818   4.627  12.812 -0.6608  0.9391 -0.6233
20206TIP3   OH282108   5.986   5.131   5.674 -0.4319  0.1266  0.2836
20206TIP3    H182109   5.941   5.051   5.647 -2.5414  1.6033 -0.7078
20206TIP3    H282110   5.960   5.144   5.765 -3.4433  1.8238 -0.7283
20207TIP3   OH282111   5.474   0.801   0.473 -0.1309  0.0681  0.1726
20207TIP3    H182112   5.497   0.713   0.502 -0.0577  0.0937  0.1916
20207TIP3    H282113   5.395   0.823   0.522  0.0668  0.1633  0.4469
20208TIP3   OH282114   3.303   0.559  15.450 -0.0186 -0.1077  0.1764
20208TIP3    H182115   3.251   0.483  15.476 -1.8680  1.5859  1.5174
20208TIP3    H282116   3.297   0.560  15.355  0.0047 -1.5997  0.1348
20209TIP3   OH282117   1.219   0.821   6.623 -0.0140 -0.4188  0.0009
20209TIP3    H182118   1.141   0.827   6.567 -0.3024 -0.7614  0.3574
20209TIP3    H282119   1.264   0.743   6.591  1.3494  0.9996 -1.6525
20210TIP3   OH282120   3.356   5.378  16.609  0.4651  0.2703  0.7837
20210TIP3    H182121   3.442   5.412  16.585  0.5743  0.7962  1.8719
20210TIP3    H282122   3.295   5.442  16.574  0.4267 -0.8311 -1.2319
20211TIP3   OH282123   3.536   6.710   0.710  0.2726 -0.3363 -0.3430
20211TIP3    H182124   3.624   6.674   0.721  0.4924  0.2348 -0.2157
20211TIP3    H282125   3.524   6.716   0.616  0.4037 -0.3368 -0.3596
20212TIP3   OH282126   3.069   3.163  14.531  0.5765  0.4014 -0.6342
20212TIP3    H182127   3.027   3.081  14.504  1.9688 -1.0801  1.4767
20212TIP3    H282128   3.042   3.174  14.622  2.4043  0.9439 -0.1318
20213TIP3   OH282129   6.034   2.214  13.388 -0.5909 -0.2157 -0.4775
20213TIP3    H182130   6.033   2.121  13.365  1.8422  0.0633 -1.8503
20213TIP3    H282131   5.941   2.240  13.386 -1.2199 -2.3792 -0.9179
20214TIP3   OH282132   3.419   5.742  12.068  0.3358  0.3780 -0.0155
20214TIP3    H182133   3.352   5.757  12.135 -0.0141  0.2427 -0.3307
20214TIP3    H282134   3.501   5.737  12.117  0.2064  1.2251  0.3080
20215TIP3   OH282135   2.649   0.466  11.053 -0.1835 -0.5945  0.3737
20215TIP3    H182136   2.585   0.445  10.984 -0.6088  1.5557  0.0879
20215TIP3    H282137   2.734   0.456  11.011 -0.4537  1.3057 -0.6641
20216TIP3   OH282138   0.625   1.500   0.511 -0.2250 -0.1234  0.3732
20216TIP3    H182139   0.542   1.542   0.535 -0.4897 -0.0371 -0.6628
20216TIP3    H282140   0.601   1.436   0.444  0.4767 -0.4513  0.4312
20217TIP3   OH282141   1.457   1.039   2.812  0.2692  0.2423  0.1698
20217TIP3    H182142   1.379   1.093   2.826 -1.0262 -1.5961  0.2343
20217TIP3    H282143   1.487   1.018   2.901  2.4077  3.0899  0.1785
20218TIP3   OH282144   1.892   6.009   2.711  0.1768 -0.4416  0.7056
20218TIP3    H182145   1.797   6.021   2.717  0.2814  1.3282 -0.7393
20218TIP3    H282146   1.902   5.923   2.671 -0.8131 -0.4812  0.5141
20219TIP3   OH282147   0.282   4.503  16.557  0.0659 -0.1853 -0.1873
20219TIP3    H182148   0.286   4.439  16.628  1.0888  2.4163  2.2111
20219TIP3    H282149   0.222   4.570  16.588  3.5049  2.9584  0.0188
20220TIP3   OH282150   6.718   0.573   5.419 -0.0104  0.0662  0.0469
20220TIP3    H182151   6.756   0.547   5.336 -1.8766 -1.3397 -0.3919
20220TIP3    H282152   6.756   0.660   5.437  1.3510 -0.1697 -1.6237
20221TIP3   OH282153   1.570   4.486  15.635  0.6451  0.3830 -0.0023
20221TIP3    H182154   1.619   4.526  15.562 -0.3648  0.9624 -0.3787
20221TIP3    H282155   1.542   4.561  15.688 -2.3994  0.3264 -1.4221
20222TIP3   OH282156   5.985   3.492   1.899  0.3614  0.0052  0.2563
20222TIP3    H182157   6.020   3.502   1.988  0.9777 -1.0854  0.1441
20222TIP3    H282158   6.061   3.505   1.843  0.0975  0.0594 -0.0878
20223TIP3   OH282159   4.619   6.027  17.141  0.2523 -0.5676 -0.1540
20223TIP3    H182160   4.693   6.074  17.181 -1.9695 -0.1681  3.7521
20223TIP3    H282161   4.557   6.095  17.118  0.0094 -1.0906 -1.0448
20224TIP3   OH282162   0.477   3.026   5.279 -0.2227 -0.2177 -0.3252
20224TIP3    H182163   0.501   2.935   5.297 -0.4903 -0.4672 -1.1963
20224TIP3    H282164   0.383   3.022   5.261 -0.1419  0.1577 -0.8229
20225TIP3   OH282165   0.412   3.607  16.067 -0.4541  0.2496  0.0409
20225TIP3    H182166   0.499   3.634  16.039 -0.6818  1.1552  0.1834
20225TIP3    H282167   0.376   3.561  15.991  0.2019 -0.2671  0.0418
20226TIP3   OH282168   2.654   4.032   2.499 -0.1240 -0.0452  0.1916
20226TIP3    H182169   2.704   4.017   2.419 -0.3238  2.3733 -0.4098
20226TIP3    H282170   2.624   3.944   2.524  0.5853 -0.9427 -1.9365
20227TIP3   OH282171   6.251   3.630   5.531  0.2928 -0.0282 -0.0587
20227TIP3    H182172   6.226   3.621   5.439  1.1842 -0.4994 -0.2678
20227TIP3    H282173   6.251   3.724   5.547  0.6945  0.0823 -0.7055
20228TIP3   OH282174   5.810   1.950   5.892 -0.2762  0.3591 -0.5177
20228TIP3    H182175   5.747   1.914   5.830 -0.1982 -0.1676 -0.3008
20228TIP3    H282176   5.757   1.971   5.969 -0.2205  0.0868 -0.4027
20229TIP3   OH282177   0.714   5.167   0.731  0.6430  0.1562 -0.1170
20229TIP3    H182178   0.749   5.146   0.817  2.3690  0.1173 -0.8060
20229TIP3    H282179   0.722   5.086   0.681 -2.7964 -0.5715  0.4491
20230TIP3   OH282180   1.993   5.876   4.992 -0.0106  0.4415  0.0720
20230TIP3    H182181   1.954   5.936   4.928  0.2867 -0.6650 -1.1825
20230TIP3    H282182   2.087   5.882   4.975  0.0365 -0.2188  0.0673
20231TIP3   OH282183   6.471   1.743   6.146 -0.3624  0.2108 -0.2154
20231TIP3    H182184   6.411   1.726   6.218 -0.5299 -0.4479 -0.4994
20231TIP3    H282185   6.557   1.715   6.179 -0.1058  1.6701  0.3848
20232TIP3   OH282186   6.271   4.651  16.273  0.4329  0.0807 -0.4930
20232TIP3    H182187   6.279   4.662  16.178  1.7436  0.9394 -0.2867
20232TIP3    H282188   6.351   4.689  16.309 -0.0660 -0.2158  0.9648
20233CLA    CLA82189   3.991   2.266  13.803 -0.0170 -0.4841  0.3814
20234LIG     O182190   3.511   3.046  16.439 -0.3518 -0.0795  0.9024
20234LIG     O282191   3.393   3.721  16.765 -0.2874 -0.0844  0.2168
20234LIG     O382192   3.292   3.062  15.813  0.2404  0.3330  0.1111
20234LIG     O482193   3.439   3.798  16.555 -0.2440  0.2522 -0.2832
20234LIG      N82194   3.780   3.115  16.539  0.2526 -0.5186  0.3828
20234LIG     C182195   3.742   3.260  16.523  0.5322 -0.2017  0.4441
20234LIG     C282196   3.688   3.029  16.624 -0.7689 -0.2953 -0.3326
20234LIG     C382197   3.709   3.347  16.647  0.1036  0.4081  0.0856
20234LIG     C482198   3.918   3.102  16.600  0.8608  0.0041  0.2508
20234LIG     C582199   3.796   3.054  16.403 -0.7217  0.7958 -0.0170
20234LIG     C682200   3.535   3.041  16.581  0.0380 -0.2128  0.2169
20234LIG     C782201   3.655   3.486  16.609 -0.6778 -0.0596  0.4772
20234LIG     C882202   3.379   3.025  16.394 -0.6858  0.0377 -0.4021
20234LIG     C982203   3.648   3.578  16.731 -0.7206 -0.8145 -0.4152
20234LIG    C1082204   3.356   3.034  16.234  0.6672 -0.0443 -0.1709
20234LIG    C1182205   3.293   3.151  16.458  0.4416 -1.0264  0.4908
20234LIG    C1282206   3.339   2.879  16.433 -0.5680 -0.2166  0.3238
20234LIG    C1382207   3.623   3.724  16.693  0.0659 -0.3321 -0.6016
20234LIG    C1482208   3.227   3.022  16.177  0.2983  0.7097 -0.4531
20234LIG    C1582209   3.463   3.061  16.147  0.2255 -0.7443 -0.5693
20234LIG    C1682210   3.321   3.281  16.402  0.3666  0.4710 -0.7051
20234LIG    C1782211   3.210   2.840  16.472  0.6430 -0.1124  0.1218
20234LIG    C1882212   3.222   3.154  16.582  0.0914 -0.3474  0.2836
20234LIG    C1982213   3.441   2.774  16.425  0.4559 -1.2358  0.7380
20234LIG    C2082214   3.475   3.750  16.657  0.1806  0.3315 -0.2428
20234LIG    C2182215   3.210   3.036  16.038  0.5303 -1.2565 -0.2521
20234LIG    C2282216   3.444   3.061  16.008 -0.5891  0.3110  0.6404
20234LIG    C2382217   3.264   3.398  16.446  0.6767  0.2993 -0.3790
20234LIG    C2482218   3.182   2.706  16.508 -0.2176  0.2173 -0.0129
20234LIG    C2582219   3.164   3.275  16.633 -0.1617 -0.5732 -0.3525
20234LIG    C2682220   3.411   2.642  16.459 -0.1556 -0.1693 -0.5563
20234LIG    C2782221   3.318   3.049  15.958  0.0277  0.6114 -0.5147
20234LIG    C2882222   3.181   3.396  16.565  0.4847 -0.3875 -0.1233
20234LIG    C2982223   3.281   2.609  16.512 -0.2323  0.1264  0.4588
20234LIG    C3082224   3.411   3.071  15.726  0.3989  0.1268 -0.2838
20234LIG     H182225   3.647   3.270  16.474 -0.4615 -0.6793  2.2271
20234LIG     H282226   3.816   3.305  16.458 -0.0976  0.2583  0.0383
20234LIG     H382227   3.705   3.056  16.727  2.9707  0.3536 -1.0504
20234LIG     H482228   3.732   2.931  16.619  1.0799  0.4898  0.2590
20234LIG     H582229   3.803   3.361  16.704  0.8003 -0.4164 -0.8398
20234LIG     H682230   3.637   3.297  16.715  1.8394 -1.7763  0.3506
20234LIG     H782231   3.995   3.150  16.542  1.2569  0.5514  1.2159
20234LIG     H882232   3.951   2.999  16.591  0.3986 -0.0744 -0.5801
20234LIG     H982233   3.932   3.139  16.701 -0.1301  0.2727  0.2917
20234LIG    H1082234   3.804   2.947  16.407  0.4013  0.9336  3.7963
20234LIG    H1182235   3.877   3.101  16.349 -0.2311 -0.6778 -0.5779
20234LIG    H1282236   3.710   3.069  16.339 -1.0811 -0.2853  0.2108
20234LIG    H1382237   3.488   2.955  16.633 -0.5180 -0.3223 -0.4563
20234LIG    H1482238   3.492   3.133  16.625 -2.3546 -1.8030  1.2888
20234LIG    H1582239   3.558   3.486  16.555 -0.3269  3.0165 -0.2338
20234LIG    H1682240   3.736   3.525  16.543  0.3987 -1.6775  0.7980
20234LIG    H1782241   3.744   3.577  16.786 -0.6105 -1.1886 -0.6095
20234LIG    H1882242   3.574   3.544  16.807 -0.6006 -1.8504 -0.7465
20234LIG    H1982243   3.688   3.751  16.608 -1.1860 -0.1459 -1.5120
20234LIG    H2082244   3.650   3.771  16.790  1.5135 -2.3648  0.0311
20234LIG    H2182245   3.146   3.011  16.247  0.7965  0.3610  0.0788
20234LIG    H2282246   3.560   3.065  16.195 -0.8026 -0.1257  1.5031
20234LIG    H2382247   3.393   3.295  16.322  0.5224  0.2247 -0.6066
20234LIG    H2482248   3.133   2.915  16.462  0.9502 -0.0334 -1.8937
20234LIG    H2582249   3.212   3.063  16.640  2.9514 -0.2789  0.9299
20234LIG    H2682250   3.543   2.806  16.407  0.6337 -1.9035  0.5471
20234LIG    H2782251   3.115   3.018  15.989 -0.2606  1.4502  0.1610
20234LIG    H2882252   3.527   3.071  15.940 -0.5446 -0.3068  0.5984
20234LIG    H2982253   3.277   3.500  16.411  1.1689 -0.0745 -1.2969
20234LIG    H3082254   3.078   2.682  16.525 -0.8423  2.3767 -0.6692
20234LIG    H3182255   3.110   3.268  16.726  1.4635 -2.1764  0.4974
20234LIG    H3282256   3.482   2.560  16.468  0.7527  0.5403 -1.1086
20234LIG    H3382257   3.139   3.488  16.604  0.1782 -0.7690  0.4533
20234LIG    H3482258   3.260   2.507  16.539  0.1994 -0.1145 -0.1178
20234LIG    H3582259   3.299   3.736  16.749 -0.1810 -0.4732 -0.7855
20234LIG    H3682260   3.482   3.148  15.763  1.2500 -1.2492  0.9969
20234LIG    H3782261   3.371   3.084  15.623 -0.1615  0.3486 -0.0432
20234LIG    H3882262   3.472   2.979  15.736  0.4667  0.3868  1.8273
   6.82013   6.82013  17.29240
